                               Psi4 1.3.2 release

  ==> Input File <==

--------------------------------------------------------------------------
#psi4
#
memory 32 gb

molecule  {
0 1
  S        1.5304545    -1.1090689     0.0000010
  O       -1.4242190    -1.5655850    -0.0000010
  N       -2.0132560     0.6673690     0.0000000
  N        0.6809160     1.3479160    -0.0000010
  C        0.2854510     0.0833790     0.0000000
  C       -1.1339070    -0.3627170    -0.0000010
  C       -3.4470980     0.4588130     0.0000010
  C        2.6913180     0.1894230     0.0000000
  C        2.0463170     1.4081830     0.0000000
  H       -1.6187540     1.6018420     0.0000010
  H       -3.9049180     0.8972840    -0.8911940
  H       -3.9049160     0.8972760     0.8912010
  H       -3.6178680    -0.6175520    -0.0000030
  H        3.7564850    -0.0027380     0.0000010
  H        2.5404020     2.3736430     0.0000000
units angstrom
no_reorient  #important for SAPT in psi4, default
symmetry c1  #important for SAPT in psi4, default
}

set PROPERTIES_ORIGIN ["COM"]
properties('MP2/aug-cc-pvtz', properties = ['dipole'])
--------------------------------------------------------------------------

    Molecular point group: c1
  Charge       = 0
  Multiplicity = 1
  Basis Set: AUG-CC-PVTZ
    Blend: AUG-CC-PVTZ
  Basis Set: (AUG-CC-PVTZ AUX)
    Blend: AUG-CC-PVTZ-JKFIT

    Orbital Energies [Eh]
    ---------------------

    Doubly Occupied:

       1A    -92.013495     2A    -20.529729     3A    -15.596982
       4A    -15.594031     5A    -11.369291     6A    -11.325811
       7A    -11.286054     8A    -11.284383     9A    -11.263873
      10A     -9.012752    11A     -6.693435    12A     -6.692856
      13A     -6.692280    14A     -1.384701    15A     -1.294901
      16A     -1.238050    17A     -1.075167    18A     -1.036878
      19A     -0.960110    20A     -0.847973    21A     -0.805516
      22A     -0.777439    23A     -0.716326    24A     -0.655555
      25A     -0.649954    26A     -0.633712    27A     -0.600193
      28A     -0.583446    29A     -0.565876    30A     -0.552250
      31A     -0.531548    32A     -0.516273    33A     -0.466943
      34A     -0.436868    35A     -0.407574    36A     -0.391911
      37A     -0.349471

  @DF-RHF Final Energy:  -774.27562586096576

   => Energetics <=

    Nuclear Repulsion Energy =            504.2801629365736744
    One-Electron Energy =               -2063.4443566370805456
    Two-Electron Energy =                 784.8885678395412242
    Total Energy =                       -774.2756258609657607
  Basis Set: (AUG-CC-PVTZ AUX)
    Blend: AUG-CC-PVTZ-RI
    Molecular point group: c1

    Geometry (in Angstrom), charge = 0, multiplicity = 1:

       Center              X                  Y                   Z               Mass
    ------------   -----------------  -----------------  -----------------  -----------------
         S            1.488226172035    -1.068473097937     0.000000943522    31.972071174400
         O           -1.466447327965    -1.524989197937    -0.000001056478    15.994914619570
         N           -2.055484327965     0.707964802063    -0.000000056478    14.003074004430
         N            0.638687672035     1.388511802063    -0.000001056478    14.003074004430
         C            0.243222672035     0.123974802063    -0.000000056478    12.000000000000
         C           -1.176135327965    -0.322121197937    -0.000001056478    12.000000000000
         C           -3.489326327965     0.499408802063     0.000000943522    12.000000000000
         C            2.649089672035     0.230018802063    -0.000000056478    12.000000000000
         C            2.004088672035     1.448778802063    -0.000000056478    12.000000000000
         H           -1.660982327965     1.642437802063     0.000000943522     1.007825032230
         H           -3.947146327965     0.937879802063    -0.891194056478     1.007825032230
         H           -3.947144327965     0.937871802063     0.891200943522     1.007825032230
         H           -3.660096327965    -0.576956197937    -0.000003056478     1.007825032230
         H            3.714256672035     0.037857802063     0.000000943522     1.007825032230
         H            2.498173672035     2.414238802063    -0.000000056478     1.007825032230

  Basis Set: AUG-CC-PVTZ
    Blend: AUG-CC-PVTZ
  Basis Set: (AUG-CC-PVTZ AUX)
    Blend: AUG-CC-PVTZ-JKFIT
	 Reference Energy          =    -774.2756258609657607 [Eh]
	 Singles Energy            =      -0.0000000000000000 [Eh]
	 Same-Spin Energy          =      -0.4586152641702398 [Eh]
	 Opposite-Spin Energy      =      -1.3694474319135472 [Eh]
	 Correlation Energy        =      -1.8280626960837871 [Eh]
	 Total Energy              =    -776.1036885570495087 [Eh]

	 ================> DF-SCS-MP2 Energies <==================
	-----------------------------------------------------------
	 SCS Same-Spin Scale       =       0.3333333333333333 [-]
	 SCS Opposite-Spin Scale   =       1.2000000000000000 [-]
	 SCS Same-Spin Energy      =      -0.1528717547234132 [Eh]
	 SCS Opposite-Spin Energy  =      -1.6433369182962567 [Eh]
	 SCS Correlation Energy    =      -1.7962086730196700 [Eh]
	 SCS Total Energy          =    -776.0718345339854523 [Eh]
	-----------------------------------------------------------

  Dipole Moment: [D]
     X:     1.0859      Y:     2.4510      Z:     0.0000     Total:     2.6807

*** Psi4 exiting successfully. Buy a developer a beer!
