                               Psi4 1.3.2 release

  ==> Input File <==

--------------------------------------------------------------------------
#psi4
#
memory 32 gb

molecule  {
0 1
  S        1.5510760    -1.0871590     0.0000010
  O       -1.4242190    -1.5655850    -0.0000010
  N       -2.0132560     0.6673690     0.0000000
  N        0.6809160     1.3479160    -0.0000010
  C        0.1554373     0.1316436    -0.0000002
  C       -1.1339070    -0.3627170    -0.0000010
  C       -3.4470980     0.4588130     0.0000010
  C        2.6913180     0.1894230     0.0000000
  C        2.0463170     1.4081830     0.0000000
  H       -1.6187540     1.6018420     0.0000010
  H       -3.9049180     0.8972840    -0.8911940
  H       -3.9049160     0.8972760     0.8912010
  H       -3.6178680    -0.6175520    -0.0000030
  H        3.7564850    -0.0027380     0.0000010
  H        2.5404020     2.3736430     0.0000000
units angstrom
no_reorient  #important for SAPT in psi4, default
symmetry c1  #important for SAPT in psi4, default
}

set PROPERTIES_ORIGIN ["COM"]
properties('MP2/aug-cc-pvtz', properties = ['dipole'])
--------------------------------------------------------------------------

    Molecular point group: c1
  Charge       = 0
  Multiplicity = 1
  Basis Set: AUG-CC-PVTZ
    Blend: AUG-CC-PVTZ
  Basis Set: (AUG-CC-PVTZ AUX)
    Blend: AUG-CC-PVTZ-JKFIT

    Orbital Energies [Eh]
    ---------------------

    Doubly Occupied:

       1A    -92.006487     2A    -20.530908     3A    -15.607681
       4A    -15.594186     5A    -11.364932     6A    -11.329550
       7A    -11.292049     8A    -11.286870     9A    -11.263789
      10A     -9.004680    11A     -6.685365    12A     -6.684645
      13A     -6.684257    14A     -1.388958    15A     -1.292062
      16A     -1.241416    17A     -1.075942    18A     -1.046289
      19A     -0.960635    20A     -0.870584    21A     -0.806886
      22A     -0.779636    23A     -0.715520    24A     -0.663615
      25A     -0.654547    26A     -0.638387    27A     -0.610065
      28A     -0.583370    29A     -0.560791    30A     -0.552771
      31A     -0.530750    32A     -0.512562    33A     -0.457761
      34A     -0.431019    35A     -0.410686    36A     -0.392853
      37A     -0.343376

  @DF-RHF Final Energy:  -774.25209339799676

   => Energetics <=

    Nuclear Repulsion Energy =            504.1953151889671290
    One-Electron Energy =               -2063.1830530279862614
    Two-Electron Energy =                 784.7356444410224867
    Total Energy =                       -774.2520933979967594
  Basis Set: (AUG-CC-PVTZ AUX)
    Blend: AUG-CC-PVTZ-RI
    Molecular point group: c1

    Geometry (in Angstrom), charge = 0, multiplicity = 1:

       Center              X                  Y                   Z               Mass
    ------------   -----------------  -----------------  -----------------  -----------------
         S            1.515190805407    -1.055573755079     0.000000960421    31.972071174400
         O           -1.460104194593    -1.533999755079    -0.000001039579    15.994914619570
         N           -2.049141194593     0.698954244921    -0.000000039579    14.003074004430
         N            0.645030805407     1.379501244921    -0.000001039579    14.003074004430
         C            0.119552105407     0.163228844921    -0.000000239579    12.000000000000
         C           -1.169792194593    -0.331131755079    -0.000001039579    12.000000000000
         C           -3.482983194593     0.490398244921     0.000000960421    12.000000000000
         C            2.655432805407     0.221008244921    -0.000000039579    12.000000000000
         C            2.010431805407     1.439768244921    -0.000000039579    12.000000000000
         H           -1.654639194593     1.633427244921     0.000000960421     1.007825032230
         H           -3.940803194593     0.928869244921    -0.891194039579     1.007825032230
         H           -3.940801194593     0.928861244921     0.891200960421     1.007825032230
         H           -3.653753194593    -0.585966755079    -0.000003039579     1.007825032230
         H            3.720599805407     0.028847244921     0.000000960421     1.007825032230
         H            2.504516805407     2.405228244921    -0.000000039579     1.007825032230

  Basis Set: AUG-CC-PVTZ
    Blend: AUG-CC-PVTZ
  Basis Set: (AUG-CC-PVTZ AUX)
    Blend: AUG-CC-PVTZ-JKFIT
	 Reference Energy          =    -774.2520933979967594 [Eh]
	 Singles Energy            =      -0.0000000000000000 [Eh]
	 Same-Spin Energy          =      -0.4612266090202329 [Eh]
	 Opposite-Spin Energy      =      -1.3733686580966000 [Eh]
	 Correlation Energy        =      -1.8345952671168329 [Eh]
	 Total Energy              =    -776.0866886651135701 [Eh]

	 ================> DF-SCS-MP2 Energies <==================
	-----------------------------------------------------------
	 SCS Same-Spin Scale       =       0.3333333333333333 [-]
	 SCS Opposite-Spin Scale   =       1.2000000000000000 [-]
	 SCS Same-Spin Energy      =      -0.1537422030067443 [Eh]
	 SCS Opposite-Spin Energy  =      -1.6480423897159200 [Eh]
	 SCS Correlation Energy    =      -1.8017845927226643 [Eh]
	 SCS Total Energy          =    -776.0538779907194566 [Eh]
	-----------------------------------------------------------

  Dipole Moment: [D]
     X:     1.0078      Y:     2.7497      Z:     0.0000     Total:     2.9286

*** Psi4 exiting successfully. Buy a developer a beer!
