                               Psi4 1.3.2 release

  ==> Input File <==

--------------------------------------------------------------------------
#psi4
#
memory 32 gb

molecule  {
0 1
  S        1.5510760    -1.0871590     0.0000010
  O       -1.4242190    -1.5655850    -0.0000010
  N       -2.0132560     0.6673690     0.0000000
  N        0.6809160     1.3479160    -0.0000010
  C        0.2120363     0.1512780    -0.0000001
  C       -1.1339070    -0.3627170    -0.0000010
  C       -3.4470980     0.4588130     0.0000010
  C        2.6913180     0.1894230     0.0000000
  C        2.0463170     1.4081830     0.0000000
  H       -1.6187540     1.6018420     0.0000010
  H       -3.9049180     0.8972840    -0.8911940
  H       -3.9049160     0.8972760     0.8912010
  H       -3.6178680    -0.6175520    -0.0000030
  H        3.7564850    -0.0027380     0.0000010
  H        2.5404020     2.3736430     0.0000000
units angstrom
no_reorient  #important for SAPT in psi4, default
symmetry c1  #important for SAPT in psi4, default
}

set PROPERTIES_ORIGIN ["COM"]
properties('MP2/aug-cc-pvtz', properties = ['dipole'])
--------------------------------------------------------------------------

    Molecular point group: c1
  Charge       = 0
  Multiplicity = 1
  Basis Set: AUG-CC-PVTZ
    Blend: AUG-CC-PVTZ
  Basis Set: (AUG-CC-PVTZ AUX)
    Blend: AUG-CC-PVTZ-JKFIT

    Orbital Energies [Eh]
    ---------------------

    Doubly Occupied:

       1A    -92.004220     2A    -20.532909     3A    -15.600998
       4A    -15.595326     5A    -11.369870     6A    -11.327393
       7A    -11.287891     8A    -11.284795     9A    -11.264458
      10A     -9.003075    11A     -6.683779    12A     -6.683088
      13A     -6.682598    14A     -1.387875    15A     -1.304506
      16A     -1.241674    17A     -1.078273    18A     -1.037936
      19A     -0.961139    20A     -0.858484    21A     -0.810634
      22A     -0.779262    23A     -0.716720    24A     -0.660922
      25A     -0.653248    26A     -0.637261    27A     -0.608973
      28A     -0.586082    29A     -0.561604    30A     -0.553467
      31A     -0.533184    32A     -0.513058    33A     -0.463493
      34A     -0.430725    35A     -0.412925    36A     -0.394539
      37A     -0.344440

  @DF-RHF Final Energy:  -774.26790287468646

   => Energetics <=

    Nuclear Repulsion Energy =            504.4032777725743131
    One-Electron Energy =               -2063.6407144655968295
    Two-Electron Energy =                 784.9695338183361173
    Total Energy =                       -774.2679028746864560
  Basis Set: (AUG-CC-PVTZ AUX)
    Blend: AUG-CC-PVTZ-RI
    Molecular point group: c1

    Geometry (in Angstrom), charge = 0, multiplicity = 1:

       Center              X                  Y                   Z               Mass
    ------------   -----------------  -----------------  -----------------  -----------------
         S            1.510408467720    -1.057232765505     0.000000951971    31.972071174400
         O           -1.464886532280    -1.535658765505    -0.000001048029    15.994914619570
         N           -2.053923532280     0.697295234495    -0.000000048029    14.003074004430
         N            0.640248467720     1.377842234495    -0.000001048029    14.003074004430
         C            0.171368767720     0.181204234495    -0.000000148029    12.000000000000
         C           -1.174574532280    -0.332790765505    -0.000001048029    12.000000000000
         C           -3.487765532280     0.488739234495     0.000000951971    12.000000000000
         C            2.650650467720     0.219349234495    -0.000000048029    12.000000000000
         C            2.005649467720     1.438109234495    -0.000000048029    12.000000000000
         H           -1.659421532280     1.631768234495     0.000000951971     1.007825032230
         H           -3.945585532280     0.927210234495    -0.891194048029     1.007825032230
         H           -3.945583532280     0.927202234495     0.891200951971     1.007825032230
         H           -3.658535532280    -0.587625765505    -0.000003048029     1.007825032230
         H            3.715817467720     0.027188234495     0.000000951971     1.007825032230
         H            2.499734467720     2.403569234495    -0.000000048029     1.007825032230

  Basis Set: AUG-CC-PVTZ
    Blend: AUG-CC-PVTZ
  Basis Set: (AUG-CC-PVTZ AUX)
    Blend: AUG-CC-PVTZ-JKFIT
	 Reference Energy          =    -774.2679028746864560 [Eh]
	 Singles Energy            =      -0.0000000000000000 [Eh]
	 Same-Spin Energy          =      -0.4590212738422735 [Eh]
	 Opposite-Spin Energy      =      -1.3698629297109912 [Eh]
	 Correlation Energy        =      -1.8288842035532649 [Eh]
	 Total Energy              =    -776.0967870782396858 [Eh]

	 ================> DF-SCS-MP2 Energies <==================
	-----------------------------------------------------------
	 SCS Same-Spin Scale       =       0.3333333333333333 [-]
	 SCS Opposite-Spin Scale   =       1.2000000000000000 [-]
	 SCS Same-Spin Energy      =      -0.1530070912807578 [Eh]
	 SCS Opposite-Spin Energy  =      -1.6438355156531894 [Eh]
	 SCS Correlation Energy    =      -1.7968426069339474 [Eh]
	 SCS Total Energy          =    -776.0647454816204345 [Eh]
	-----------------------------------------------------------

  Dipole Moment: [D]
     X:     0.8880      Y:     2.7174      Z:     0.0000     Total:     2.8588

*** Psi4 exiting successfully. Buy a developer a beer!
