                               Psi4 1.3.2 release

  ==> Input File <==

--------------------------------------------------------------------------
#psi4
#
memory 32 gb

molecule  {
0 1
  S        1.5510760    -1.0871590     0.0000010
  O       -1.5074196    -1.5424037    -0.0000011
  N       -2.0132560     0.6673690     0.0000000
  N        0.6809160     1.3479160    -0.0000010
  C        0.2854510     0.0833790     0.0000000
  C       -1.1339070    -0.3627170    -0.0000010
  C       -3.4470980     0.4588130     0.0000010
  C        2.6913180     0.1894230     0.0000000
  C        2.0463170     1.4081830     0.0000000
  H       -1.6187540     1.6018420     0.0000010
  H       -3.9049180     0.8972840    -0.8911940
  H       -3.9049160     0.8972760     0.8912010
  H       -3.6178680    -0.6175520    -0.0000030
  H        3.7564850    -0.0027380     0.0000010
  H        2.5404020     2.3736430     0.0000000
units angstrom
no_reorient  #important for SAPT in psi4, default
symmetry c1  #important for SAPT in psi4, default
}

set PROPERTIES_ORIGIN ["COM"]
properties('MP2/aug-cc-pvtz', properties = ['dipole'])
--------------------------------------------------------------------------

    Molecular point group: c1
  Charge       = 0
  Multiplicity = 1
  Basis Set: AUG-CC-PVTZ
    Blend: AUG-CC-PVTZ
  Basis Set: (AUG-CC-PVTZ AUX)
    Blend: AUG-CC-PVTZ-JKFIT

    Orbital Energies [Eh]
    ---------------------

    Doubly Occupied:

       1A    -92.015579     2A    -20.526902     3A    -15.599965
       4A    -15.589269     5A    -11.368338     6A    -11.328310
       7A    -11.287595     8A    -11.285314     9A    -11.260018
      10A     -9.015506    11A     -6.696214    12A     -6.695684
      13A     -6.695062    14A     -1.383826    15A     -1.298726
      16A     -1.232202    17A     -1.083800    18A     -1.038539
      19A     -0.957983    20A     -0.848818    21A     -0.807535
      22A     -0.774584    23A     -0.720668    24A     -0.656267
      25A     -0.648505    26A     -0.631644    27A     -0.600392
      28A     -0.584829    29A     -0.569099    30A     -0.547461
      31A     -0.531475    32A     -0.520286    33A     -0.468058
      34A     -0.436435    35A     -0.409056    36A     -0.390454
      37A     -0.351053

  @DF-RHF Final Energy:  -774.27494441376973

   => Energetics <=

    Nuclear Repulsion Energy =            504.4324183288305790
    One-Electron Energy =               -2063.7038223870995353
    Two-Electron Energy =                 784.9964596444991685
    Total Energy =                       -774.2749444137697310
  Basis Set: (AUG-CC-PVTZ AUX)
    Blend: AUG-CC-PVTZ-RI
    Molecular point group: c1

    Geometry (in Angstrom), charge = 0, multiplicity = 1:

       Center              X                  Y                   Z               Mass
    ------------   -----------------  -----------------  -----------------  -----------------
         S            1.513575696471    -1.054106411307     0.000000954784    31.972071174400
         O           -1.544919903529    -1.509351111307    -0.000001145216    15.994914619570
         N           -2.050756303529     0.700421588693    -0.000000045216    14.003074004430
         N            0.643415696471     1.380968588693    -0.000001045216    14.003074004430
         C            0.247950696471     0.116431588693    -0.000000045216    12.000000000000
         C           -1.171407303529    -0.329664411307    -0.000001045216    12.000000000000
         C           -3.484598303529     0.491865588693     0.000000954784    12.000000000000
         C            2.653817696471     0.222475588693    -0.000000045216    12.000000000000
         C            2.008816696471     1.441235588693    -0.000000045216    12.000000000000
         H           -1.656254303529     1.634894588693     0.000000954784     1.007825032230
         H           -3.942418303529     0.930336588693    -0.891194045216     1.007825032230
         H           -3.942416303529     0.930328588693     0.891200954784     1.007825032230
         H           -3.655368303529    -0.584499411307    -0.000003045216     1.007825032230
         H            3.718984696471     0.030314588693     0.000000954784     1.007825032230
         H            2.502901696471     2.406695588693    -0.000000045216     1.007825032230

  Basis Set: AUG-CC-PVTZ
    Blend: AUG-CC-PVTZ
  Basis Set: (AUG-CC-PVTZ AUX)
    Blend: AUG-CC-PVTZ-JKFIT
	 Reference Energy          =    -774.2749444137697310 [Eh]
	 Singles Energy            =      -0.0000000000000000 [Eh]
	 Same-Spin Energy          =      -0.4590743121119680 [Eh]
	 Opposite-Spin Energy      =      -1.3692876706855450 [Eh]
	 Correlation Energy        =      -1.8283619827975131 [Eh]
	 Total Energy              =    -776.1033063965672909 [Eh]

	 ================> DF-SCS-MP2 Energies <==================
	-----------------------------------------------------------
	 SCS Same-Spin Scale       =       0.3333333333333333 [-]
	 SCS Opposite-Spin Scale   =       1.2000000000000000 [-]
	 SCS Same-Spin Energy      =      -0.1530247707039893 [Eh]
	 SCS Opposite-Spin Energy  =      -1.6431452048226540 [Eh]
	 SCS Correlation Energy    =      -1.7961699755266434 [Eh]
	 SCS Total Energy          =    -776.0711143892963264 [Eh]
	-----------------------------------------------------------

  Dipole Moment: [D]
     X:     1.4481      Y:     2.4200      Z:     0.0000     Total:     2.8202

*** Psi4 exiting successfully. Buy a developer a beer!
