                               Psi4 1.4a3.dev225

  ==> Input File <==

--------------------------------------------------------------------------
#psi4
#
memory 32 gb

molecule  {
0 1
  S        1.5510760    -1.0871590     0.0000010
  O       -1.4242190    -1.5655850    -0.0000010
  N       -2.0132560     0.6673690     0.0000000
  N        0.6809160     1.3479160    -0.0000010
  C        0.2854510     0.0833790     0.0000000
  C       -1.1339070    -0.3627170    -0.0000010
  C       -3.4470980     0.4588130     0.0000010
  C        2.6913180     0.1894230     0.0000000
  C        2.0263365     1.4073011    -0.0000000
  H       -1.6187540     1.6018420     0.0000010
  H       -3.9049180     0.8972840    -0.8911940
  H       -3.9049160     0.8972760     0.8912010
  H       -3.6178680    -0.6175520    -0.0000030
  H        3.7564850    -0.0027380     0.0000010
  H        2.5404020     2.3736430     0.0000000
units angstrom
no_reorient  #important for SAPT in psi4, default
symmetry c1  #important for SAPT in psi4, default
}

set PROPERTIES_ORIGIN ["COM"]
properties('MP2/aug-cc-pvtz', properties = ['dipole'])
--------------------------------------------------------------------------

    Molecular point group: c1
  Charge       = 0
  Multiplicity = 1
  Basis Set: AUG-CC-PVTZ
    Blend: AUG-CC-PVTZ
  Basis Set: (AUG-CC-PVTZ AUX)
    Blend: AUG-CC-PVTZ-JKFIT

    Orbital Energies [Eh]
    ---------------------

    Doubly Occupied:

       1A    -92.013913     2A    -20.528649     3A    -15.596230
       4A    -15.593643     5A    -11.368954     6A    -11.324122
       7A    -11.285526     8A    -11.283179     9A    -11.263633
      10A     -9.013687    11A     -6.694366    12A     -6.693862
      13A     -6.693263    14A     -1.383845    15A     -1.300922
      16A     -1.237953    17A     -1.082340    18A     -1.035738
      19A     -0.958918    20A     -0.847362    21A     -0.805818
      22A     -0.777260    23A     -0.719874    24A     -0.655094
      25A     -0.649980    26A     -0.633626    27A     -0.600888
      28A     -0.585828    29A     -0.568258    30A     -0.551900
      31A     -0.532576    32A     -0.514835    33A     -0.466596
      34A     -0.437058    35A     -0.409660    36A     -0.393261
      37A     -0.345971

  @DF-RHF Final Energy:  -774.27570448767005

   => Energetics <=

    Nuclear Repulsion Energy =            505.1419698781543843
    One-Electron Energy =               -2065.1381724166844833
    Two-Electron Energy =                 785.7204980508599874
    Total Energy =                       -774.2757044876700547
  Basis Set: (AUG-CC-PVTZ AUX)
    Blend: AUG-CC-PVTZ-RI
    Molecular point group: c1

    Geometry (in Angstrom), charge = 0, multiplicity = 1:

       Center              X                  Y                   Z               Mass
    ------------   -----------------  -----------------  -----------------  -----------------
         S            1.505893540099    -1.051421117062     0.000000943522    31.972071174400
         O           -1.469401459901    -1.529847117062    -0.000001056478    15.994914619570
         N           -2.058438459901     0.703106882938    -0.000000056478    14.003074004430
         N            0.635733540099     1.383653882938    -0.000001056478    14.003074004430
         C            0.240268540099     0.119116882938    -0.000000056478    12.000000000000
         C           -1.179089459901    -0.326979117062    -0.000001056478    12.000000000000
         C           -3.492280459901     0.494550882938     0.000000943522    12.000000000000
         C            2.646135540099     0.225160882938    -0.000000056478    12.000000000000
         C            1.981154040099     1.443038982938    -0.000000056478    12.000000000000
         H           -1.663936459901     1.637579882938     0.000000943522     1.007825032230
         H           -3.950100459901     0.933021882938    -0.891194056478     1.007825032230
         H           -3.950098459901     0.933013882938     0.891200943522     1.007825032230
         H           -3.663050459901    -0.581814117062    -0.000003056478     1.007825032230
         H            3.711302540099     0.032999882938     0.000000943522     1.007825032230
         H            2.495219540099     2.409380882938    -0.000000056478     1.007825032230

  Basis Set: AUG-CC-PVTZ
    Blend: AUG-CC-PVTZ
  Basis Set: (AUG-CC-PVTZ AUX)
    Blend: AUG-CC-PVTZ-JKFIT
	 Reference Energy          =    -774.2757044876700547 [Eh]
	 Singles Energy            =      -0.0000000000000000 [Eh]
	 Same-Spin Energy          =      -0.4593035902250115 [Eh]
	 Opposite-Spin Energy      =      -1.3692608290409223 [Eh]
	 Correlation Energy        =      -1.8285644192659338 [Eh]
	 Total Energy              =    -776.1042689069359994 [Eh]

	 ================> DF-SCS-MP2 Energies <==================
	-----------------------------------------------------------
	 SCS Same-Spin Scale       =       0.3333333333333333 [-]
	 SCS Opposite-Spin Scale   =       1.2000000000000000 [-]
	 SCS Same-Spin Energy      =      -0.1531011967416705 [Eh]
	 SCS Opposite-Spin Energy  =      -1.6431129948491068 [Eh]
	 SCS Correlation Energy    =      -1.7962141915907772 [Eh]
	 SCS Total Energy          =    -776.0719186792608753 [Eh]
	-----------------------------------------------------------

  Dipole Moment: [D]
     X:     1.1347      Y:     2.4458      Z:     0.0000     Total:     2.6962

*** Psi4 exiting successfully. Buy a developer a beer!
