                               Psi4 1.3.2 release

  ==> Input File <==

--------------------------------------------------------------------------
#psi4
#
memory 32 gb

molecule  {
0 1
  S        1.5510760    -1.0871590     0.0000010
  O       -1.4242190    -1.5655850    -0.0000010
  N       -2.1161121     0.5698091    -0.0000002
  N        0.6809160     1.3479160    -0.0000010
  C        0.2854510     0.0833790     0.0000000
  C       -1.1339070    -0.3627170    -0.0000010
  C       -3.4470980     0.4588130     0.0000010
  C        2.6913180     0.1894230     0.0000000
  C        2.0463170     1.4081830     0.0000000
  H       -1.6187540     1.6018420     0.0000010
  H       -3.9049180     0.8972840    -0.8911940
  H       -3.9049160     0.8972760     0.8912010
  H       -3.6178680    -0.6175520    -0.0000030
  H        3.7564850    -0.0027380     0.0000010
  H        2.5404020     2.3736430     0.0000000
units angstrom
no_reorient  #important for SAPT in psi4, default
symmetry c1  #important for SAPT in psi4, default
}

set PROPERTIES_ORIGIN ["COM"]
properties('MP2/aug-cc-pvtz', properties = ['dipole'])
--------------------------------------------------------------------------

    Molecular point group: c1
  Charge       = 0
  Multiplicity = 1
  Basis Set: AUG-CC-PVTZ
    Blend: AUG-CC-PVTZ
  Basis Set: (AUG-CC-PVTZ AUX)
    Blend: AUG-CC-PVTZ-JKFIT

    Orbital Energies [Eh]
    ---------------------

    Doubly Occupied:

       1A    -92.017495     2A    -20.523499     3A    -15.601919
       4A    -15.597181     5A    -11.369610     6A    -11.331079
       7A    -11.288476     8A    -11.286611     9A    -11.253192
      10A     -9.017223    11A     -6.697907    12A     -6.697397
      13A     -6.696751    14A     -1.386048    15A     -1.299397
      16A     -1.247705    17A     -1.085480    18A     -1.042812
      19A     -0.968686    20A     -0.844259    21A     -0.808192
      22A     -0.754244    23A     -0.722957    24A     -0.669324
      25A     -0.656055    26A     -0.645350    27A     -0.600172
      28A     -0.588360    29A     -0.579790    30A     -0.529444
      31A     -0.525139    32A     -0.517720    33A     -0.468484
      34A     -0.435821    35A     -0.408505    36A     -0.383318
      37A     -0.352188

  @DF-RHF Final Energy:  -774.24593488801656

   => Energetics <=

    Nuclear Repulsion Energy =            505.1866453553184328
    One-Electron Energy =               -2065.0695846554399395
    Two-Electron Energy =                 785.6370044121049432
    Total Energy =                       -774.2459348880165635
  Basis Set: (AUG-CC-PVTZ AUX)
    Blend: AUG-CC-PVTZ-RI
    Molecular point group: c1

    Geometry (in Angstrom), charge = 0, multiplicity = 1:

       Center              X                  Y                   Z               Mass
    ------------   -----------------  -----------------  -----------------  -----------------
         S            1.514346820412    -1.041876300150     0.000000963242    31.972071174400
         O           -1.460948179588    -1.520302300150    -0.000001036758    15.994914619570
         N           -2.152841279588     0.615091799850    -0.000000236758    14.003074004430
         N            0.644186820412     1.393198699850    -0.000001036758    14.003074004430
         C            0.248721820412     0.128661699850    -0.000000036758    12.000000000000
         C           -1.170636179588    -0.317434300150    -0.000001036758    12.000000000000
         C           -3.483827179588     0.504095699850     0.000000963242    12.000000000000
         C            2.654588820412     0.234705699850    -0.000000036758    12.000000000000
         C            2.009587820412     1.453465699850    -0.000000036758    12.000000000000
         H           -1.655483179588     1.647124699850     0.000000963242     1.007825032230
         H           -3.941647179588     0.942566699850    -0.891194036758     1.007825032230
         H           -3.941645179588     0.942558699850     0.891200963242     1.007825032230
         H           -3.654597179588    -0.572269300150    -0.000003036758     1.007825032230
         H            3.719755820412     0.042544699850     0.000000963242     1.007825032230
         H            2.503672820412     2.418925699850    -0.000000036758     1.007825032230

  Basis Set: AUG-CC-PVTZ
    Blend: AUG-CC-PVTZ
  Basis Set: (AUG-CC-PVTZ AUX)
    Blend: AUG-CC-PVTZ-JKFIT
	 Reference Energy          =    -774.2459348880165635 [Eh]
	 Singles Energy            =      -0.0000000000000000 [Eh]
	 Same-Spin Energy          =      -0.4607864348897616 [Eh]
	 Opposite-Spin Energy      =      -1.3721000219063557 [Eh]
	 Correlation Energy        =      -1.8328864567961172 [Eh]
	 Total Energy              =    -776.0788213448126953 [Eh]

	 ================> DF-SCS-MP2 Energies <==================
	-----------------------------------------------------------
	 SCS Same-Spin Scale       =       0.3333333333333333 [-]
	 SCS Opposite-Spin Scale   =       1.2000000000000000 [-]
	 SCS Same-Spin Energy      =      -0.1535954782965872 [Eh]
	 SCS Opposite-Spin Energy  =      -1.6465200262876267 [Eh]
	 SCS Correlation Energy    =      -1.8001155045842139 [Eh]
	 SCS Total Energy          =    -776.0460503926008187 [Eh]
	-----------------------------------------------------------

  Dipole Moment: [D]
     X:     1.5611      Y:     2.5293      Z:     0.0000     Total:     2.9723

*** Psi4 exiting successfully. Buy a developer a beer!
