                               Psi4 1.3.2 release

  ==> Input File <==

--------------------------------------------------------------------------
#psi4
#
memory 32 gb

molecule  {
0 1
  S        1.5510760    -1.0871590     0.0000010
  O       -1.4242190    -1.5655850    -0.0000010
  N       -2.0132560     0.6673690     0.0000000
  N        0.6809160     1.3479160    -0.0000010
  C        0.2634420     0.0904734    -0.0000000
  C       -1.1339070    -0.3627170    -0.0000010
  C       -3.4470980     0.4588130     0.0000010
  C        2.6913180     0.1894230     0.0000000
  C        2.0463170     1.4081830     0.0000000
  H       -1.6187540     1.6018420     0.0000010
  H       -3.9049180     0.8972840    -0.8911940
  H       -3.9049160     0.8972760     0.8912010
  H       -3.6178680    -0.6175520    -0.0000030
  H        3.7564850    -0.0027380     0.0000010
  H        2.5404020     2.3736430     0.0000000
units angstrom
no_reorient  #important for SAPT in psi4, default
symmetry c1  #important for SAPT in psi4, default
}

set PROPERTIES_ORIGIN ["COM"]
properties('MP2/aug-cc-pvtz', properties = ['dipole'])
--------------------------------------------------------------------------

    Molecular point group: c1
  Charge       = 0
  Multiplicity = 1
  Basis Set: AUG-CC-PVTZ
    Blend: AUG-CC-PVTZ
  Basis Set: (AUG-CC-PVTZ AUX)
    Blend: AUG-CC-PVTZ-JKFIT

    Orbital Energies [Eh]
    ---------------------

    Doubly Occupied:

       1A    -92.012046     2A    -20.529548     3A    -15.598614
       4A    -15.593853     5A    -11.368682     6A    -11.325277
       7A    -11.285568     8A    -11.283982     9A    -11.263749
      10A     -9.011563    11A     -6.692253    12A     -6.691721
      13A     -6.691128    14A     -1.385007    15A     -1.295151
      16A     -1.238424    17A     -1.079301    18A     -1.037665
      19A     -0.960063    20A     -0.852003    21A     -0.805161
      22A     -0.778000    23A     -0.718077    24A     -0.656900
      25A     -0.651034    26A     -0.634261    27A     -0.601468
      28A     -0.583954    29A     -0.567087    30A     -0.552202
      31A     -0.531978    32A     -0.517016    33A     -0.464415
      34A     -0.437059    35A     -0.408828    36A     -0.392558
      37A     -0.347742

  @DF-RHF Final Energy:  -774.27536495383924

   => Energetics <=

    Nuclear Repulsion Energy =            504.7009269649222460
    One-Electron Energy =               -2064.2659079647232829
    Two-Electron Energy =                 785.2896160459617931
    Total Energy =                       -774.2753649538392438
  Basis Set: (AUG-CC-PVTZ AUX)
    Blend: AUG-CC-PVTZ-RI
    Molecular point group: c1

    Geometry (in Angstrom), charge = 0, multiplicity = 1:

       Center              X                  Y                   Z               Mass
    ------------   -----------------  -----------------  -----------------  -----------------
         S            1.506064938392    -1.052095075261     0.000000943522    31.972071174400
         O           -1.469230061608    -1.530521075261    -0.000001056478    15.994914619570
         N           -2.058267061608     0.702432924739    -0.000000056478    14.003074004430
         N            0.635904938392     1.382979924739    -0.000001056478    14.003074004430
         C            0.218430938392     0.125537324739    -0.000000056478    12.000000000000
         C           -1.178918061608    -0.327653075261    -0.000001056478    12.000000000000
         C           -3.492109061608     0.493876924739     0.000000943522    12.000000000000
         C            2.646306938392     0.224486924739    -0.000000056478    12.000000000000
         C            2.001305938392     1.443246924739    -0.000000056478    12.000000000000
         H           -1.663765061608     1.636905924739     0.000000943522     1.007825032230
         H           -3.949929061608     0.932347924739    -0.891194056478     1.007825032230
         H           -3.949927061608     0.932339924739     0.891200943522     1.007825032230
         H           -3.662879061608    -0.582488075261    -0.000003056478     1.007825032230
         H            3.711473938392     0.032325924739     0.000000943522     1.007825032230
         H            2.495390938392     2.408706924739    -0.000000056478     1.007825032230

  Basis Set: AUG-CC-PVTZ
    Blend: AUG-CC-PVTZ
  Basis Set: (AUG-CC-PVTZ AUX)
    Blend: AUG-CC-PVTZ-JKFIT
	 Reference Energy          =    -774.2753649538392438 [Eh]
	 Singles Energy            =      -0.0000000000000000 [Eh]
	 Same-Spin Energy          =      -0.4590840729240091 [Eh]
	 Opposite-Spin Energy      =      -1.3695401346389913 [Eh]
	 Correlation Energy        =      -1.8286242075630004 [Eh]
	 Total Energy              =    -776.1039891614022963 [Eh]

	 ================> DF-SCS-MP2 Energies <==================
	-----------------------------------------------------------
	 SCS Same-Spin Scale       =       0.3333333333333333 [-]
	 SCS Opposite-Spin Scale   =       1.2000000000000000 [-]
	 SCS Same-Spin Energy      =      -0.1530280243080030 [Eh]
	 SCS Opposite-Spin Energy  =      -1.6434481615667895 [Eh]
	 SCS Correlation Energy    =      -1.7964761858747926 [Eh]
	 SCS Total Energy          =    -776.0718411397140244 [Eh]
	-----------------------------------------------------------

  Dipole Moment: [D]
     X:     1.1114      Y:     2.4974      Z:     0.0000     Total:     2.7335

*** Psi4 exiting successfully. Buy a developer a beer!
