                               Psi4 1.4a3.dev225

  ==> Input File <==

--------------------------------------------------------------------------
#psi4
#
memory 32 gb

molecule  {
0 1
  S        1.5510760    -1.0871590     0.0000010
  O       -1.4242190    -1.5655850    -0.0000010
  N       -2.0132560     0.6673690     0.0000000
  N        0.6809160     1.3479160    -0.0000010
  C        0.3003750     0.1310998    -0.0000000
  C       -1.1339070    -0.3627170    -0.0000010
  C       -3.4470980     0.4588130     0.0000010
  C        2.6913180     0.1894230     0.0000000
  C        2.0463170     1.4081830     0.0000000
  H       -1.6187540     1.6018420     0.0000010
  H       -3.9049180     0.8972840    -0.8911940
  H       -3.9049160     0.8972760     0.8912010
  H       -3.6178680    -0.6175520    -0.0000030
  H        3.7564850    -0.0027380     0.0000010
  H        2.5404020     2.3736430     0.0000000
units angstrom
no_reorient  #important for SAPT in psi4, default
symmetry c1  #important for SAPT in psi4, default
}

set PROPERTIES_ORIGIN ["COM"]
properties('MP2/aug-cc-pvtz', properties = ['dipole'])
--------------------------------------------------------------------------

    Molecular point group: c1
  Charge       = 0
  Multiplicity = 1
  Basis Set: AUG-CC-PVTZ
    Blend: AUG-CC-PVTZ
  Basis Set: (AUG-CC-PVTZ AUX)
    Blend: AUG-CC-PVTZ-JKFIT

    Orbital Energies [Eh]
    ---------------------

    Doubly Occupied:

       1A    -92.007652     2A    -20.531495     3A    -15.594678
       4A    -15.594067     5A    -11.371577     6A    -11.323578
       7A    -11.284185     8A    -11.282229     9A    -11.264166
      10A     -9.007646    11A     -6.688364    12A     -6.687767
      13A     -6.687121    14A     -1.384435    15A     -1.311264
      16A     -1.239061    17A     -1.083294    18A     -1.031429
      19A     -0.960200    20A     -0.842338    21A     -0.810652
      22A     -0.776989    23A     -0.719452    24A     -0.655956
      25A     -0.650363    26A     -0.634203    27A     -0.602641
      28A     -0.588291    29A     -0.563769    30A     -0.552759
      31A     -0.533879    32A     -0.516225    33A     -0.471496
      34A     -0.431577    35A     -0.412378    36A     -0.394305
      37A     -0.347863

  @DF-RHF Final Energy:  -774.27692733075025

   => Energetics <=

    Nuclear Repulsion Energy =            504.8840750799867010
    One-Electron Energy =               -2064.6433219171822202
    Two-Electron Energy =                 785.4823195064451511
    Total Energy =                       -774.2769273307502544
  Basis Set: (AUG-CC-PVTZ AUX)
    Blend: AUG-CC-PVTZ-RI
    Molecular point group: c1

    Geometry (in Angstrom), charge = 0, multiplicity = 1:

       Center              X                  Y                   Z               Mass
    ------------   -----------------  -----------------  -----------------  -----------------
         S            1.502944281176    -1.055527806648     0.000000943522    31.972071174400
         O           -1.472350718824    -1.533953806648    -0.000001056478    15.994914619570
         N           -2.061387718824     0.699000193352    -0.000000056478    14.003074004430
         N            0.632784281176     1.379547193352    -0.000001056478    14.003074004430
         C            0.252243281176     0.162730993352    -0.000000056478    12.000000000000
         C           -1.182038718824    -0.331085806648    -0.000001056478    12.000000000000
         C           -3.495229718824     0.490444193352     0.000000943522    12.000000000000
         C            2.643186281176     0.221054193352    -0.000000056478    12.000000000000
         C            1.998185281176     1.439814193352    -0.000000056478    12.000000000000
         H           -1.666885718824     1.633473193352     0.000000943522     1.007825032230
         H           -3.953049718824     0.928915193352    -0.891194056478     1.007825032230
         H           -3.953047718824     0.928907193352     0.891200943522     1.007825032230
         H           -3.665999718824    -0.585920806648    -0.000003056478     1.007825032230
         H            3.708353281176     0.028893193352     0.000000943522     1.007825032230
         H            2.492270281176     2.405274193352    -0.000000056478     1.007825032230

  Basis Set: AUG-CC-PVTZ
    Blend: AUG-CC-PVTZ
  Basis Set: (AUG-CC-PVTZ AUX)
    Blend: AUG-CC-PVTZ-JKFIT
	 Reference Energy          =    -774.2769273307502544 [Eh]
	 Singles Energy            =      -0.0000000000000000 [Eh]
	 Same-Spin Energy          =      -0.4575165452408470 [Eh]
	 Opposite-Spin Energy      =      -1.3673080026334241 [Eh]
	 Correlation Energy        =      -1.8248245478742711 [Eh]
	 Total Energy              =    -776.1017518786245546 [Eh]

	 ================> DF-SCS-MP2 Energies <==================
	-----------------------------------------------------------
	 SCS Same-Spin Scale       =       0.3333333333333333 [-]
	 SCS Opposite-Spin Scale   =       1.2000000000000000 [-]
	 SCS Same-Spin Energy      =      -0.1525055150802823 [Eh]
	 SCS Opposite-Spin Energy  =      -1.6407696031601089 [Eh]
	 SCS Correlation Energy    =      -1.7932751182403912 [Eh]
	 SCS Total Energy          =    -776.0702024489906989 [Eh]
	-----------------------------------------------------------

  Dipole Moment: [D]
     X:     0.9468      Y:     2.5273      Z:     0.0000     Total:     2.6988

*** Psi4 exiting successfully. Buy a developer a beer!
