                               Psi4 1.3.2 release

  ==> Input File <==

--------------------------------------------------------------------------
#psi4
#
memory 32 gb

molecule  {
0 1
  S        1.5510760    -1.0871590     0.0000010
  O       -1.4242190    -1.5655850    -0.0000010
  N       -2.0132560     0.6673690     0.0000000
  N        0.6809160     1.3479160    -0.0000010
  C        0.4147388     0.2092605    -0.0000001
  C       -1.1339070    -0.3627170    -0.0000010
  C       -3.4470980     0.4588130     0.0000010
  C        2.6913180     0.1894230     0.0000000
  C        2.0463170     1.4081830     0.0000000
  H       -1.6187540     1.6018420     0.0000010
  H       -3.9049180     0.8972840    -0.8911940
  H       -3.9049160     0.8972760     0.8912010
  H       -3.6178680    -0.6175520    -0.0000030
  H        3.7564850    -0.0027380     0.0000010
  H        2.5404020     2.3736430     0.0000000
units angstrom
no_reorient  #important for SAPT in psi4, default
symmetry c1  #important for SAPT in psi4, default
}

set PROPERTIES_ORIGIN ["COM"]
properties('MP2/aug-cc-pvtz', properties = ['dipole'])
--------------------------------------------------------------------------

    Molecular point group: c1
  Charge       = 0
  Multiplicity = 1
  Basis Set: AUG-CC-PVTZ
    Blend: AUG-CC-PVTZ
  Basis Set: (AUG-CC-PVTZ AUX)
    Blend: AUG-CC-PVTZ-JKFIT

    Orbital Energies [Eh]
    ---------------------

    Doubly Occupied:

       1A    -92.001738     2A    -20.531853     3A    -15.593850
       4A    -15.582794     5A    -11.371096     6A    -11.317481
       7A    -11.283932     8A    -11.279612     9A    -11.263449
      10A     -9.003011    11A     -6.683773    12A     -6.683052
      13A     -6.682239    14A     -1.382009    15A     -1.355737
      16A     -1.236832    17A     -1.097792    18A     -1.018646
      19A     -0.958336    20A     -0.826384    21A     -0.813709
      22A     -0.769891    23A     -0.726389    24A     -0.652849
      25A     -0.647030    26A     -0.633704    27A     -0.605067
      28A     -0.602546    29A     -0.556274    30A     -0.551690
      31A     -0.535149    32A     -0.516417    33A     -0.489501
      34A     -0.422631    35A     -0.410411    36A     -0.395676
      37A     -0.348604

  @DF-RHF Final Energy:  -774.24100641234281

   => Energetics <=

    Nuclear Repulsion Energy =            505.7437793293968298
    One-Electron Energy =               -2066.3072636341380530
    Two-Electron Energy =                 786.3224778923984104
    Total Energy =                       -774.2410064123428128
  Basis Set: (AUG-CC-PVTZ AUX)
    Blend: AUG-CC-PVTZ-RI
    Molecular point group: c1

    Geometry (in Angstrom), charge = 0, multiplicity = 1:

       Center              X                  Y                   Z               Mass
    ------------   -----------------  -----------------  -----------------  -----------------
         S            1.493281101424    -1.062132002151     0.000000951971    31.972071174400
         O           -1.482013898576    -1.540558002151    -0.000001048029    15.994914619570
         N           -2.071050898576     0.692395997849    -0.000000048029    14.003074004430
         N            0.623121101424     1.372942997849    -0.000001048029    14.003074004430
         C            0.356943901424     0.234287497849    -0.000000148029    12.000000000000
         C           -1.191701898576    -0.337690002151    -0.000001048029    12.000000000000
         C           -3.504892898576     0.483839997849     0.000000951971    12.000000000000
         C            2.633523101424     0.214449997849    -0.000000048029    12.000000000000
         C            1.988522101424     1.433209997849    -0.000000048029    12.000000000000
         H           -1.676548898576     1.626868997849     0.000000951971     1.007825032230
         H           -3.962712898576     0.922310997849    -0.891194048029     1.007825032230
         H           -3.962710898576     0.922302997849     0.891200951971     1.007825032230
         H           -3.675662898576    -0.592525002151    -0.000003048029     1.007825032230
         H            3.698690101424     0.022288997849     0.000000951971     1.007825032230
         H            2.482607101424     2.398669997849    -0.000000048029     1.007825032230

  Basis Set: AUG-CC-PVTZ
    Blend: AUG-CC-PVTZ
  Basis Set: (AUG-CC-PVTZ AUX)
    Blend: AUG-CC-PVTZ-JKFIT
	 Reference Energy          =    -774.2410064123428128 [Eh]
	 Singles Energy            =      -0.0000000000000000 [Eh]
	 Same-Spin Energy          =      -0.4551244143794311 [Eh]
	 Opposite-Spin Energy      =      -1.3645961168212488 [Eh]
	 Correlation Energy        =      -1.8197205312006799 [Eh]
	 Total Energy              =    -776.0607269435435001 [Eh]

	 ================> DF-SCS-MP2 Energies <==================
	-----------------------------------------------------------
	 SCS Same-Spin Scale       =       0.3333333333333333 [-]
	 SCS Opposite-Spin Scale   =       1.2000000000000000 [-]
	 SCS Same-Spin Energy      =      -0.1517081381264770 [Eh]
	 SCS Opposite-Spin Energy  =      -1.6375153401854985 [Eh]
	 SCS Correlation Energy    =      -1.7892234783119756 [Eh]
	 SCS Total Energy          =    -776.0302298906548231 [Eh]
	-----------------------------------------------------------

  Dipole Moment: [D]
     X:     0.7414      Y:     2.5722      Z:     0.0000     Total:     2.6770

*** Psi4 exiting successfully. Buy a developer a beer!
