                               Psi4 1.3.2 release

  ==> Input File <==

--------------------------------------------------------------------------
#psi4
#
memory 32 gb

molecule  {
0 1
  S        1.5510760    -1.0871590     0.0000010
  O       -1.4242190    -1.5655850    -0.0000010
  N       -2.0132560     0.6673690     0.0000000
  N        0.6809160     1.3479160    -0.0000010
  C        0.2854510     0.0833790     0.0000000
  C       -1.1339070    -0.3627170    -0.0000010
  C       -3.4470980     0.4588130     0.0000010
  C        2.6913180     0.1894230     0.0000000
  C        2.0676855     1.4192542     0.0000000
  H       -1.6187540     1.6018420     0.0000010
  H       -3.9049180     0.8972840    -0.8911940
  H       -3.9049160     0.8972760     0.8912010
  H       -3.6178680    -0.6175520    -0.0000030
  H        3.7564850    -0.0027380     0.0000010
  H        2.5404020     2.3736430     0.0000000
units angstrom
no_reorient  #important for SAPT in psi4, default
symmetry c1  #important for SAPT in psi4, default
}

set PROPERTIES_ORIGIN ["COM"]
properties('MP2/aug-cc-pvtz', properties = ['dipole'])
--------------------------------------------------------------------------

    Molecular point group: c1
  Charge       = 0
  Multiplicity = 1
  Basis Set: AUG-CC-PVTZ
    Blend: AUG-CC-PVTZ
  Basis Set: (AUG-CC-PVTZ AUX)
    Blend: AUG-CC-PVTZ-JKFIT

    Orbital Energies [Eh]
    ---------------------

    Doubly Occupied:

       1A    -92.012254     2A    -20.529550     3A    -15.597945
       4A    -15.593772     5A    -11.369556     6A    -11.324619
       7A    -11.285442     8A    -11.283455     9A    -11.263730
      10A     -9.012218    11A     -6.692947    12A     -6.692388
      13A     -6.691747    14A     -1.384365    15A     -1.290487
      16A     -1.237648    17A     -1.079481    18A     -1.035690
      19A     -0.960428    20A     -0.848409    21A     -0.805450
      22A     -0.777740    23A     -0.716625    24A     -0.657803
      25A     -0.650459    26A     -0.633420    27A     -0.599307
      28A     -0.582612    29A     -0.566727    30A     -0.552104
      31A     -0.531312    32A     -0.521669    33A     -0.465515
      34A     -0.435904    35A     -0.407690    36A     -0.391639
      37A     -0.349845

  @DF-RHF Final Energy:  -774.27580293453764

   => Energetics <=

    Nuclear Repulsion Energy =            504.3046248865334178
    One-Electron Energy =               -2063.4969522658930146
    Two-Electron Energy =                 784.9165244448219028
    Total Energy =                       -774.2758029345376372
  Basis Set: (AUG-CC-PVTZ AUX)
    Blend: AUG-CC-PVTZ-RI
    Molecular point group: c1

    Geometry (in Angstrom), charge = 0, multiplicity = 1:

       Center              X                  Y                   Z               Mass
    ------------   -----------------  -----------------  -----------------  -----------------
         S            1.502399752558    -1.052431095341     0.000000943522    31.972071174400
         O           -1.472895247442    -1.530857095341    -0.000001056478    15.994914619570
         N           -2.061932247442     0.702096904659    -0.000000056478    14.003074004430
         N            0.632239752558     1.382643904659    -0.000001056478    14.003074004430
         C            0.236774752558     0.118106904659    -0.000000056478    12.000000000000
         C           -1.182583247442    -0.327989095341    -0.000001056478    12.000000000000
         C           -3.495774247442     0.493540904659     0.000000943522    12.000000000000
         C            2.642641752558     0.224150904659    -0.000000056478    12.000000000000
         C            2.019009252558     1.453982104659    -0.000000056478    12.000000000000
         H           -1.667430247442     1.636569904659     0.000000943522     1.007825032230
         H           -3.953594247442     0.932011904659    -0.891194056478     1.007825032230
         H           -3.953592247442     0.932003904659     0.891200943522     1.007825032230
         H           -3.666544247442    -0.582824095341    -0.000003056478     1.007825032230
         H            3.707808752558     0.031989904659     0.000000943522     1.007825032230
         H            2.491725752558     2.408370904659    -0.000000056478     1.007825032230

  Basis Set: AUG-CC-PVTZ
    Blend: AUG-CC-PVTZ
  Basis Set: (AUG-CC-PVTZ AUX)
    Blend: AUG-CC-PVTZ-JKFIT
	 Reference Energy          =    -774.2758029345376372 [Eh]
	 Singles Energy            =      -0.0000000000000000 [Eh]
	 Same-Spin Energy          =      -0.4585257471686225 [Eh]
	 Opposite-Spin Energy      =      -1.3691790171690845 [Eh]
	 Correlation Energy        =      -1.8277047643377071 [Eh]
	 Total Energy              =    -776.1035076988753190 [Eh]

	 ================> DF-SCS-MP2 Energies <==================
	-----------------------------------------------------------
	 SCS Same-Spin Scale       =       0.3333333333333333 [-]
	 SCS Opposite-Spin Scale   =       1.2000000000000000 [-]
	 SCS Same-Spin Energy      =      -0.1528419157228741 [Eh]
	 SCS Opposite-Spin Energy  =      -1.6430148206029014 [Eh]
	 SCS Correlation Energy    =      -1.7958567363257756 [Eh]
	 SCS Total Energy          =    -776.0716596708633688 [Eh]
	-----------------------------------------------------------

  Dipole Moment: [D]
     X:     1.1142      Y:     2.4634      Z:     0.0000     Total:     2.7037

*** Psi4 exiting successfully. Buy a developer a beer!
