                               Psi4 1.3.2 release

  ==> Input File <==

--------------------------------------------------------------------------
#psi4
#
memory 32 gb

molecule  {
0 1
  S        1.5510760    -1.0871590     0.0000010
  O       -1.4242190    -1.5655850    -0.0000010
  N       -2.0132560     0.6673690     0.0000000
  N        0.6809160     1.3479160    -0.0000010
  C        0.2652151     0.0611125     0.0000000
  C       -1.1339070    -0.3627170    -0.0000010
  C       -3.4470980     0.4588130     0.0000010
  C        2.6913180     0.1894230     0.0000000
  C        2.0463170     1.4081830     0.0000000
  H       -1.6187540     1.6018420     0.0000010
  H       -3.9049180     0.8972840    -0.8911940
  H       -3.9049160     0.8972760     0.8912010
  H       -3.6178680    -0.6175520    -0.0000030
  H        3.7564850    -0.0027380     0.0000010
  H        2.5404020     2.3736430     0.0000000
units angstrom
no_reorient  #important for SAPT in psi4, default
symmetry c1  #important for SAPT in psi4, default
}

set PROPERTIES_ORIGIN ["COM"]
properties('MP2/aug-cc-pvtz', properties = ['dipole'])
--------------------------------------------------------------------------

    Molecular point group: c1
  Charge       = 0
  Multiplicity = 1
  Basis Set: AUG-CC-PVTZ
    Blend: AUG-CC-PVTZ
  Basis Set: (AUG-CC-PVTZ AUX)
    Blend: AUG-CC-PVTZ-JKFIT

    Orbital Energies [Eh]
    ---------------------

    Doubly Occupied:

       1A    -92.015250     2A    -20.528033     3A    -15.599334
       4A    -15.593294     5A    -11.367473     6A    -11.325203
       7A    -11.285995     8A    -11.283795     9A    -11.263471
      10A     -9.014869    11A     -6.695555    12A     -6.695066
      13A     -6.694468    14A     -1.384540    15A     -1.288331
      16A     -1.237474    17A     -1.079247    18A     -1.039178
      19A     -0.959723    20A     -0.853416    21A     -0.802006
      22A     -0.777964    23A     -0.718014    24A     -0.656211
      25A     -0.650777    26A     -0.633670    27A     -0.598865
      28A     -0.582590    29A     -0.569730    30A     -0.551734
      31A     -0.531134    32A     -0.518233    33A     -0.462349
      34A     -0.439113    35A     -0.407026    36A     -0.391630
      37A     -0.348067

  @DF-RHF Final Energy:  -774.27308767513091

   => Energetics <=

    Nuclear Repulsion Energy =            504.7454105142856520
    One-Electron Energy =               -2064.3513417750655208
    Two-Electron Energy =                 785.3328435856490159
    Total Energy =                       -774.2730876751309097
  Basis Set: (AUG-CC-PVTZ AUX)
    Blend: AUG-CC-PVTZ-RI
    Molecular point group: c1

    Geometry (in Angstrom), charge = 0, multiplicity = 1:

       Center              X                  Y                   Z               Mass
    ------------   -----------------  -----------------  -----------------  -----------------
         S            1.505915120145    -1.049614223327     0.000000943522    31.972071174400
         O           -1.469379879855    -1.528040223327    -0.000001056478    15.994914619570
         N           -2.058416879855     0.704913776673    -0.000000056478    14.003074004430
         N            0.635755120145     1.385460776673    -0.000001056478    14.003074004430
         C            0.220054220145     0.098657276673    -0.000000056478    12.000000000000
         C           -1.179067879855    -0.325172223327    -0.000001056478    12.000000000000
         C           -3.492258879855     0.496357776673     0.000000943522    12.000000000000
         C            2.646157120145     0.226967776673    -0.000000056478    12.000000000000
         C            2.001156120145     1.445727776673    -0.000000056478    12.000000000000
         H           -1.663914879855     1.639386776673     0.000000943522     1.007825032230
         H           -3.950078879855     0.934828776673    -0.891194056478     1.007825032230
         H           -3.950076879855     0.934820776673     0.891200943522     1.007825032230
         H           -3.663028879855    -0.580007223327    -0.000003056478     1.007825032230
         H            3.711324120145     0.034806776673     0.000000943522     1.007825032230
         H            2.495241120145     2.411187776673    -0.000000056478     1.007825032230

  Basis Set: AUG-CC-PVTZ
    Blend: AUG-CC-PVTZ
  Basis Set: (AUG-CC-PVTZ AUX)
    Blend: AUG-CC-PVTZ-JKFIT
	 Reference Energy          =    -774.2730876751309097 [Eh]
	 Singles Energy            =      -0.0000000000000000 [Eh]
	 Same-Spin Energy          =      -0.4597557098201023 [Eh]
	 Opposite-Spin Energy      =      -1.3704483336916899 [Eh]
	 Correlation Energy        =      -1.8302040435117921 [Eh]
	 Total Energy              =    -776.1032917186427085 [Eh]

	 ================> DF-SCS-MP2 Energies <==================
	-----------------------------------------------------------
	 SCS Same-Spin Scale       =       0.3333333333333333 [-]
	 SCS Opposite-Spin Scale   =       1.2000000000000000 [-]
	 SCS Same-Spin Energy      =      -0.1532519032733674 [Eh]
	 SCS Opposite-Spin Energy  =      -1.6445380004300278 [Eh]
	 SCS Correlation Energy    =      -1.7977899037033953 [Eh]
	 SCS Total Energy          =    -776.0708775788342564 [Eh]
	-----------------------------------------------------------

  Dipole Moment: [D]
     X:     1.2096      Y:     2.4431      Z:     0.0000     Total:     2.7262

*** Psi4 exiting successfully. Buy a developer a beer!
