                               Psi4 1.4a3.dev225

  ==> Input File <==

--------------------------------------------------------------------------
#psi4
#
memory 32 gb

molecule  {
0 1
  S        1.5510760    -1.0871590     0.0000010
  O       -1.4242190    -1.5655850    -0.0000010
  N       -2.0132560     0.6673690     0.0000000
  N        0.6809160     1.3479160    -0.0000010
  C        0.2707681     0.0969588    -0.0000000
  C       -1.1339070    -0.3627170    -0.0000010
  C       -3.4470980     0.4588130     0.0000010
  C        2.6913180     0.1894230     0.0000000
  C        2.0463170     1.4081830     0.0000000
  H       -1.6187540     1.6018420     0.0000010
  H       -3.9049180     0.8972840    -0.8911940
  H       -3.9049160     0.8972760     0.8912010
  H       -3.6178680    -0.6175520    -0.0000030
  H        3.7564850    -0.0027380     0.0000010
  H        2.5404020     2.3736430     0.0000000
units angstrom
no_reorient  #important for SAPT in psi4, default
symmetry c1  #important for SAPT in psi4, default
}

set PROPERTIES_ORIGIN ["COM"]
properties('MP2/aug-cc-pvtz', properties = ['dipole'])
--------------------------------------------------------------------------

    Molecular point group: c1
  Charge       = 0
  Multiplicity = 1
  Basis Set: AUG-CC-PVTZ
    Blend: AUG-CC-PVTZ
  Basis Set: (AUG-CC-PVTZ AUX)
    Blend: AUG-CC-PVTZ-JKFIT

    Orbital Energies [Eh]
    ---------------------

    Doubly Occupied:

       1A    -92.011329     2A    -20.529894     3A    -15.597782
       4A    -15.594018     5A    -11.369291     6A    -11.325004
       7A    -11.285267     8A    -11.283587     9A    -11.263837
      10A     -9.010948    11A     -6.691644    12A     -6.691101
      13A     -6.690497    14A     -1.384873    15A     -1.297733
      16A     -1.238543    17A     -1.080014    18A     -1.036508
      19A     -0.960094    20A     -0.850152    21A     -0.806097
      22A     -0.777859    23A     -0.718304    24A     -0.656656
      25A     -0.650892    26A     -0.634214    27A     -0.601579
      28A     -0.584599    29A     -0.566588    30A     -0.552308
      31A     -0.532325    32A     -0.516939    33A     -0.465723
      34A     -0.436244    35A     -0.409360    36A     -0.392858
      37A     -0.347845

  @DF-RHF Final Energy:  -774.27630869412553

   => Energetics <=

    Nuclear Repulsion Energy =            504.7338529496689716
    One-Electron Energy =               -2064.3353137892099767
    Two-Electron Energy =                 785.3251521454154727
    Total Energy =                       -774.2763086941255324
  Basis Set: (AUG-CC-PVTZ AUX)
    Blend: AUG-CC-PVTZ-RI
    Molecular point group: c1

    Geometry (in Angstrom), charge = 0, multiplicity = 1:

       Center              X                  Y                   Z               Mass
    ------------   -----------------  -----------------  -----------------  -----------------
         S            1.505445918902    -1.052643059728     0.000000943522    31.972071174400
         O           -1.469849081098    -1.531069059728    -0.000001056478    15.994914619570
         N           -2.058886081098     0.701884940272    -0.000000056478    14.003074004430
         N            0.635285918902     1.382431940272    -0.000001056478    14.003074004430
         C            0.225138018902     0.131474740272    -0.000000056478    12.000000000000
         C           -1.179537081098    -0.328201059728    -0.000001056478    12.000000000000
         C           -3.492728081098     0.493328940272     0.000000943522    12.000000000000
         C            2.645687918902     0.223938940272    -0.000000056478    12.000000000000
         C            2.000686918902     1.442698940272    -0.000000056478    12.000000000000
         H           -1.664384081098     1.636357940272     0.000000943522     1.007825032230
         H           -3.950548081098     0.931799940272    -0.891194056478     1.007825032230
         H           -3.950546081098     0.931791940272     0.891200943522     1.007825032230
         H           -3.663498081098    -0.583036059728    -0.000003056478     1.007825032230
         H            3.710854918902     0.031777940272     0.000000943522     1.007825032230
         H            2.494771918902     2.408158940272    -0.000000056478     1.007825032230

  Basis Set: AUG-CC-PVTZ
    Blend: AUG-CC-PVTZ
  Basis Set: (AUG-CC-PVTZ AUX)
    Blend: AUG-CC-PVTZ-JKFIT
	 Reference Energy          =    -774.2763086941255324 [Eh]
	 Singles Energy            =      -0.0000000000000000 [Eh]
	 Same-Spin Energy          =      -0.4587886933849154 [Eh]
	 Opposite-Spin Energy      =      -1.3690962288621356 [Eh]
	 Correlation Energy        =      -1.8278849222470510 [Eh]
	 Total Energy              =    -776.1041936163725268 [Eh]

	 ================> DF-SCS-MP2 Energies <==================
	-----------------------------------------------------------
	 SCS Same-Spin Scale       =       0.3333333333333333 [-]
	 SCS Opposite-Spin Scale   =       1.2000000000000000 [-]
	 SCS Same-Spin Energy      =      -0.1529295644616385 [Eh]
	 SCS Opposite-Spin Energy  =      -1.6429154746345627 [Eh]
	 SCS Correlation Energy    =      -1.7958450390962011 [Eh]
	 SCS Total Energy          =    -776.0721537332217395 [Eh]
	-----------------------------------------------------------

  Dipole Moment: [D]
     X:     1.0839      Y:     2.4988      Z:     0.0000     Total:     2.7238

*** Psi4 exiting successfully. Buy a developer a beer!
