                               Psi4 1.4a3.dev225

  ==> Input File <==

--------------------------------------------------------------------------
#psi4
#
memory 32 gb

molecule  {
0 1
  S        1.5510760    -1.0871590     0.0000010
  O       -1.4242190    -1.5655850    -0.0000010
  N       -2.0132560     0.6673690     0.0000000
  N        0.6809160     1.3479160    -0.0000010
  C        0.2854510     0.0833790     0.0000000
  C       -1.1339070    -0.3627170    -0.0000010
  C       -3.4470980     0.4588130     0.0000010
  C        2.7246259     0.2267135    -0.0000000
  C        2.0463170     1.4081830     0.0000000
  H       -1.6187540     1.6018420     0.0000010
  H       -3.9049180     0.8972840    -0.8911940
  H       -3.9049160     0.8972760     0.8912010
  H       -3.6178680    -0.6175520    -0.0000030
  H        3.7564850    -0.0027380     0.0000010
  H        2.5404020     2.3736430     0.0000000
units angstrom
no_reorient  #important for SAPT in psi4, default
symmetry c1  #important for SAPT in psi4, default
}

set PROPERTIES_ORIGIN ["COM"]
properties('MP2/aug-cc-pvtz', properties = ['dipole'])
--------------------------------------------------------------------------

    Molecular point group: c1
  Charge       = 0
  Multiplicity = 1
  Basis Set: AUG-CC-PVTZ
    Blend: AUG-CC-PVTZ
  Basis Set: (AUG-CC-PVTZ AUX)
    Blend: AUG-CC-PVTZ-JKFIT

    Orbital Energies [Eh]
    ---------------------

    Doubly Occupied:

       1A    -92.010582     2A    -20.530609     3A    -15.596673
       4A    -15.594996     5A    -11.370559     6A    -11.327916
       7A    -11.284903     8A    -11.282191     9A    -11.264471
      10A     -9.009792    11A     -6.690477    12A     -6.689911
      13A     -6.689342    14A     -1.385349    15A     -1.295410
      16A     -1.238859    17A     -1.073113    18A     -1.038829
      19A     -0.962182    20A     -0.849913    21A     -0.807822
      22A     -0.778175    23A     -0.720668    24A     -0.655985
      25A     -0.652478    26A     -0.634303    27A     -0.601802
      28A     -0.583676    29A     -0.571046    30A     -0.552892
      31A     -0.532246    32A     -0.508236    33A     -0.466611
      34A     -0.436899    35A     -0.406357    36A     -0.391004
      37A     -0.353950

  @DF-RHF Final Energy:  -774.27557342223690

   => Energetics <=

    Nuclear Repulsion Energy =            503.9287253757049143
    One-Electron Energy =               -2062.7281441999643903
    Two-Electron Energy =                 784.5238454020225163
    Total Energy =                       -774.2755734222369028
  Basis Set: (AUG-CC-PVTZ AUX)
    Blend: AUG-CC-PVTZ-RI
    Molecular point group: c1

    Geometry (in Angstrom), charge = 0, multiplicity = 1:

       Center              X                  Y                   Z               Mass
    ------------   -----------------  -----------------  -----------------  -----------------
         S            1.501390931862    -1.054646497495     0.000000943522    31.972071174400
         O           -1.473904068138    -1.533072497495    -0.000001056478    15.994914619570
         N           -2.062941068138     0.699881502505    -0.000000056478    14.003074004430
         N            0.631230931862     1.380428502505    -0.000001056478    14.003074004430
         C            0.235765931862     0.115891502505    -0.000000056478    12.000000000000
         C           -1.183592068138    -0.330204497495    -0.000001056478    12.000000000000
         C           -3.496783068138     0.491325502505     0.000000943522    12.000000000000
         C            2.674940831862     0.259226002505    -0.000000056478    12.000000000000
         C            1.996631931862     1.440695502505    -0.000000056478    12.000000000000
         H           -1.668439068138     1.634354502505     0.000000943522     1.007825032230
         H           -3.954603068138     0.929796502505    -0.891194056478     1.007825032230
         H           -3.954601068138     0.929788502505     0.891200943522     1.007825032230
         H           -3.667553068138    -0.585039497495    -0.000003056478     1.007825032230
         H            3.706799931862     0.029774502505     0.000000943522     1.007825032230
         H            2.490716931862     2.406155502505    -0.000000056478     1.007825032230

  Basis Set: AUG-CC-PVTZ
    Blend: AUG-CC-PVTZ
  Basis Set: (AUG-CC-PVTZ AUX)
    Blend: AUG-CC-PVTZ-JKFIT
	 Reference Energy          =    -774.2755734222369028 [Eh]
	 Singles Energy            =      -0.0000000000000000 [Eh]
	 Same-Spin Energy          =      -0.4580203949754921 [Eh]
	 Opposite-Spin Energy      =      -1.3687721535644719 [Eh]
	 Correlation Energy        =      -1.8267925485399641 [Eh]
	 Total Energy              =    -776.1023659707768729 [Eh]

	 ================> DF-SCS-MP2 Energies <==================
	-----------------------------------------------------------
	 SCS Same-Spin Scale       =       0.3333333333333333 [-]
	 SCS Opposite-Spin Scale   =       1.2000000000000000 [-]
	 SCS Same-Spin Energy      =      -0.1526734649918307 [Eh]
	 SCS Opposite-Spin Energy  =      -1.6425265842773662 [Eh]
	 SCS Correlation Energy    =      -1.7952000492691969 [Eh]
	 SCS Total Energy          =    -776.0707734715060724 [Eh]
	-----------------------------------------------------------

  Dipole Moment: [D]
     X:     1.0898      Y:     2.4895      Z:     0.0000     Total:     2.7176

*** Psi4 exiting successfully. Buy a developer a beer!
