                               Psi4 1.4a3.dev225

  ==> Input File <==

--------------------------------------------------------------------------
#psi4
#
memory 32 gb

molecule  {
0 1
  S        1.5510760    -1.0871590     0.0000010
  O       -1.4242190    -1.5655850    -0.0000010
  N       -2.0132560     0.6673690     0.0000000
  N        0.6809160     1.3479160    -0.0000010
  C        0.2854510     0.0833790     0.0000000
  C       -1.1339070    -0.3627170    -0.0000010
  C       -3.4470980     0.4588130     0.0000010
  C        2.6913180     0.1894230     0.0000000
  C        2.0369618     1.4258601     0.0000000
  H       -1.6187540     1.6018420     0.0000010
  H       -3.9049180     0.8972840    -0.8911940
  H       -3.9049160     0.8972760     0.8912010
  H       -3.6178680    -0.6175520    -0.0000030
  H        3.7564850    -0.0027380     0.0000010
  H        2.5404020     2.3736430     0.0000000
units angstrom
no_reorient  #important for SAPT in psi4, default
symmetry c1  #important for SAPT in psi4, default
}

set PROPERTIES_ORIGIN ["COM"]
properties('MP2/aug-cc-pvtz', properties = ['dipole'])
--------------------------------------------------------------------------

    Molecular point group: c1
  Charge       = 0
  Multiplicity = 1
  Basis Set: AUG-CC-PVTZ
    Blend: AUG-CC-PVTZ
  Basis Set: (AUG-CC-PVTZ AUX)
    Blend: AUG-CC-PVTZ-JKFIT

    Orbital Energies [Eh]
    ---------------------

    Doubly Occupied:

       1A    -92.014198     2A    -20.528599     3A    -15.596874
       4A    -15.593360     5A    -11.368913     6A    -11.323719
       7A    -11.286502     8A    -11.285019     9A    -11.263465
      10A     -9.013929    11A     -6.694620    12A     -6.694094
      13A     -6.693503    14A     -1.383705    15A     -1.296674
      16A     -1.237547    17A     -1.080567    18A     -1.035180
      19A     -0.958786    20A     -0.846978    21A     -0.807095
      22A     -0.777308    23A     -0.717457    24A     -0.658436
      25A     -0.649797    26A     -0.633301    27A     -0.601934
      28A     -0.584205    29A     -0.567250    30A     -0.551720
      31A     -0.531648    32A     -0.517463    33A     -0.465477
      34A     -0.436443    35A     -0.409102    36A     -0.392839
      37A     -0.345071

  @DF-RHF Final Energy:  -774.27517528978126

   => Energetics <=

    Nuclear Repulsion Energy =            504.6266101960492279
    One-Electron Energy =               -2064.1180132949020845
    Two-Electron Energy =                 785.2162278090717109
    Total Energy =                       -774.2751752897812594
  Basis Set: (AUG-CC-PVTZ AUX)
    Blend: AUG-CC-PVTZ-RI
    Molecular point group: c1

    Geometry (in Angstrom), charge = 0, multiplicity = 1:

       Center              X                  Y                   Z               Mass
    ------------   -----------------  -----------------  -----------------  -----------------
         S            1.504995754403    -1.052989261466     0.000000943522    31.972071174400
         O           -1.470299245597    -1.531415261466    -0.000001056478    15.994914619570
         N           -2.059336245597     0.701538738534    -0.000000056478    14.003074004430
         N            0.634835754403     1.382085738534    -0.000001056478    14.003074004430
         C            0.239370754403     0.117548738534    -0.000000056478    12.000000000000
         C           -1.179987245597    -0.328547261466    -0.000001056478    12.000000000000
         C           -3.493178245597     0.492982738534     0.000000943522    12.000000000000
         C            2.645237754403     0.223592738534    -0.000000056478    12.000000000000
         C            1.990881554403     1.460029838534    -0.000000056478    12.000000000000
         H           -1.664834245597     1.636011738534     0.000000943522     1.007825032230
         H           -3.950998245597     0.931453738534    -0.891194056478     1.007825032230
         H           -3.950996245597     0.931445738534     0.891200943522     1.007825032230
         H           -3.663948245597    -0.583382261466    -0.000003056478     1.007825032230
         H            3.710404754403     0.031431738534     0.000000943522     1.007825032230
         H            2.494321754403     2.407812738534    -0.000000056478     1.007825032230

  Basis Set: AUG-CC-PVTZ
    Blend: AUG-CC-PVTZ
  Basis Set: (AUG-CC-PVTZ AUX)
    Blend: AUG-CC-PVTZ-JKFIT
	 Reference Energy          =    -774.2751752897812594 [Eh]
	 Singles Energy            =      -0.0000000000000000 [Eh]
	 Same-Spin Energy          =      -0.4593279794244084 [Eh]
	 Opposite-Spin Energy      =      -1.3695910707716390 [Eh]
	 Correlation Energy        =      -1.8289190501960473 [Eh]
	 Total Energy              =    -776.1040943399773369 [Eh]

	 ================> DF-SCS-MP2 Energies <==================
	-----------------------------------------------------------
	 SCS Same-Spin Scale       =       0.3333333333333333 [-]
	 SCS Opposite-Spin Scale   =       1.2000000000000000 [-]
	 SCS Same-Spin Energy      =      -0.1531093264748028 [Eh]
	 SCS Opposite-Spin Energy  =      -1.6435092849259667 [Eh]
	 SCS Correlation Energy    =      -1.7966186114007694 [Eh]
	 SCS Total Energy          =    -776.0717939011819908 [Eh]
	-----------------------------------------------------------

  Dipole Moment: [D]
     X:     1.1389      Y:     2.4645      Z:     0.0000     Total:     2.7149

*** Psi4 exiting successfully. Buy a developer a beer!
