                               Psi4 1.3.2 release

  ==> Input File <==

--------------------------------------------------------------------------
#psi4
#
memory 32 gb

molecule  {
0 1
  S        1.5510760    -1.0871590     0.0000010
  O       -1.4242190    -1.5655850    -0.0000010
  N       -2.0132560     0.6673690     0.0000000
  N        0.6809160     1.3479160    -0.0000010
  C        0.1982047     0.1140456    -0.0000001
  C       -1.1339070    -0.3627170    -0.0000010
  C       -3.4470980     0.4588130     0.0000010
  C        2.6913180     0.1894230     0.0000000
  C        2.0463170     1.4081830     0.0000000
  H       -1.6187540     1.6018420     0.0000010
  H       -3.9049180     0.8972840    -0.8911940
  H       -3.9049160     0.8972760     0.8912010
  H       -3.6178680    -0.6175520    -0.0000030
  H        3.7564850    -0.0027380     0.0000010
  H        2.5404020     2.3736430     0.0000000
units angstrom
no_reorient  #important for SAPT in psi4, default
symmetry c1  #important for SAPT in psi4, default
}

set PROPERTIES_ORIGIN ["COM"]
properties('MP2/aug-cc-pvtz', properties = ['dipole'])
--------------------------------------------------------------------------

    Molecular point group: c1
  Charge       = 0
  Multiplicity = 1
  Basis Set: AUG-CC-PVTZ
    Blend: AUG-CC-PVTZ
  Basis Set: (AUG-CC-PVTZ AUX)
    Blend: AUG-CC-PVTZ-JKFIT

    Orbital Energies [Eh]
    ---------------------

    Doubly Occupied:

       1A    -92.009075     2A    -20.530460     3A    -15.603795
       4A    -15.594008     5A    -11.366508     6A    -11.327692
       7A    -11.289045     8A    -11.286007     9A    -11.263755
      10A     -9.007681    11A     -6.688362    12A     -6.687734
      13A     -6.687263    14A     -1.387408    15A     -1.292933
      16A     -1.240080    17A     -1.076064    18A     -1.042879
      19A     -0.960523    20A     -0.863486    21A     -0.805963
      22A     -0.779049    23A     -0.716467    24A     -0.660905
      25A     -0.653066    26A     -0.636550    27A     -0.606897
      28A     -0.583272    29A     -0.563708    30A     -0.552549
      31A     -0.531280    32A     -0.514347    33A     -0.459592
      34A     -0.435161    35A     -0.409812    36A     -0.392721
      37A     -0.345231

  @DF-RHF Final Energy:  -774.26476343287470

   => Energetics <=

    Nuclear Repulsion Energy =            504.3726436425654924
    One-Electron Energy =               -2063.5721632366007725
    Two-Electron Energy =                 784.9347561611606352
    Total Energy =                       -774.2647634328747017
  Basis Set: (AUG-CC-PVTZ AUX)
    Blend: AUG-CC-PVTZ-RI
    Molecular point group: c1

    Geometry (in Angstrom), charge = 0, multiplicity = 1:

       Center              X                  Y                   Z               Mass
    ------------   -----------------  -----------------  -----------------  -----------------
         S            1.511577170028    -1.054086810458     0.000000951971    31.972071174400
         O           -1.463717829972    -1.532512810458    -0.000001048029    15.994914619570
         N           -2.052754829972     0.700441189542    -0.000000048029    14.003074004430
         N            0.641417170028     1.380988189542    -0.000001048029    14.003074004430
         C            0.158705870028     0.147117789542    -0.000000148029    12.000000000000
         C           -1.173405829972    -0.329644810458    -0.000001048029    12.000000000000
         C           -3.486596829972     0.491885189542     0.000000951971    12.000000000000
         C            2.651819170028     0.222495189542    -0.000000048029    12.000000000000
         C            2.006818170028     1.441255189542    -0.000000048029    12.000000000000
         H           -1.658252829972     1.634914189542     0.000000951971     1.007825032230
         H           -3.944416829972     0.930356189542    -0.891194048029     1.007825032230
         H           -3.944414829972     0.930348189542     0.891200951971     1.007825032230
         H           -3.657366829972    -0.584479810458    -0.000003048029     1.007825032230
         H            3.716986170028     0.030334189542     0.000000951971     1.007825032230
         H            2.500903170028     2.406715189542    -0.000000048029     1.007825032230

  Basis Set: AUG-CC-PVTZ
    Blend: AUG-CC-PVTZ
  Basis Set: (AUG-CC-PVTZ AUX)
    Blend: AUG-CC-PVTZ-JKFIT
	 Reference Energy          =    -774.2647634328747017 [Eh]
	 Singles Energy            =      -0.0000000000000000 [Eh]
	 Same-Spin Energy          =      -0.4601837943850157 [Eh]
	 Opposite-Spin Energy      =      -1.3715568111886975 [Eh]
	 Correlation Energy        =      -1.8317406055737133 [Eh]
	 Total Energy              =    -776.0965040384484155 [Eh]

	 ================> DF-SCS-MP2 Energies <==================
	-----------------------------------------------------------
	 SCS Same-Spin Scale       =       0.3333333333333333 [-]
	 SCS Opposite-Spin Scale   =       1.2000000000000000 [-]
	 SCS Same-Spin Energy      =      -0.1533945981283386 [Eh]
	 SCS Opposite-Spin Energy  =      -1.6458681734264371 [Eh]
	 SCS Correlation Energy    =      -1.7992627715547758 [Eh]
	 SCS Total Energy          =    -776.0640262044295241 [Eh]
	-----------------------------------------------------------

  Dipole Moment: [D]
     X:     1.0603      Y:     2.6449      Z:     0.0000     Total:     2.8495

*** Psi4 exiting successfully. Buy a developer a beer!
