                               Psi4 1.4a3.dev225

  ==> Input File <==

--------------------------------------------------------------------------
#psi4
#
memory 32 gb

molecule  {
0 1
  S        1.5510760    -1.0871590     0.0000010
  O       -1.4242190    -1.5655850    -0.0000010
  N       -2.0132560     0.6673690     0.0000000
  N        0.6809160     1.3479160    -0.0000010
  C        0.2854510     0.0833790     0.0000000
  C       -1.1529868    -0.3687137    -0.0000010
  C       -3.4470980     0.4588130     0.0000010
  C        2.6913180     0.1894230     0.0000000
  C        2.0463170     1.4081830     0.0000000
  H       -1.6187540     1.6018420     0.0000010
  H       -3.9049180     0.8972840    -0.8911940
  H       -3.9049160     0.8972760     0.8912010
  H       -3.6178680    -0.6175520    -0.0000030
  H        3.7564850    -0.0027380     0.0000010
  H        2.5404020     2.3736430     0.0000000
units angstrom
no_reorient  #important for SAPT in psi4, default
symmetry c1  #important for SAPT in psi4, default
}

set PROPERTIES_ORIGIN ["COM"]
properties('MP2/aug-cc-pvtz', properties = ['dipole'])
--------------------------------------------------------------------------

    Molecular point group: c1
  Charge       = 0
  Multiplicity = 1
  Basis Set: AUG-CC-PVTZ
    Blend: AUG-CC-PVTZ
  Basis Set: (AUG-CC-PVTZ AUX)
    Blend: AUG-CC-PVTZ-JKFIT

    Orbital Energies [Eh]
    ---------------------

    Doubly Occupied:

       1A    -92.011262     2A    -20.530516     3A    -15.595064
       4A    -15.594785     5A    -11.369396     6A    -11.324046
       7A    -11.283849     8A    -11.280909     9A    -11.264489
      10A     -9.011203    11A     -6.691916    12A     -6.691390
      13A     -6.690760    14A     -1.390613    15A     -1.294802
      16A     -1.242201    17A     -1.079683    18A     -1.032389
      19A     -0.960570    20A     -0.843782    21A     -0.803546
      22A     -0.780823    23A     -0.717334    24A     -0.656956
      25A     -0.650988    26A     -0.635471    27A     -0.600593
      28A     -0.583419    29A     -0.566234    30A     -0.553962
      31A     -0.535104    32A     -0.516436    33A     -0.466326
      34A     -0.435456    35A     -0.409005    36A     -0.393505
      37A     -0.347225

  @DF-RHF Final Energy:  -774.27749324767865

   => Energetics <=

    Nuclear Repulsion Energy =            504.7589312279907290
    One-Electron Energy =               -2064.4008298489079607
    Two-Electron Energy =                 785.3644053732386965
    Total Energy =                       -774.2774932476786489
  Basis Set: (AUG-CC-PVTZ AUX)
    Blend: AUG-CC-PVTZ-RI
    Molecular point group: c1

    Geometry (in Angstrom), charge = 0, multiplicity = 1:

       Center              X                  Y                   Z               Mass
    ------------   -----------------  -----------------  -----------------  -----------------
         S            1.505817435370    -1.050988941568     0.000000943522    31.972071174400
         O           -1.469477564630    -1.529414941568    -0.000001056478    15.994914619570
         N           -2.058514564630     0.703539058432    -0.000000056478    14.003074004430
         N            0.635657435370     1.384086058432    -0.000001056478    14.003074004430
         C            0.240192435370     0.119549058432    -0.000000056478    12.000000000000
         C           -1.198245364630    -0.332543641568    -0.000001056478    12.000000000000
         C           -3.492356564630     0.494983058432     0.000000943522    12.000000000000
         C            2.646059435370     0.225593058432    -0.000000056478    12.000000000000
         C            2.001058435370     1.444353058432    -0.000000056478    12.000000000000
         H           -1.664012564630     1.638012058432     0.000000943522     1.007825032230
         H           -3.950176564630     0.933454058432    -0.891194056478     1.007825032230
         H           -3.950174564630     0.933446058432     0.891200943522     1.007825032230
         H           -3.663126564630    -0.581381941568    -0.000003056478     1.007825032230
         H            3.711226435370     0.033432058432     0.000000943522     1.007825032230
         H            2.495143435370     2.409813058432    -0.000000056478     1.007825032230

  Basis Set: AUG-CC-PVTZ
    Blend: AUG-CC-PVTZ
  Basis Set: (AUG-CC-PVTZ AUX)
    Blend: AUG-CC-PVTZ-JKFIT
	 Reference Energy          =    -774.2774932476786489 [Eh]
	 Singles Energy            =      -0.0000000000000000 [Eh]
	 Same-Spin Energy          =      -0.4583999860590446 [Eh]
	 Opposite-Spin Energy      =      -1.3682450696634458 [Eh]
	 Correlation Energy        =      -1.8266450557224905 [Eh]
	 Total Energy              =    -776.1041383034011005 [Eh]

	 ================> DF-SCS-MP2 Energies <==================
	-----------------------------------------------------------
	 SCS Same-Spin Scale       =       0.3333333333333333 [-]
	 SCS Opposite-Spin Scale   =       1.2000000000000000 [-]
	 SCS Same-Spin Energy      =      -0.1527999953530149 [Eh]
	 SCS Opposite-Spin Energy  =      -1.6418940835961349 [Eh]
	 SCS Correlation Energy    =      -1.7946940789491497 [Eh]
	 SCS Total Energy          =    -776.0721873266278408 [Eh]
	-----------------------------------------------------------

  Dipole Moment: [D]
     X:     0.9828      Y:     2.4251      Z:     0.0000     Total:     2.6167

*** Psi4 exiting successfully. Buy a developer a beer!
