                               Psi4 1.3.2 release

  ==> Input File <==

--------------------------------------------------------------------------
#psi4
#
memory 32 gb

molecule  {
0 1
  S        1.5510760    -1.0871590     0.0000010
  O       -1.4242190    -1.5655850    -0.0000010
  N       -2.0132560     0.6673690     0.0000000
  N        0.6809160     1.3479160    -0.0000010
  C        0.2854510     0.0833790     0.0000000
  C       -1.1339070    -0.3627170    -0.0000010
  C       -3.4470980     0.4588130     0.0000010
  C        2.7747632     0.2373848     0.0000000
  C        2.0463170     1.4081830     0.0000000
  H       -1.6187540     1.6018420     0.0000010
  H       -3.9049180     0.8972840    -0.8911940
  H       -3.9049160     0.8972760     0.8912010
  H       -3.6178680    -0.6175520    -0.0000030
  H        3.7564850    -0.0027380     0.0000010
  H        2.5404020     2.3736430     0.0000000
units angstrom
no_reorient  #important for SAPT in psi4, default
symmetry c1  #important for SAPT in psi4, default
}

set PROPERTIES_ORIGIN ["COM"]
properties('MP2/aug-cc-pvtz', properties = ['dipole'])
--------------------------------------------------------------------------

    Molecular point group: c1
  Charge       = 0
  Multiplicity = 1
  Basis Set: AUG-CC-PVTZ
    Blend: AUG-CC-PVTZ
  Basis Set: (AUG-CC-PVTZ AUX)
    Blend: AUG-CC-PVTZ-JKFIT

    Orbital Energies [Eh]
    ---------------------

    Doubly Occupied:

       1A    -92.009788     2A    -20.531544     3A    -15.597550
       4A    -15.596093     5A    -11.371714     6A    -11.330640
       7A    -11.289651     8A    -11.284311     9A    -11.265140
      10A     -9.008383    11A     -6.689056    12A     -6.688458
      13A     -6.687958    14A     -1.386202    15A     -1.293859
      16A     -1.239588    17A     -1.067406    18A     -1.038660
      19A     -0.963121    20A     -0.850730    21A     -0.815515
      22A     -0.778487    23A     -0.722634    24A     -0.657121
      25A     -0.653838    26A     -0.634932    27A     -0.605446
      28A     -0.582515    29A     -0.576294    30A     -0.553558
      31A     -0.531557    32A     -0.497400    33A     -0.467140
      34A     -0.436996    35A     -0.405577    36A     -0.389951
      37A     -0.354123

  @DF-RHF Final Energy:  -774.26790350394458

   => Energetics <=

    Nuclear Repulsion Energy =            502.7068455385085599
    One-Electron Energy =               -2060.2436301284019464
    Two-Electron Energy =                 783.2688810859488058
    Total Energy =                       -774.2679035039445807
  Basis Set: (AUG-CC-PVTZ AUX)
    Blend: AUG-CC-PVTZ-RI
    Molecular point group: c1

    Geometry (in Angstrom), charge = 0, multiplicity = 1:

       Center              X                  Y                   Z               Mass
    ------------   -----------------  -----------------  -----------------  -----------------
         S            1.497154576108    -1.055548169965     0.000000943522    31.972071174400
         O           -1.478140423892    -1.533974169965    -0.000001056478    15.994914619570
         N           -2.067177423892     0.698979830035    -0.000000056478    14.003074004430
         N            0.626994576108     1.379526830035    -0.000001056478    14.003074004430
         C            0.231529576108     0.114989830035    -0.000000056478    12.000000000000
         C           -1.187828423892    -0.331106169965    -0.000001056478    12.000000000000
         C           -3.501019423892     0.490423830035     0.000000943522    12.000000000000
         C            2.720841776108     0.268995630035    -0.000000056478    12.000000000000
         C            1.992395576108     1.439793830035    -0.000000056478    12.000000000000
         H           -1.672675423892     1.633452830035     0.000000943522     1.007825032230
         H           -3.958839423892     0.928894830035    -0.891194056478     1.007825032230
         H           -3.958837423892     0.928886830035     0.891200943522     1.007825032230
         H           -3.671789423892    -0.585941169965    -0.000003056478     1.007825032230
         H            3.702563576108     0.028872830035     0.000000943522     1.007825032230
         H            2.486480576108     2.405253830035    -0.000000056478     1.007825032230

  Basis Set: AUG-CC-PVTZ
    Blend: AUG-CC-PVTZ
  Basis Set: (AUG-CC-PVTZ AUX)
    Blend: AUG-CC-PVTZ-JKFIT
	 Reference Energy          =    -774.2679035039445807 [Eh]
	 Singles Energy            =      -0.0000000000000000 [Eh]
	 Same-Spin Energy          =      -0.4579182304373116 [Eh]
	 Opposite-Spin Energy      =      -1.3695102655161624 [Eh]
	 Correlation Energy        =      -1.8274284959534739 [Eh]
	 Total Energy              =    -776.0953319998980078 [Eh]

	 ================> DF-SCS-MP2 Energies <==================
	-----------------------------------------------------------
	 SCS Same-Spin Scale       =       0.3333333333333333 [-]
	 SCS Opposite-Spin Scale   =       1.2000000000000000 [-]
	 SCS Same-Spin Energy      =      -0.1526394101457705 [Eh]
	 SCS Opposite-Spin Energy  =      -1.6434123186193947 [Eh]
	 SCS Correlation Energy    =      -1.7960517287651652 [Eh]
	 SCS Total Energy          =    -776.0639552327097590 [Eh]
	-----------------------------------------------------------

  Dipole Moment: [D]
     X:     1.0620      Y:     2.5270      Z:     0.0000     Total:     2.7411

*** Psi4 exiting successfully. Buy a developer a beer!
