                               Psi4 1.3.2 release

  ==> Input File <==

--------------------------------------------------------------------------
#psi4
#
memory 32 gb

molecule  {
0 1
  S        1.5289702    -1.0670646     0.0000010
  O       -1.4242190    -1.5655850    -0.0000010
  N       -2.0132560     0.6673690     0.0000000
  N        0.6809160     1.3479160    -0.0000010
  C        0.2854510     0.0833790     0.0000000
  C       -1.1339070    -0.3627170    -0.0000010
  C       -3.4470980     0.4588130     0.0000010
  C        2.6913180     0.1894230     0.0000000
  C        2.0463170     1.4081830     0.0000000
  H       -1.6187540     1.6018420     0.0000010
  H       -3.9049180     0.8972840    -0.8911940
  H       -3.9049160     0.8972760     0.8912010
  H       -3.6178680    -0.6175520    -0.0000030
  H        3.7564850    -0.0027380     0.0000010
  H        2.5404020     2.3736430     0.0000000
units angstrom
no_reorient  #important for SAPT in psi4, default
symmetry c1  #important for SAPT in psi4, default
}

set PROPERTIES_ORIGIN ["COM"]
properties('MP2/aug-cc-pvtz', properties = ['dipole'])
--------------------------------------------------------------------------

    Molecular point group: c1
  Charge       = 0
  Multiplicity = 1
  Basis Set: AUG-CC-PVTZ
    Blend: AUG-CC-PVTZ
  Basis Set: (AUG-CC-PVTZ AUX)
    Blend: AUG-CC-PVTZ-JKFIT

    Orbital Energies [Eh]
    ---------------------

    Doubly Occupied:

       1A    -92.012087     2A    -20.529197     3A    -15.594859
       4A    -15.593746     5A    -11.369277     6A    -11.321606
       7A    -11.285222     8A    -11.281993     9A    -11.263691
      10A     -9.012690    11A     -6.693418    12A     -6.692911
      13A     -6.692244    14A     -1.384439    15A     -1.297500
      16A     -1.237995    17A     -1.082512    18A     -1.038444
      19A     -0.960601    20A     -0.847511    21A     -0.806266
      22A     -0.777693    23A     -0.718448    24A     -0.655780
      25A     -0.651042    26A     -0.633881    27A     -0.599662
      28A     -0.586102    29A     -0.571553    30A     -0.552029
      31A     -0.532516    32A     -0.516328    33A     -0.466060
      34A     -0.436417    35A     -0.407760    36A     -0.391905
      37A     -0.350564

  @DF-RHF Final Energy:  -774.27680336736807

   => Energetics <=

    Nuclear Repulsion Energy =            506.2073486070938770
    One-Electron Energy =               -2067.2764013971750501
    Two-Electron Energy =                 786.7922494227129846
    Total Energy =                       -774.2768033673680748
  Basis Set: (AUG-CC-PVTZ AUX)
    Blend: AUG-CC-PVTZ-RI
    Molecular point group: c1

    Geometry (in Angstrom), charge = 0, multiplicity = 1:

       Center              X                  Y                   Z               Mass
    ------------   -----------------  -----------------  -----------------  -----------------
         S            1.487076022980    -1.035924956752     0.000000943522    31.972071174400
         O           -1.466113177020    -1.534445356752    -0.000001056478    15.994914619570
         N           -2.055150177020     0.698508643248    -0.000000056478    14.003074004430
         N            0.639021822980     1.379055643248    -0.000001056478    14.003074004430
         C            0.243556822980     0.114518643248    -0.000000056478    12.000000000000
         C           -1.175801177020    -0.331577356752    -0.000001056478    12.000000000000
         C           -3.488992177020     0.489952643248     0.000000943522    12.000000000000
         C            2.649423822980     0.220562643248    -0.000000056478    12.000000000000
         C            2.004422822980     1.439322643248    -0.000000056478    12.000000000000
         H           -1.660648177020     1.632981643248     0.000000943522     1.007825032230
         H           -3.946812177020     0.928423643248    -0.891194056478     1.007825032230
         H           -3.946810177020     0.928415643248     0.891200943522     1.007825032230
         H           -3.659762177020    -0.586412356752    -0.000003056478     1.007825032230
         H            3.714590822980     0.028401643248     0.000000943522     1.007825032230
         H            2.498507822980     2.404782643248    -0.000000056478     1.007825032230

  Basis Set: AUG-CC-PVTZ
    Blend: AUG-CC-PVTZ
  Basis Set: (AUG-CC-PVTZ AUX)
    Blend: AUG-CC-PVTZ-JKFIT
	 Reference Energy          =    -774.2768033673680748 [Eh]
	 Singles Energy            =      -0.0000000000000000 [Eh]
	 Same-Spin Energy          =      -0.4589769884629180 [Eh]
	 Opposite-Spin Energy      =      -1.3686597865615147 [Eh]
	 Correlation Energy        =      -1.8276367750244327 [Eh]
	 Total Energy              =    -776.1044401423924910 [Eh]

	 ================> DF-SCS-MP2 Energies <==================
	-----------------------------------------------------------
	 SCS Same-Spin Scale       =       0.3333333333333333 [-]
	 SCS Opposite-Spin Scale   =       1.2000000000000000 [-]
	 SCS Same-Spin Energy      =      -0.1529923294876393 [Eh]
	 SCS Opposite-Spin Energy  =      -1.6423917438738176 [Eh]
	 SCS Correlation Energy    =      -1.7953840733614568 [Eh]
	 SCS Total Energy          =    -776.0721874407295218 [Eh]
	-----------------------------------------------------------

  Dipole Moment: [D]
     X:     1.1374      Y:     2.4346      Z:     0.0000     Total:     2.6872

*** Psi4 exiting successfully. Buy a developer a beer!
