                               Psi4 1.3.2 release

  ==> Input File <==

--------------------------------------------------------------------------
#psi4
#
memory 32 gb

molecule  {
0 1
  S        1.5510760    -1.0871590     0.0000010
  O       -1.4242190    -1.5655850    -0.0000010
  N       -2.0132560     0.6673690     0.0000000
  N        0.6809160     1.3479160    -0.0000010
  C        0.2854510     0.0833790     0.0000000
  C       -1.1339070    -0.3627170    -0.0000010
  C       -3.4470980     0.4588130     0.0000010
  C        2.6913180     0.1894230     0.0000000
  C        2.0930930     1.3197975     0.0000000
  H       -1.6187540     1.6018420     0.0000010
  H       -3.9049180     0.8972840    -0.8911940
  H       -3.9049160     0.8972760     0.8912010
  H       -3.6178680    -0.6175520    -0.0000030
  H        3.7564850    -0.0027380     0.0000010
  H        2.5404020     2.3736430     0.0000000
units angstrom
no_reorient  #important for SAPT in psi4, default
symmetry c1  #important for SAPT in psi4, default
}

set PROPERTIES_ORIGIN ["COM"]
properties('MP2/aug-cc-pvtz', properties = ['dipole'])
--------------------------------------------------------------------------

    Molecular point group: c1
  Charge       = 0
  Multiplicity = 1
  Basis Set: AUG-CC-PVTZ
    Blend: AUG-CC-PVTZ
  Basis Set: (AUG-CC-PVTZ AUX)
    Blend: AUG-CC-PVTZ-JKFIT

    Orbital Energies [Eh]
    ---------------------

    Doubly Occupied:

       1A    -92.006457     2A    -20.531763     3A    -15.598301
       4A    -15.595764     5A    -11.371006     6A    -11.328036
       7A    -11.278460     8A    -11.269240     9A    -11.264961
      10A     -9.007172    11A     -6.687932    12A     -6.687396
      13A     -6.686591    14A     -1.386263    15A     -1.293829
      16A     -1.239684    17A     -1.090298    18A     -1.037224
      19A     -0.965338    20A     -0.854005    21A     -0.793778
      22A     -0.778755    23A     -0.723480    24A     -0.653420
      25A     -0.646574    26A     -0.634924    27A     -0.586199
      28A     -0.586188    29A     -0.569952    30A     -0.553542
      31A     -0.535254    32A     -0.516440    33A     -0.469414
      34A     -0.436509    35A     -0.407794    36A     -0.390757
      37A     -0.366252

  @DF-RHF Final Energy:  -774.26639810046743

   => Energetics <=

    Nuclear Repulsion Energy =            505.9112948836605028
    One-Electron Energy =               -2066.6974778093449459
    Two-Electron Energy =                 786.5197848252170161
    Total Energy =                       -774.2663981004674270
  Basis Set: (AUG-CC-PVTZ AUX)
    Blend: AUG-CC-PVTZ-RI
    Molecular point group: c1

    Geometry (in Angstrom), charge = 0, multiplicity = 1:

       Center              X                  Y                   Z               Mass
    ------------   -----------------  -----------------  -----------------  -----------------
         S            1.500252943519    -1.044027492369     0.000000943522    31.972071174400
         O           -1.475042056481    -1.522453492369    -0.000001056478    15.994914619570
         N           -2.064079056481     0.710500507631    -0.000000056478    14.003074004430
         N            0.630092943519     1.391047507631    -0.000001056478    14.003074004430
         C            0.234627943519     0.126510507631    -0.000000056478    12.000000000000
         C           -1.184730056481    -0.319585492369    -0.000001056478    12.000000000000
         C           -3.497921056481     0.501944507631     0.000000943522    12.000000000000
         C            2.640494943519     0.232554507631    -0.000000056478    12.000000000000
         C            2.042269943519     1.362929007631    -0.000000056478    12.000000000000
         H           -1.669577056481     1.644973507631     0.000000943522     1.007825032230
         H           -3.955741056481     0.940415507631    -0.891194056478     1.007825032230
         H           -3.955739056481     0.940407507631     0.891200943522     1.007825032230
         H           -3.668691056481    -0.574420492369    -0.000003056478     1.007825032230
         H            3.705661943519     0.040393507631     0.000000943522     1.007825032230
         H            2.489578943519     2.416774507631    -0.000000056478     1.007825032230

  Basis Set: AUG-CC-PVTZ
    Blend: AUG-CC-PVTZ
  Basis Set: (AUG-CC-PVTZ AUX)
    Blend: AUG-CC-PVTZ-JKFIT
	 Reference Energy          =    -774.2663981004674270 [Eh]
	 Singles Energy            =      -0.0000000000000000 [Eh]
	 Same-Spin Energy          =      -0.4566996486099604 [Eh]
	 Opposite-Spin Energy      =      -1.3671396754813769 [Eh]
	 Correlation Energy        =      -1.8238393240913373 [Eh]
	 Total Energy              =    -776.0902374245587225 [Eh]

	 ================> DF-SCS-MP2 Energies <==================
	-----------------------------------------------------------
	 SCS Same-Spin Scale       =       0.3333333333333333 [-]
	 SCS Opposite-Spin Scale   =       1.2000000000000000 [-]
	 SCS Same-Spin Energy      =      -0.1522332162033201 [Eh]
	 SCS Opposite-Spin Energy  =      -1.6405676105776523 [Eh]
	 SCS Correlation Energy    =      -1.7928008267809725 [Eh]
	 SCS Total Energy          =    -776.0591989272484170 [Eh]
	-----------------------------------------------------------

  Dipole Moment: [D]
     X:     1.0203      Y:     2.4029      Z:     0.0000     Total:     2.6105

*** Psi4 exiting successfully. Buy a developer a beer!
