                               Psi4 1.3.2 release

  ==> Input File <==

--------------------------------------------------------------------------
#psi4
#
memory 32 gb

molecule  {
0 1
  S        1.5072185    -1.0465875     0.0000010
  O       -1.4242190    -1.5655850    -0.0000010
  N       -2.0132560     0.6673690     0.0000000
  N        0.6809160     1.3479160    -0.0000010
  C        0.2854510     0.0833790     0.0000000
  C       -1.1339070    -0.3627170    -0.0000010
  C       -3.4470980     0.4588130     0.0000010
  C        2.6913180     0.1894230     0.0000000
  C        2.0463170     1.4081830     0.0000000
  H       -1.6187540     1.6018420     0.0000010
  H       -3.9049180     0.8972840    -0.8911940
  H       -3.9049160     0.8972760     0.8912010
  H       -3.6178680    -0.6175520    -0.0000030
  H        3.7564850    -0.0027380     0.0000010
  H        2.5404020     2.3736430     0.0000000
units angstrom
no_reorient  #important for SAPT in psi4, default
symmetry c1  #important for SAPT in psi4, default
}

set PROPERTIES_ORIGIN ["COM"]
properties('MP2/aug-cc-pvtz', properties = ['dipole'])
--------------------------------------------------------------------------

    Molecular point group: c1
  Charge       = 0
  Multiplicity = 1
  Basis Set: AUG-CC-PVTZ
    Blend: AUG-CC-PVTZ
  Basis Set: (AUG-CC-PVTZ AUX)
    Blend: AUG-CC-PVTZ-JKFIT

    Orbital Energies [Eh]
    ---------------------

    Doubly Occupied:

       1A    -92.011222     2A    -20.529224     3A    -15.593716
       4A    -15.592631     5A    -11.369297     6A    -11.318560
       7A    -11.285345     8A    -11.281260     9A    -11.263659
      10A     -9.012615    11A     -6.693392    12A     -6.692853
      13A     -6.692161    14A     -1.384735    15A     -1.299123
      16A     -1.238091    17A     -1.084082    18A     -1.040972
      19A     -0.961372    20A     -0.847019    21A     -0.807532
      22A     -0.777791    23A     -0.718214    24A     -0.656182
      25A     -0.651611    26A     -0.634248    27A     -0.599804
      28A     -0.587930    29A     -0.575110    30A     -0.551998
      31A     -0.532890    32A     -0.514639    33A     -0.465585
      34A     -0.436092    35A     -0.406991    36A     -0.391273
      37A     -0.352688

  @DF-RHF Final Energy:  -774.27589399590306

   => Energetics <=

    Nuclear Repulsion Energy =            507.6146015545723458
    One-Electron Energy =               -2070.0771852467382814
    Two-Electron Energy =                 788.1866896962628743
    Total Energy =                       -774.2758939959030613
  Basis Set: (AUG-CC-PVTZ AUX)
    Blend: AUG-CC-PVTZ-RI
    Molecular point group: c1

    Geometry (in Angstrom), charge = 0, multiplicity = 1:

       Center              X                  Y                   Z               Mass
    ------------   -----------------  -----------------  -----------------  -----------------
         S            1.470221143775    -1.020057735019     0.000000943522    31.972071174400
         O           -1.461216356225    -1.539055235019    -0.000001056478    15.994914619570
         N           -2.050253356225     0.693898764981    -0.000000056478    14.003074004430
         N            0.643918643775     1.374445764981    -0.000001056478    14.003074004430
         C            0.248453643775     0.109908764981    -0.000000056478    12.000000000000
         C           -1.170904356225    -0.336187235019    -0.000001056478    12.000000000000
         C           -3.484095356225     0.485342764981     0.000000943522    12.000000000000
         C            2.654320643775     0.215952764981    -0.000000056478    12.000000000000
         C            2.009319643775     1.434712764981    -0.000000056478    12.000000000000
         H           -1.655751356225     1.628371764981     0.000000943522     1.007825032230
         H           -3.941915356225     0.923813764981    -0.891194056478     1.007825032230
         H           -3.941913356225     0.923805764981     0.891200943522     1.007825032230
         H           -3.654865356225    -0.591022235019    -0.000003056478     1.007825032230
         H            3.719487643775     0.023791764981     0.000000943522     1.007825032230
         H            2.503404643775     2.400172764981    -0.000000056478     1.007825032230

  Basis Set: AUG-CC-PVTZ
    Blend: AUG-CC-PVTZ
  Basis Set: (AUG-CC-PVTZ AUX)
    Blend: AUG-CC-PVTZ-JKFIT
	 Reference Energy          =    -774.2758939959030613 [Eh]
	 Singles Energy            =      -0.0000000000000000 [Eh]
	 Same-Spin Energy          =      -0.4591418264933182 [Eh]
	 Opposite-Spin Energy      =      -1.3683094036049017 [Eh]
	 Correlation Energy        =      -1.8274512300982200 [Eh]
	 Total Energy              =    -776.1033452260012382 [Eh]

	 ================> DF-SCS-MP2 Energies <==================
	-----------------------------------------------------------
	 SCS Same-Spin Scale       =       0.3333333333333333 [-]
	 SCS Opposite-Spin Scale   =       1.2000000000000000 [-]
	 SCS Same-Spin Energy      =      -0.1530472754977727 [Eh]
	 SCS Opposite-Spin Energy  =      -1.6419712843258820 [Eh]
	 SCS Correlation Energy    =      -1.7950185598236548 [Eh]
	 SCS Total Energy          =    -776.0709125557267498 [Eh]
	-----------------------------------------------------------

  Dipole Moment: [D]
     X:     1.1477      Y:     2.4218      Z:     0.0000     Total:     2.6800

*** Psi4 exiting successfully. Buy a developer a beer!
