                               Psi4 1.3.2 release

  ==> Input File <==

--------------------------------------------------------------------------
#psi4
#
memory 32 gb

molecule  {
0 1
  S        1.5510760    -1.0871590     0.0000010
  O       -1.4660216    -1.5547205    -0.0000010
  N       -2.0132560     0.6673690     0.0000000
  N        0.6809160     1.3479160    -0.0000010
  C        0.2854510     0.0833790     0.0000000
  C       -1.1339070    -0.3627170    -0.0000010
  C       -3.4470980     0.4588130     0.0000010
  C        2.6913180     0.1894230     0.0000000
  C        2.0463170     1.4081830     0.0000000
  H       -1.6187540     1.6018420     0.0000010
  H       -3.9049180     0.8972840    -0.8911940
  H       -3.9049160     0.8972760     0.8912010
  H       -3.6178680    -0.6175520    -0.0000030
  H        3.7564850    -0.0027380     0.0000010
  H        2.5404020     2.3736430     0.0000000
units angstrom
no_reorient  #important for SAPT in psi4, default
symmetry c1  #important for SAPT in psi4, default
}

set PROPERTIES_ORIGIN ["COM"]
properties('MP2/aug-cc-pvtz', properties = ['dipole'])
--------------------------------------------------------------------------

    Molecular point group: c1
  Charge       = 0
  Multiplicity = 1
  Basis Set: AUG-CC-PVTZ
    Blend: AUG-CC-PVTZ
  Basis Set: (AUG-CC-PVTZ AUX)
    Blend: AUG-CC-PVTZ-JKFIT

    Orbital Energies [Eh]
    ---------------------

    Doubly Occupied:

       1A    -92.014227     2A    -20.528071     3A    -15.598529
       4A    -15.591547     5A    -11.368803     6A    -11.326437
       7A    -11.286382     8A    -11.284015     9A    -11.261909
      10A     -9.014140    11A     -6.694846    12A     -6.694317
      13A     -6.693693    14A     -1.383916    15A     -1.297443
      16A     -1.235118    17A     -1.082518    18A     -1.037248
      19A     -0.958912    20A     -0.848445    21A     -0.806299
      22A     -0.776102    23A     -0.719674    24A     -0.655870
      25A     -0.649473    26A     -0.632598    27A     -0.599957
      28A     -0.584630    29A     -0.568508    30A     -0.549805
      31A     -0.531844    32A     -0.519100    33A     -0.467296
      34A     -0.436662    35A     -0.408721    36A     -0.391615
      37A     -0.349799

  @DF-RHF Final Energy:  -774.27611225714293

   => Energetics <=

    Nuclear Repulsion Energy =            504.6124306007090468
    One-Electron Energy =               -2064.0801453407275403
    Two-Electron Energy =                 785.1916024828755098
    Total Energy =                       -774.2761122571429269
  Basis Set: (AUG-CC-PVTZ AUX)
    Blend: AUG-CC-PVTZ-RI
    Molecular point group: c1

    Geometry (in Angstrom), charge = 0, multiplicity = 1:

       Center              X                  Y                   Z               Mass
    ------------   -----------------  -----------------  -----------------  -----------------
         S            1.508913275096    -1.052719240149     0.000000943522    31.972071174400
         O           -1.508184324904    -1.520280740149    -0.000001056478    15.994914619570
         N           -2.055418724904     0.701808759851    -0.000000056478    14.003074004430
         N            0.638753275096     1.382355759851    -0.000001056478    14.003074004430
         C            0.243288275096     0.117818759851    -0.000000056478    12.000000000000
         C           -1.176069724904    -0.328277240149    -0.000001056478    12.000000000000
         C           -3.489260724904     0.493252759851     0.000000943522    12.000000000000
         C            2.649155275096     0.223862759851    -0.000000056478    12.000000000000
         C            2.004154275096     1.442622759851    -0.000000056478    12.000000000000
         H           -1.660916724904     1.636281759851     0.000000943522     1.007825032230
         H           -3.947080724904     0.931723759851    -0.891194056478     1.007825032230
         H           -3.947078724904     0.931715759851     0.891200943522     1.007825032230
         H           -3.660030724904    -0.583112240149    -0.000003056478     1.007825032230
         H            3.714322275096     0.031701759851     0.000000943522     1.007825032230
         H            2.498239275096     2.408082759851    -0.000000056478     1.007825032230

  Basis Set: AUG-CC-PVTZ
    Blend: AUG-CC-PVTZ
  Basis Set: (AUG-CC-PVTZ AUX)
    Blend: AUG-CC-PVTZ-JKFIT
	 Reference Energy          =    -774.2761122571429269 [Eh]
	 Singles Energy            =      -0.0000000000000000 [Eh]
	 Same-Spin Energy          =      -0.4589421144943283 [Eh]
	 Opposite-Spin Energy      =      -1.3691511501184066 [Eh]
	 Correlation Energy        =      -1.8280932646127348 [Eh]
	 Total Energy              =    -776.1042055217557163 [Eh]

	 ================> DF-SCS-MP2 Energies <==================
	-----------------------------------------------------------
	 SCS Same-Spin Scale       =       0.3333333333333333 [-]
	 SCS Opposite-Spin Scale   =       1.2000000000000000 [-]
	 SCS Same-Spin Energy      =      -0.1529807048314428 [Eh]
	 SCS Opposite-Spin Energy  =      -1.6429813801420878 [Eh]
	 SCS Correlation Energy    =      -1.7959620849735307 [Eh]
	 SCS Total Energy          =    -776.0720743421164798 [Eh]
	-----------------------------------------------------------

  Dipole Moment: [D]
     X:     1.2867      Y:     2.4376      Z:     0.0000     Total:     2.7563

*** Psi4 exiting successfully. Buy a developer a beer!
