                               Psi4 1.4a3.dev225

  ==> Input File <==

--------------------------------------------------------------------------
#psi4
#
memory 32 gb

molecule  {
0 1
  S        1.5510760    -1.0871590     0.0000010
  O       -1.4242190    -1.5655850    -0.0000010
  N       -2.0132560     0.6673690     0.0000000
  N        0.6809160     1.3479160    -0.0000010
  C        0.3221584     0.0494295     0.0000000
  C       -1.1339070    -0.3627170    -0.0000010
  C       -3.4470980     0.4588130     0.0000010
  C        2.6913180     0.1894230     0.0000000
  C        2.0463170     1.4081830     0.0000000
  H       -1.6187540     1.6018420     0.0000010
  H       -3.9049180     0.8972840    -0.8911940
  H       -3.9049160     0.8972760     0.8912010
  H       -3.6178680    -0.6175520    -0.0000030
  H        3.7564850    -0.0027380     0.0000010
  H        2.5404020     2.3736430     0.0000000
units angstrom
no_reorient  #important for SAPT in psi4, default
symmetry c1  #important for SAPT in psi4, default
}

set PROPERTIES_ORIGIN ["COM"]
properties('MP2/aug-cc-pvtz', properties = ['dipole'])
--------------------------------------------------------------------------

    Molecular point group: c1
  Charge       = 0
  Multiplicity = 1
  Basis Set: AUG-CC-PVTZ
    Blend: AUG-CC-PVTZ
  Basis Set: (AUG-CC-PVTZ AUX)
    Blend: AUG-CC-PVTZ-JKFIT

    Orbital Energies [Eh]
    ---------------------

    Doubly Occupied:

       1A    -92.016166     2A    -20.527516     3A    -15.595241
       4A    -15.593472     5A    -11.369639     6A    -11.323492
       7A    -11.285051     8A    -11.279977     9A    -11.263606
      10A     -9.016940    11A     -6.697712    12A     -6.697126
      13A     -6.696475    14A     -1.382567    15A     -1.292379
      16A     -1.236677    17A     -1.085663    18A     -1.033879
      19A     -0.959189    20A     -0.842744    21A     -0.802620
      22A     -0.776950    23A     -0.719422    24A     -0.653024
      25A     -0.649324    26A     -0.632284    27A     -0.594503
      28A     -0.584404    29A     -0.570659    30A     -0.551601
      31A     -0.531828    32A     -0.520143    33A     -0.467977
      34A     -0.436513    35A     -0.407131    36A     -0.391890
      37A     -0.349546

  @DF-RHF Final Energy:  -774.27354693363691

   => Energetics <=

    Nuclear Repulsion Energy =            505.0905487428625520
    One-Electron Energy =               -2065.0575323234443204
    Two-Electron Energy =                 785.6934366469447468
    Total Energy =                       -774.2735469336369079
  Basis Set: (AUG-CC-PVTZ AUX)
    Blend: AUG-CC-PVTZ-RI
    Molecular point group: c1

    Geometry (in Angstrom), charge = 0, multiplicity = 1:

       Center              X                  Y                   Z               Mass
    ------------   -----------------  -----------------  -----------------  -----------------
         S            1.501103690798    -1.048627067172     0.000000943522    31.972071174400
         O           -1.474191309202    -1.527053067172    -0.000001056478    15.994914619570
         N           -2.063228309202     0.705900932828    -0.000000056478    14.003074004430
         N            0.630943690798     1.386447932828    -0.000001056478    14.003074004430
         C            0.272186090798     0.087961432828    -0.000000056478    12.000000000000
         C           -1.183879309202    -0.324185067172    -0.000001056478    12.000000000000
         C           -3.497070309202     0.497344932828     0.000000943522    12.000000000000
         C            2.641345690798     0.227954932828    -0.000000056478    12.000000000000
         C            1.996344690798     1.446714932828    -0.000000056478    12.000000000000
         H           -1.668726309202     1.640373932828     0.000000943522     1.007825032230
         H           -3.954890309202     0.935815932828    -0.891194056478     1.007825032230
         H           -3.954888309202     0.935807932828     0.891200943522     1.007825032230
         H           -3.667840309202    -0.579020067172    -0.000003056478     1.007825032230
         H            3.706512690798     0.035793932828     0.000000943522     1.007825032230
         H            2.490429690798     2.412174932828    -0.000000056478     1.007825032230

  Basis Set: AUG-CC-PVTZ
    Blend: AUG-CC-PVTZ
  Basis Set: (AUG-CC-PVTZ AUX)
    Blend: AUG-CC-PVTZ-JKFIT
	 Reference Energy          =    -774.2735469336369079 [Eh]
	 Singles Energy            =      -0.0000000000000000 [Eh]
	 Same-Spin Energy          =      -0.4591516088882799 [Eh]
	 Opposite-Spin Energy      =      -1.3692794651685478 [Eh]
	 Correlation Energy        =      -1.8284310740568277 [Eh]
	 Total Energy              =    -776.1019780076937877 [Eh]

	 ================> DF-SCS-MP2 Energies <==================
	-----------------------------------------------------------
	 SCS Same-Spin Scale       =       0.3333333333333333 [-]
	 SCS Opposite-Spin Scale   =       1.2000000000000000 [-]
	 SCS Same-Spin Energy      =      -0.1530505362960933 [Eh]
	 SCS Opposite-Spin Energy  =      -1.6431353582022574 [Eh]
	 SCS Correlation Energy    =      -1.7961858944983506 [Eh]
	 SCS Total Energy          =    -776.0697328281352156 [Eh]
	-----------------------------------------------------------

  Dipole Moment: [D]
     X:     1.2020      Y:     2.3391      Z:     0.0000     Total:     2.6298

*** Psi4 exiting successfully. Buy a developer a beer!
