                               Psi4 1.3.2 release

  ==> Input File <==

--------------------------------------------------------------------------
#psi4
#
memory 32 gb

molecule  {
0 1
  S        1.5510760    -1.0871590     0.0000010
  O       -1.4242190    -1.5655850    -0.0000010
  N       -2.0132560     0.6673690     0.0000000
  N        0.6809160     1.3479160    -0.0000010
  C        0.2854510     0.0833790     0.0000000
  C       -1.1339070    -0.3627170    -0.0000010
  C       -3.4470980     0.4588130     0.0000010
  C        2.6913180     0.1894230     0.0000000
  C        2.0463170     1.4081830     0.0000000
  H       -1.6187540     1.6018420     0.0000010
  H       -3.9049180     0.8972840    -0.8911940
  H       -3.9049160     0.8972760     0.8912010
  H       -3.6178680    -0.6175520    -0.0000030
  H        3.7564850    -0.0027380     0.0000010
  H        2.4492880     2.1956030     0.0000000
units angstrom
no_reorient  #important for SAPT in psi4, default
symmetry c1  #important for SAPT in psi4, default
}

set PROPERTIES_ORIGIN ["COM"]
properties('MP2/aug-cc-pvtz', properties = ['dipole'])
--------------------------------------------------------------------------

    Molecular point group: c1
  Charge       = 0
  Multiplicity = 1
  Basis Set: AUG-CC-PVTZ
    Blend: AUG-CC-PVTZ
  Basis Set: (AUG-CC-PVTZ AUX)
    Blend: AUG-CC-PVTZ-JKFIT

    Orbital Energies [Eh]
    ---------------------

    Doubly Occupied:

       1A    -92.012297     2A    -20.528806     3A    -15.595908
       4A    -15.593478     5A    -11.368828     6A    -11.323556
       7A    -11.282612     8A    -11.263535     9A    -11.262208
      10A     -9.012220    11A     -6.692927    12A     -6.692398
      13A     -6.691782    14A     -1.383810    15A     -1.295978
      16A     -1.237678    17A     -1.080528    18A     -1.045158
      19A     -0.963791    20A     -0.856005    21A     -0.823533
      22A     -0.779437    23A     -0.722250    24A     -0.678232
      25A     -0.650465    26A     -0.633283    27A     -0.605583
      28A     -0.583893    29A     -0.567400    30A     -0.551985
      31A     -0.531782    32A     -0.523469    33A     -0.466762
      34A     -0.436147    35A     -0.408134    36A     -0.392138
      37A     -0.348533

  @DF-RHF Final Energy:  -774.24116489336348

   => Energetics <=

    Nuclear Repulsion Energy =            506.0604720147354669
    One-Electron Energy =               -2066.8302206705220669
    Two-Electron Energy =                 786.5285837624230680
    Total Energy =                       -774.2411648933634751
  Basis Set: (AUG-CC-PVTZ AUX)
    Blend: AUG-CC-PVTZ-RI
    Molecular point group: c1

    Geometry (in Angstrom), charge = 0, multiplicity = 1:

       Center              X                  Y                   Z               Mass
    ------------   -----------------  -----------------  -----------------  -----------------
         S            1.504851863275    -1.050232198115     0.000000943522    31.972071174400
         O           -1.470443136725    -1.528658198115    -0.000001056478    15.994914619570
         N           -2.059480136725     0.704295801885    -0.000000056478    14.003074004430
         N            0.634691863275     1.384842801885    -0.000001056478    14.003074004430
         C            0.239226863275     0.120305801885    -0.000000056478    12.000000000000
         C           -1.180131136725    -0.325790198115    -0.000001056478    12.000000000000
         C           -3.493322136725     0.495739801885     0.000000943522    12.000000000000
         C            2.645093863275     0.226349801885    -0.000000056478    12.000000000000
         C            2.000092863275     1.445109801885    -0.000000056478    12.000000000000
         H           -1.664978136725     1.638768801885     0.000000943522     1.007825032230
         H           -3.951142136725     0.934210801885    -0.891194056478     1.007825032230
         H           -3.951140136725     0.934202801885     0.891200943522     1.007825032230
         H           -3.664092136725    -0.580625198115    -0.000003056478     1.007825032230
         H            3.710260863275     0.034188801885     0.000000943522     1.007825032230
         H            2.403063863275     2.232529801885    -0.000000056478     1.007825032230

  Basis Set: AUG-CC-PVTZ
    Blend: AUG-CC-PVTZ
  Basis Set: (AUG-CC-PVTZ AUX)
    Blend: AUG-CC-PVTZ-JKFIT
	 Reference Energy          =    -774.2411648933634751 [Eh]
	 Singles Energy            =      -0.0000000000000000 [Eh]
	 Same-Spin Energy          =      -0.4585677278330014 [Eh]
	 Opposite-Spin Energy      =      -1.3686793205230507 [Eh]
	 Correlation Energy        =      -1.8272470483560521 [Eh]
	 Total Energy              =    -776.0684119417195461 [Eh]

	 ================> DF-SCS-MP2 Energies <==================
	-----------------------------------------------------------
	 SCS Same-Spin Scale       =       0.3333333333333333 [-]
	 SCS Opposite-Spin Scale   =       1.2000000000000000 [-]
	 SCS Same-Spin Energy      =      -0.1528559092776671 [Eh]
	 SCS Opposite-Spin Energy  =      -1.6424151846276609 [Eh]
	 SCS Correlation Energy    =      -1.7952710939053280 [Eh]
	 SCS Total Energy          =    -776.0364359872687601 [Eh]
	-----------------------------------------------------------

  Dipole Moment: [D]
     X:     1.1461      Y:     2.4348      Z:     0.0000     Total:     2.6911

*** Psi4 exiting successfully. Buy a developer a beer!
