                               Psi4 1.3.2 release

  ==> Input File <==

--------------------------------------------------------------------------
#psi4
#
memory 32 gb

molecule  {
0 1
  S        1.5510760    -1.0871590     0.0000010
  O       -1.4242190    -1.5655850    -0.0000010
  N       -2.0132560     0.6673690     0.0000000
  N        0.6809160     1.3479160    -0.0000010
  C        0.2854510     0.0833790     0.0000000
  C       -1.1339070    -0.3627170    -0.0000010
  C       -3.4470980     0.4588130     0.0000010
  C        2.6913180     0.1894230     0.0000000
  C        2.1398691     1.2314119     0.0000000
  H       -1.6187540     1.6018420     0.0000010
  H       -3.9049180     0.8972840    -0.8911940
  H       -3.9049160     0.8972760     0.8912010
  H       -3.6178680    -0.6175520    -0.0000030
  H        3.7564850    -0.0027380     0.0000010
  H        2.5404020     2.3736430     0.0000000
units angstrom
no_reorient  #important for SAPT in psi4, default
symmetry c1  #important for SAPT in psi4, default
}

set PROPERTIES_ORIGIN ["COM"]
properties('MP2/aug-cc-pvtz', properties = ['dipole'])
--------------------------------------------------------------------------

    Molecular point group: c1
  Charge       = 0
  Multiplicity = 1
  Basis Set: AUG-CC-PVTZ
    Blend: AUG-CC-PVTZ
  Basis Set: (AUG-CC-PVTZ AUX)
    Blend: AUG-CC-PVTZ-JKFIT

    Orbital Energies [Eh]
    ---------------------

    Doubly Occupied:

       1A    -92.001349     2A    -20.533780     3A    -15.599966
       4A    -15.597271     5A    -11.372259     6A    -11.330606
       7A    -11.271277     8A    -11.265908     9A    -11.254136
      10A     -9.002786    11A     -6.683577    12A     -6.683039
      13A     -6.682058    14A     -1.387889    15A     -1.292885
      16A     -1.241283    17A     -1.109022    18A     -1.034557
      19A     -0.970603    20A     -0.859695    21A     -0.784981
      22A     -0.776524    23A     -0.725060    24A     -0.656153
      25A     -0.644189    26A     -0.636063    27A     -0.589848
      28A     -0.580482    29A     -0.568775    30A     -0.554186
      31A     -0.539631    32A     -0.506620    33A     -0.470056
      34A     -0.432930    35A     -0.410714    36A     -0.394206
      37A     -0.378344

  @DF-RHF Final Energy:  -774.21864386523089

   => Energetics <=

    Nuclear Repulsion Energy =            507.1608360413854939
    One-Electron Energy =               -2069.1135490611450223
    Two-Electron Energy =                 787.7340691545286973
    Total Energy =                       -774.2186438652308880
  Basis Set: (AUG-CC-PVTZ AUX)
    Blend: AUG-CC-PVTZ-RI
    Molecular point group: c1

    Geometry (in Angstrom), charge = 0, multiplicity = 1:

       Center              X                  Y                   Z               Mass
    ------------   -----------------  -----------------  -----------------  -----------------
         S            1.496300592667    -1.036559343004     0.000000943522    31.972071174400
         O           -1.478994407333    -1.514985343004    -0.000001056478    15.994914619570
         N           -2.068031407333     0.717968656996    -0.000000056478    14.003074004430
         N            0.626140592667     1.398515656996    -0.000001056478    14.003074004430
         C            0.230675592667     0.133978656996    -0.000000056478    12.000000000000
         C           -1.188682407333    -0.312117343004    -0.000001056478    12.000000000000
         C           -3.501873407333     0.509412656996     0.000000943522    12.000000000000
         C            2.636542592667     0.240022656996    -0.000000056478    12.000000000000
         C            2.085093692667     1.282011556996    -0.000000056478    12.000000000000
         H           -1.673529407333     1.652441656996     0.000000943522     1.007825032230
         H           -3.959693407333     0.947883656996    -0.891194056478     1.007825032230
         H           -3.959691407333     0.947875656996     0.891200943522     1.007825032230
         H           -3.672643407333    -0.566952343004    -0.000003056478     1.007825032230
         H            3.701709592667     0.047861656996     0.000000943522     1.007825032230
         H            2.485626592667     2.424242656996    -0.000000056478     1.007825032230

  Basis Set: AUG-CC-PVTZ
    Blend: AUG-CC-PVTZ
  Basis Set: (AUG-CC-PVTZ AUX)
    Blend: AUG-CC-PVTZ-JKFIT
	 Reference Energy          =    -774.2186438652308880 [Eh]
	 Singles Energy            =      -0.0000000000000000 [Eh]
	 Same-Spin Energy          =      -0.4553172247358852 [Eh]
	 Opposite-Spin Energy      =      -1.3665015488552337 [Eh]
	 Correlation Energy        =      -1.8218187735911189 [Eh]
	 Total Energy              =    -776.0404626388219640 [Eh]

	 ================> DF-SCS-MP2 Energies <==================
	-----------------------------------------------------------
	 SCS Same-Spin Scale       =       0.3333333333333333 [-]
	 SCS Opposite-Spin Scale   =       1.2000000000000000 [-]
	 SCS Same-Spin Energy      =      -0.1517724082452950 [Eh]
	 SCS Opposite-Spin Energy  =      -1.6398018586262804 [Eh]
	 SCS Correlation Energy    =      -1.7915742668715753 [Eh]
	 SCS Total Energy          =    -776.0102181321024091 [Eh]
	-----------------------------------------------------------

  Dipole Moment: [D]
     X:     0.9074      Y:     2.3750      Z:     0.0000     Total:     2.5424

*** Psi4 exiting successfully. Buy a developer a beer!
