                               Psi4 1.3.2 release

  ==> Input File <==

--------------------------------------------------------------------------
#psi4
#
memory 32 gb

molecule  {
0 1
  S        1.5510760    -1.0871590     0.0000010
  O       -1.4242190    -1.5655850    -0.0000010
  N       -2.0310996     0.6518654    -0.0000000
  N        0.6809160     1.3479160    -0.0000010
  C        0.2854510     0.0833790     0.0000000
  C       -1.1339070    -0.3627170    -0.0000010
  C       -3.4470980     0.4588130     0.0000010
  C        2.6913180     0.1894230     0.0000000
  C        2.0463170     1.4081830     0.0000000
  H       -1.6187540     1.6018420     0.0000010
  H       -3.9049180     0.8972840    -0.8911940
  H       -3.9049160     0.8972760     0.8912010
  H       -3.6178680    -0.6175520    -0.0000030
  H        3.7564850    -0.0027380     0.0000010
  H        2.5404020     2.3736430     0.0000000
units angstrom
no_reorient  #important for SAPT in psi4, default
symmetry c1  #important for SAPT in psi4, default
}

set PROPERTIES_ORIGIN ["COM"]
properties('MP2/aug-cc-pvtz', properties = ['dipole'])
--------------------------------------------------------------------------

    Molecular point group: c1
  Charge       = 0
  Multiplicity = 1
  Basis Set: AUG-CC-PVTZ
    Blend: AUG-CC-PVTZ
  Basis Set: (AUG-CC-PVTZ AUX)
    Blend: AUG-CC-PVTZ-JKFIT

    Orbital Energies [Eh]
    ---------------------

    Doubly Occupied:

       1A    -92.013609     2A    -20.528123     3A    -15.597872
       4A    -15.594430     5A    -11.369040     6A    -11.325622
       7A    -11.285688     8A    -11.283330     9A    -11.261850
      10A     -9.013480    11A     -6.694181    12A     -6.693656
      13A     -6.693026    14A     -1.384250    15A     -1.296624
      16A     -1.238744    17A     -1.081910    18A     -1.037116
      19A     -0.961205    20A     -0.846546    21A     -0.805510
      22A     -0.773298    23A     -0.719402    24A     -0.655604
      25A     -0.653697    26A     -0.635251    27A     -0.599638
      28A     -0.585020    29A     -0.569947    30A     -0.548185
      31A     -0.531624    32A     -0.518414    33A     -0.466755
      34A     -0.436735    35A     -0.408199    36A     -0.391406
      37A     -0.349103

  @DF-RHF Final Energy:  -774.27535057343516

   => Energetics <=

    Nuclear Repulsion Energy =            504.8630225345322060
    One-Electron Energy =               -2064.5805681575066046
    Two-Electron Energy =                 785.4421950495391229
    Total Energy =                       -774.2753505734351620
  Basis Set: (AUG-CC-PVTZ AUX)
    Blend: AUG-CC-PVTZ-RI
    Molecular point group: c1

    Geometry (in Angstrom), charge = 0, multiplicity = 1:

       Center              X                  Y                   Z               Mass
    ------------   -----------------  -----------------  -----------------  -----------------
         S            1.505964651529    -1.049966989925     0.000000943522    31.972071174400
         O           -1.469330348471    -1.528392989925    -0.000001056478    15.994914619570
         N           -2.076210948471     0.689057410075    -0.000000056478    14.003074004430
         N            0.635804651529     1.385108010075    -0.000001056478    14.003074004430
         C            0.240339651529     0.120571010075    -0.000000056478    12.000000000000
         C           -1.179018348471    -0.325524989925    -0.000001056478    12.000000000000
         C           -3.492209348471     0.496005010075     0.000000943522    12.000000000000
         C            2.646206651529     0.226615010075    -0.000000056478    12.000000000000
         C            2.001205651529     1.445375010075    -0.000000056478    12.000000000000
         H           -1.663865348471     1.639034010075     0.000000943522     1.007825032230
         H           -3.950029348471     0.934476010075    -0.891194056478     1.007825032230
         H           -3.950027348471     0.934468010075     0.891200943522     1.007825032230
         H           -3.662979348471    -0.580359989925    -0.000003056478     1.007825032230
         H            3.711373651529     0.034454010075     0.000000943522     1.007825032230
         H            2.495290651529     2.410835010075    -0.000000056478     1.007825032230

  Basis Set: AUG-CC-PVTZ
    Blend: AUG-CC-PVTZ
  Basis Set: (AUG-CC-PVTZ AUX)
    Blend: AUG-CC-PVTZ-JKFIT
	 Reference Energy          =    -774.2753505734351620 [Eh]
	 Singles Energy            =      -0.0000000000000000 [Eh]
	 Same-Spin Energy          =      -0.4590690323643433 [Eh]
	 Opposite-Spin Energy      =      -1.3693283524961177 [Eh]
	 Correlation Energy        =      -1.8283973848604611 [Eh]
	 Total Energy              =    -776.1037479582955712 [Eh]

	 ================> DF-SCS-MP2 Energies <==================
	-----------------------------------------------------------
	 SCS Same-Spin Scale       =       0.3333333333333333 [-]
	 SCS Opposite-Spin Scale   =       1.2000000000000000 [-]
	 SCS Same-Spin Energy      =      -0.1530230107881144 [Eh]
	 SCS Opposite-Spin Energy  =      -1.6431940229953412 [Eh]
	 SCS Correlation Energy    =      -1.7962170337834555 [Eh]
	 SCS Total Energy          =    -776.0715676072186398 [Eh]
	-----------------------------------------------------------

  Dipole Moment: [D]
     X:     1.1961      Y:     2.4688      Z:     0.0000     Total:     2.7433

*** Psi4 exiting successfully. Buy a developer a beer!
