                               Psi4 1.4a3.dev225

  ==> Input File <==

--------------------------------------------------------------------------
#psi4
#
memory 32 gb

molecule  {
0 1
  S        1.5510760    -1.0871590     0.0000010
  O       -1.4242190    -1.5655850    -0.0000010
  N       -2.0132560     0.6673690     0.0000000
  N        0.6809160     1.3479160    -0.0000010
  C        0.2914206     0.1024673    -0.0000000
  C       -1.1339070    -0.3627170    -0.0000010
  C       -3.4470980     0.4588130     0.0000010
  C        2.6913180     0.1894230     0.0000000
  C        2.0463170     1.4081830     0.0000000
  H       -1.6187540     1.6018420     0.0000010
  H       -3.9049180     0.8972840    -0.8911940
  H       -3.9049160     0.8972760     0.8912010
  H       -3.6178680    -0.6175520    -0.0000030
  H        3.7564850    -0.0027380     0.0000010
  H        2.5404020     2.3736430     0.0000000
units angstrom
no_reorient  #important for SAPT in psi4, default
symmetry c1  #important for SAPT in psi4, default
}

set PROPERTIES_ORIGIN ["COM"]
properties('MP2/aug-cc-pvtz', properties = ['dipole'])
--------------------------------------------------------------------------

    Molecular point group: c1
  Charge       = 0
  Multiplicity = 1
  Basis Set: AUG-CC-PVTZ
    Blend: AUG-CC-PVTZ
  Basis Set: (AUG-CC-PVTZ AUX)
    Blend: AUG-CC-PVTZ-JKFIT

    Orbital Energies [Eh]
    ---------------------

    Doubly Occupied:

       1A    -92.010781     2A    -20.530125     3A    -15.595919
       4A    -15.594162     5A    -11.370262     6A    -11.324228
       7A    -11.284718     8A    -11.282478     9A    -11.263918
      10A     -9.010718    11A     -6.691428    12A     -6.690873
      13A     -6.690238    14A     -1.384266    15A     -1.301895
      16A     -1.238399    17A     -1.081941    18A     -1.034210
      19A     -0.959984    20A     -0.845753    21A     -0.807287
      22A     -0.777377    23A     -0.718948    24A     -0.655717
      25A     -0.650378    26A     -0.633818    27A     -0.600854
      28A     -0.585810    29A     -0.566122    30A     -0.552355
      31A     -0.532837    32A     -0.517244    33A     -0.468516
      34A     -0.434835    35A     -0.410002    36A     -0.393215
      37A     -0.348344

  @DF-RHF Final Energy:  -774.27749349305680

   => Energetics <=

    Nuclear Repulsion Energy =            504.8454438885768809
    One-Electron Energy =               -2064.5659681483493841
    Two-Electron Energy =                 785.4430307667156512
    Total Energy =                       -774.2774934930567952
  Basis Set: (AUG-CC-PVTZ AUX)
    Blend: AUG-CC-PVTZ-RI
    Molecular point group: c1

    Geometry (in Angstrom), charge = 0, multiplicity = 1:

       Center              X                  Y                   Z               Mass
    ------------   -----------------  -----------------  -----------------  -----------------
         S            1.503700884024    -1.053108500939     0.000000943522    31.972071174400
         O           -1.471594115976    -1.531534500939    -0.000001056478    15.994914619570
         N           -2.060631115976     0.701419499061    -0.000000056478    14.003074004430
         N            0.633540884024     1.381966499061    -0.000001056478    14.003074004430
         C            0.244045484024     0.136517799061    -0.000000056478    12.000000000000
         C           -1.181282115976    -0.328666500939    -0.000001056478    12.000000000000
         C           -3.494473115976     0.492863499061     0.000000943522    12.000000000000
         C            2.643942884024     0.223473499061    -0.000000056478    12.000000000000
         C            1.998941884024     1.442233499061    -0.000000056478    12.000000000000
         H           -1.666129115976     1.635892499061     0.000000943522     1.007825032230
         H           -3.952293115976     0.931334499061    -0.891194056478     1.007825032230
         H           -3.952291115976     0.931326499061     0.891200943522     1.007825032230
         H           -3.665243115976    -0.583501500939    -0.000003056478     1.007825032230
         H            3.709109884024     0.031312499061     0.000000943522     1.007825032230
         H            2.493026884024     2.407693499061    -0.000000056478     1.007825032230

  Basis Set: AUG-CC-PVTZ
    Blend: AUG-CC-PVTZ
  Basis Set: (AUG-CC-PVTZ AUX)
    Blend: AUG-CC-PVTZ-JKFIT
	 Reference Energy          =    -774.2774934930567952 [Eh]
	 Singles Energy            =      -0.0000000000000000 [Eh]
	 Same-Spin Energy          =      -0.4582952994887023 [Eh]
	 Opposite-Spin Energy      =      -1.3683224855388758 [Eh]
	 Correlation Energy        =      -1.8266177850275782 [Eh]
	 Total Energy              =    -776.1041112780843605 [Eh]

	 ================> DF-SCS-MP2 Energies <==================
	-----------------------------------------------------------
	 SCS Same-Spin Scale       =       0.3333333333333333 [-]
	 SCS Opposite-Spin Scale   =       1.2000000000000000 [-]
	 SCS Same-Spin Energy      =      -0.1527650998295674 [Eh]
	 SCS Opposite-Spin Energy  =      -1.6419869826466509 [Eh]
	 SCS Correlation Energy    =      -1.7947520824762182 [Eh]
	 SCS Total Energy          =    -776.0722455755329747 [Eh]
	-----------------------------------------------------------

  Dipole Moment: [D]
     X:     1.0540      Y:     2.4780      Z:     0.0000     Total:     2.6928

*** Psi4 exiting successfully. Buy a developer a beer!
