                               Psi4 1.3.2 release

  ==> Input File <==

--------------------------------------------------------------------------
#psi4
#
memory 32 gb

molecule  {
0 1
  S        1.5094538    -1.1306156     0.0000010
  O       -1.4242190    -1.5655850    -0.0000010
  N       -2.0132560     0.6673690     0.0000000
  N        0.6809160     1.3479160    -0.0000010
  C        0.2854510     0.0833790     0.0000000
  C       -1.1339070    -0.3627170    -0.0000010
  C       -3.4470980     0.4588130     0.0000010
  C        2.6913180     0.1894230     0.0000000
  C        2.0463170     1.4081830     0.0000000
  H       -1.6187540     1.6018420     0.0000010
  H       -3.9049180     0.8972840    -0.8911940
  H       -3.9049160     0.8972760     0.8912010
  H       -3.6178680    -0.6175520    -0.0000030
  H        3.7564850    -0.0027380     0.0000010
  H        2.5404020     2.3736430     0.0000000
units angstrom
no_reorient  #important for SAPT in psi4, default
symmetry c1  #important for SAPT in psi4, default
}

set PROPERTIES_ORIGIN ["COM"]
properties('MP2/aug-cc-pvtz', properties = ['dipole'])
--------------------------------------------------------------------------

    Molecular point group: c1
  Charge       = 0
  Multiplicity = 1
  Basis Set: AUG-CC-PVTZ
    Blend: AUG-CC-PVTZ
  Basis Set: (AUG-CC-PVTZ AUX)
    Blend: AUG-CC-PVTZ-JKFIT

    Orbital Energies [Eh]
    ---------------------

    Doubly Occupied:

       1A    -92.014063     2A    -20.530246     3A    -15.596909
       4A    -15.594238     5A    -11.369249     6A    -11.327011
       7A    -11.287181     8A    -11.285834     9A    -11.263991
      10A     -9.012747    11A     -6.693417    12A     -6.692770
      13A     -6.692243    14A     -1.385210    15A     -1.293798
      16A     -1.238160    17A     -1.069578    18A     -1.037736
      19A     -0.960374    20A     -0.847878    21A     -0.806025
      22A     -0.777291    23A     -0.714080    24A     -0.655679
      25A     -0.649453    26A     -0.633826    27A     -0.600791
      28A     -0.582585    29A     -0.564332    30A     -0.552410
      31A     -0.530965    32A     -0.513958    33A     -0.467437
      34A     -0.437000    35A     -0.406797    36A     -0.391275
      37A     -0.350295

  @DF-RHF Final Energy:  -774.27373860178159

   => Energetics <=

    Nuclear Repulsion Energy =            503.7681325164562622
    One-Electron Energy =               -2062.4300794929290532
    Two-Electron Energy =                 784.3882083746912031
    Total Energy =                       -774.2737386017815879
  Basis Set: (AUG-CC-PVTZ AUX)
    Blend: AUG-CC-PVTZ-RI
    Molecular point group: c1

    Geometry (in Angstrom), charge = 0, multiplicity = 1:

       Center              X                  Y                   Z               Mass
    ------------   -----------------  -----------------  -----------------  -----------------
         S            1.471953225014    -1.085169127478     0.000000943522    31.972071174400
         O           -1.461719574986    -1.520138527478    -0.000001056478    15.994914619570
         N           -2.050756574986     0.712815472522    -0.000000056478    14.003074004430
         N            0.643415425014     1.393362472522    -0.000001056478    14.003074004430
         C            0.247950425014     0.128825472522    -0.000000056478    12.000000000000
         C           -1.171407574986    -0.317270527478    -0.000001056478    12.000000000000
         C           -3.484598574986     0.504259472522     0.000000943522    12.000000000000
         C            2.653817425014     0.234869472522    -0.000000056478    12.000000000000
         C            2.008816425014     1.453629472522    -0.000000056478    12.000000000000
         H           -1.656254574986     1.647288472522     0.000000943522     1.007825032230
         H           -3.942418574986     0.942730472522    -0.891194056478     1.007825032230
         H           -3.942416574986     0.942722472522     0.891200943522     1.007825032230
         H           -3.655368574986    -0.572105527478    -0.000003056478     1.007825032230
         H            3.718984425014     0.042708472522     0.000000943522     1.007825032230
         H            2.502901425014     2.419089472522    -0.000000056478     1.007825032230

  Basis Set: AUG-CC-PVTZ
    Blend: AUG-CC-PVTZ
  Basis Set: (AUG-CC-PVTZ AUX)
    Blend: AUG-CC-PVTZ-JKFIT
	 Reference Energy          =    -774.2737386017815879 [Eh]
	 Singles Energy            =      -0.0000000000000000 [Eh]
	 Same-Spin Energy          =      -0.4584219866849830 [Eh]
	 Opposite-Spin Energy      =      -1.3698752542120782 [Eh]
	 Correlation Energy        =      -1.8282972408970612 [Eh]
	 Total Energy              =    -776.1020358426786743 [Eh]

	 ================> DF-SCS-MP2 Energies <==================
	-----------------------------------------------------------
	 SCS Same-Spin Scale       =       0.3333333333333333 [-]
	 SCS Opposite-Spin Scale   =       1.2000000000000000 [-]
	 SCS Same-Spin Energy      =      -0.1528073288949943 [Eh]
	 SCS Opposite-Spin Energy  =      -1.6438503050544939 [Eh]
	 SCS Correlation Energy    =      -1.7966576339494882 [Eh]
	 SCS Total Energy          =    -776.0703962357310957 [Eh]
	-----------------------------------------------------------

  Dipole Moment: [D]
     X:     1.0502      Y:     2.4527      Z:     0.0000     Total:     2.6681

*** Psi4 exiting successfully. Buy a developer a beer!
