                               Psi4 1.3.2 release

  ==> Input File <==

--------------------------------------------------------------------------
#psi4
#
memory 32 gb

molecule  {
0 1
  S        1.5510760    -1.0871590     0.0000010
  O       -1.4242190    -1.5655850    -0.0000010
  N       -2.0132560     0.6673690     0.0000000
  N        0.6809160     1.3479160    -0.0000010
  C        0.2854510     0.0833790     0.0000000
  C       -1.1339070    -0.3627170    -0.0000010
  C       -3.4470980     0.4588130     0.0000010
  C        2.6913180     0.1894230     0.0000000
  C        2.0463170     1.4081830     0.0000000
  H       -1.6187540     1.6018420     0.0000010
  H       -3.9049180     0.8972840    -0.8911940
  H       -3.9049160     0.8972760     0.8912010
  H       -3.6178680    -0.6175520    -0.0000030
  H        3.8548964    -0.0204919     0.0000011
  H        2.5404020     2.3736430     0.0000000
units angstrom
no_reorient  #important for SAPT in psi4, default
symmetry c1  #important for SAPT in psi4, default
}

set PROPERTIES_ORIGIN ["COM"]
properties('MP2/aug-cc-pvtz', properties = ['dipole'])
--------------------------------------------------------------------------

    Molecular point group: c1
  Charge       = 0
  Multiplicity = 1
  Basis Set: AUG-CC-PVTZ
    Blend: AUG-CC-PVTZ
  Basis Set: (AUG-CC-PVTZ AUX)
    Blend: AUG-CC-PVTZ-JKFIT

    Orbital Energies [Eh]
    ---------------------

    Doubly Occupied:

       1A    -92.013460     2A    -20.529296     3A    -15.597513
       4A    -15.593913     5A    -11.369458     6A    -11.324693
       7A    -11.292940     8A    -11.285172     9A    -11.263818
      10A     -9.013299    11A     -6.693992    12A     -6.693469
      13A     -6.692832    14A     -1.384303    15A     -1.296453
      16A     -1.238040    17A     -1.079429    18A     -1.035386
      19A     -0.959066    20A     -0.847246    21A     -0.796774
      22A     -0.777689    23A     -0.712327    24A     -0.655646
      25A     -0.645994    26A     -0.633711    27A     -0.597094
      28A     -0.584683    29A     -0.558900    30A     -0.552010
      31A     -0.532326    32A     -0.518216    33A     -0.466507
      34A     -0.436829    35A     -0.408778    36A     -0.392664
      37A     -0.348615

  @DF-RHF Final Energy:  -774.26890262691052

   => Energetics <=

    Nuclear Repulsion Energy =            504.3084592933046224
    One-Electron Energy =               -2063.5096384428316014
    Two-Electron Energy =                 784.9322765226164620
    Total Energy =                       -774.2689026269105170
  Basis Set: (AUG-CC-PVTZ AUX)
    Blend: AUG-CC-PVTZ-RI
    Molecular point group: c1

    Geometry (in Angstrom), charge = 0, multiplicity = 1:

       Center              X                  Y                   Z               Mass
    ------------   -----------------  -----------------  -----------------  -----------------
         S            1.503506923623    -1.051369645294     0.000000942812    31.972071174400
         O           -1.471788076377    -1.529795645294    -0.000001057188    15.994914619570
         N           -2.060825076377     0.703158354706    -0.000000057188    14.003074004430
         N            0.633346923623     1.383705354706    -0.000001057188    14.003074004430
         C            0.237881923623     0.119168354706    -0.000000057188    12.000000000000
         C           -1.181476076377    -0.326927645294    -0.000001057188    12.000000000000
         C           -3.494667076377     0.494602354706     0.000000942812    12.000000000000
         C            2.643748923623     0.225212354706    -0.000000057188    12.000000000000
         C            1.998747923623     1.443972354706    -0.000000057188    12.000000000000
         H           -1.666323076377     1.637631354706     0.000000942812     1.007825032230
         H           -3.952487076377     0.933073354706    -0.891194057188     1.007825032230
         H           -3.952485076377     0.933065354706     0.891200942812     1.007825032230
         H           -3.665437076377    -0.581762645294    -0.000003057188     1.007825032230
         H            3.807327323623     0.015297454706     0.000001042812     1.007825032230
         H            2.492832923623     2.409432354706    -0.000000057188     1.007825032230

  Basis Set: AUG-CC-PVTZ
    Blend: AUG-CC-PVTZ
  Basis Set: (AUG-CC-PVTZ AUX)
    Blend: AUG-CC-PVTZ-JKFIT
	 Reference Energy          =    -774.2689026269105170 [Eh]
	 Singles Energy            =      -0.0000000000000000 [Eh]
	 Same-Spin Energy          =      -0.4591092310065065 [Eh]
	 Opposite-Spin Energy      =      -1.3698517500266960 [Eh]
	 Correlation Energy        =      -1.8289609810332026 [Eh]
	 Total Energy              =    -776.0978636079437365 [Eh]

	 ================> DF-SCS-MP2 Energies <==================
	-----------------------------------------------------------
	 SCS Same-Spin Scale       =       0.3333333333333333 [-]
	 SCS Opposite-Spin Scale   =       1.2000000000000000 [-]
	 SCS Same-Spin Energy      =      -0.1530364103355022 [Eh]
	 SCS Opposite-Spin Energy  =      -1.6438221000320352 [Eh]
	 SCS Correlation Energy    =      -1.7968585103675374 [Eh]
	 SCS Total Energy          =    -776.0657611372780593 [Eh]
	-----------------------------------------------------------

  Dipole Moment: [D]
     X:     1.1356      Y:     2.4433      Z:     0.0000     Total:     2.6943

*** Psi4 exiting successfully. Buy a developer a beer!
