                               Psi4 1.3.2 release

  ==> Input File <==

--------------------------------------------------------------------------
#psi4
#
memory 32 gb

molecule  {
0 1
  S        1.5510760    -1.0871590     0.0000010
  O       -1.4242190    -1.5655850    -0.0000010
  N       -2.0132560     0.6673690     0.0000000
  N        0.6809160     1.3479160    -0.0000010
  C        0.2854510     0.0833790     0.0000000
  C       -1.1339070    -0.3627170    -0.0000010
  C       -3.4470980     0.4588130     0.0000010
  C        2.6913180     0.1894230     0.0000000
  C        2.0041758     1.3849304    -0.0000001
  H       -1.6187540     1.6018420     0.0000010
  H       -3.9049180     0.8972840    -0.8911940
  H       -3.9049160     0.8972760     0.8912010
  H       -3.6178680    -0.6175520    -0.0000030
  H        3.7564850    -0.0027380     0.0000010
  H        2.5404020     2.3736430     0.0000000
units angstrom
no_reorient  #important for SAPT in psi4, default
symmetry c1  #important for SAPT in psi4, default
}

set PROPERTIES_ORIGIN ["COM"]
properties('MP2/aug-cc-pvtz', properties = ['dipole'])
--------------------------------------------------------------------------

    Molecular point group: c1
  Charge       = 0
  Multiplicity = 1
  Basis Set: AUG-CC-PVTZ
    Blend: AUG-CC-PVTZ
  Basis Set: (AUG-CC-PVTZ AUX)
    Blend: AUG-CC-PVTZ-JKFIT

    Orbital Energies [Eh]
    ---------------------

    Doubly Occupied:

       1A    -92.014206     2A    -20.528471     3A    -15.595108
       4A    -15.593922     5A    -11.368854     6A    -11.324465
       7A    -11.284821     8A    -11.281363     9A    -11.263797
      10A     -9.013969    11A     -6.694621    12A     -6.694157
      13A     -6.693559    14A     -1.383897    15A     -1.308693
      16A     -1.238425    17A     -1.085294    18A     -1.036258
      19A     -0.958678    20A     -0.847774    21A     -0.805093
      22A     -0.776924    23A     -0.723484    24A     -0.652432
      25A     -0.648782    26A     -0.634097    27A     -0.600368
      28A     -0.588678    29A     -0.569588    30A     -0.552019
      31A     -0.533863    32A     -0.509776    33A     -0.467794
      34A     -0.437789    35A     -0.411015    36A     -0.394083
      37A     -0.345823

  @DF-RHF Final Energy:  -774.27340711076192

   => Energetics <=

    Nuclear Repulsion Energy =            505.9128277497794102
    One-Electron Energy =               -2066.6485832890948586
    Two-Electron Energy =                 786.4623484285535824
    Total Energy =                       -774.2734071107619229
  Basis Set: (AUG-CC-PVTZ AUX)
    Blend: AUG-CC-PVTZ-RI
    Molecular point group: c1

    Geometry (in Angstrom), charge = 0, multiplicity = 1:

       Center              X                  Y                   Z               Mass
    ------------   -----------------  -----------------  -----------------  -----------------
         S            1.507766010474    -1.049530902717     0.000000951971    31.972071174400
         O           -1.467528989526    -1.527956902717    -0.000001048029    15.994914619570
         N           -2.056565989526     0.704997097283    -0.000000048029    14.003074004430
         N            0.637606010474     1.385544097283    -0.000001048029    14.003074004430
         C            0.242141010474     0.121007097283    -0.000000048029    12.000000000000
         C           -1.177216989526    -0.325088902717    -0.000001048029    12.000000000000
         C           -3.490407989526     0.496441097283     0.000000951971    12.000000000000
         C            2.648008010474     0.227051097283    -0.000000048029    12.000000000000
         C            1.960865810474     1.422558497283    -0.000000148029    12.000000000000
         H           -1.662063989526     1.639470097283     0.000000951971     1.007825032230
         H           -3.948227989526     0.934912097283    -0.891194048029     1.007825032230
         H           -3.948225989526     0.934904097283     0.891200951971     1.007825032230
         H           -3.661177989526    -0.579923902717    -0.000003048029     1.007825032230
         H            3.713175010474     0.034890097283     0.000000951971     1.007825032230
         H            2.497092010474     2.411271097283    -0.000000048029     1.007825032230

  Basis Set: AUG-CC-PVTZ
    Blend: AUG-CC-PVTZ
  Basis Set: (AUG-CC-PVTZ AUX)
    Blend: AUG-CC-PVTZ-JKFIT
	 Reference Energy          =    -774.2734071107619229 [Eh]
	 Singles Energy            =      -0.0000000000000000 [Eh]
	 Same-Spin Energy          =      -0.4595450979328698 [Eh]
	 Opposite-Spin Energy      =      -1.3691114427076247 [Eh]
	 Correlation Energy        =      -1.8286565406404947 [Eh]
	 Total Energy              =    -776.1020636514024318 [Eh]

	 ================> DF-SCS-MP2 Energies <==================
	-----------------------------------------------------------
	 SCS Same-Spin Scale       =       0.3333333333333333 [-]
	 SCS Opposite-Spin Scale   =       1.2000000000000000 [-]
	 SCS Same-Spin Energy      =      -0.1531816993109566 [Eh]
	 SCS Opposite-Spin Energy  =      -1.6429337312491497 [Eh]
	 SCS Correlation Energy    =      -1.7961154305601061 [Eh]
	 SCS Total Energy          =    -776.0695225413220442 [Eh]
	-----------------------------------------------------------

  Dipole Moment: [D]
     X:     1.1301      Y:     2.4162      Z:     0.0000     Total:     2.6674

*** Psi4 exiting successfully. Buy a developer a beer!
