                               Psi4 1.3.2 release

  ==> Input File <==

--------------------------------------------------------------------------
#psi4
#
memory 32 gb

molecule  {
0 1
  S        1.5510760    -1.0871590     0.0000010
  O       -1.4242190    -1.5655850    -0.0000010
  N       -2.0132560     0.6673690     0.0000000
  N        0.6809160     1.3479160    -0.0000010
  C        0.1386216     0.2191771    -0.0000001
  C       -1.1339070    -0.3627170    -0.0000010
  C       -3.4470980     0.4588130     0.0000010
  C        2.6913180     0.1894230     0.0000000
  C        2.0463170     1.4081830     0.0000000
  H       -1.6187540     1.6018420     0.0000010
  H       -3.9049180     0.8972840    -0.8911940
  H       -3.9049160     0.8972760     0.8912010
  H       -3.6178680    -0.6175520    -0.0000030
  H        3.7564850    -0.0027380     0.0000010
  H        2.5404020     2.3736430     0.0000000
units angstrom
no_reorient  #important for SAPT in psi4, default
symmetry c1  #important for SAPT in psi4, default
}

set PROPERTIES_ORIGIN ["COM"]
properties('MP2/aug-cc-pvtz', properties = ['dipole'])
--------------------------------------------------------------------------

    Molecular point group: c1
  Charge       = 0
  Multiplicity = 1
  Basis Set: AUG-CC-PVTZ
    Blend: AUG-CC-PVTZ
  Basis Set: (AUG-CC-PVTZ AUX)
    Blend: AUG-CC-PVTZ-JKFIT

    Orbital Energies [Eh]
    ---------------------

    Doubly Occupied:

       1A    -91.992445     2A    -20.537047     3A    -15.606439
       4A    -15.598250     5A    -11.372322     6A    -11.332492
       7A    -11.291786     8A    -11.284963     9A    -11.265949
      10A     -8.991046    11A     -6.671774    12A     -6.670875
      13A     -6.670519    14A     -1.392261    15A     -1.313434
      16A     -1.247461    17A     -1.080579    18A     -1.039864
      19A     -0.962349    20A     -0.868886    21A     -0.816133
      22A     -0.781910    23A     -0.714636    24A     -0.665950
      25A     -0.657158    26A     -0.642609    27A     -0.616806
      28A     -0.589549    29A     -0.556062    30A     -0.555463
      31A     -0.534827    32A     -0.508178    33A     -0.463173
      34A     -0.417714    35A     -0.414955    36A     -0.397075
      37A     -0.338948

  @DF-RHF Final Energy:  -774.24325440829489

   => Energetics <=

    Nuclear Repulsion Energy =            504.0625314475794312
    One-Electron Energy =               -2062.8878007553271345
    Two-Electron Energy =                 784.5820148994528154
    Total Energy =                       -774.2432544082948880
  Basis Set: (AUG-CC-PVTZ AUX)
    Blend: AUG-CC-PVTZ-RI
    Molecular point group: c1

    Geometry (in Angstrom), charge = 0, multiplicity = 1:

       Center              X                  Y                   Z               Mass
    ------------   -----------------  -----------------  -----------------  -----------------
         S            1.516611649518    -1.062969906176     0.000000951971    31.972071174400
         O           -1.458683350482    -1.541395906176    -0.000001048029    15.994914619570
         N           -2.047720350482     0.691558093824    -0.000000048029    14.003074004430
         N            0.646451649518     1.372105093824    -0.000001048029    14.003074004430
         C            0.104157249518     0.243366193824    -0.000000148029    12.000000000000
         C           -1.168371350482    -0.338527906176    -0.000001048029    12.000000000000
         C           -3.481562350482     0.483002093824     0.000000951971    12.000000000000
         C            2.656853649518     0.213612093824    -0.000000048029    12.000000000000
         C            2.011852649518     1.432372093824    -0.000000048029    12.000000000000
         H           -1.653218350482     1.626031093824     0.000000951971     1.007825032230
         H           -3.939382350482     0.921473093824    -0.891194048029     1.007825032230
         H           -3.939380350482     0.921465093824     0.891200951971     1.007825032230
         H           -3.652332350482    -0.593362906176    -0.000003048029     1.007825032230
         H            3.722020649518     0.021451093824     0.000000951971     1.007825032230
         H            2.505937649518     2.397832093824    -0.000000048029     1.007825032230

  Basis Set: AUG-CC-PVTZ
    Blend: AUG-CC-PVTZ
  Basis Set: (AUG-CC-PVTZ AUX)
    Blend: AUG-CC-PVTZ-JKFIT
	 Reference Energy          =    -774.2432544082948880 [Eh]
	 Singles Energy            =      -0.0000000000000000 [Eh]
	 Same-Spin Energy          =      -0.4603751723309255 [Eh]
	 Opposite-Spin Energy      =      -1.3722626901262347 [Eh]
	 Correlation Energy        =      -1.8326378624571602 [Eh]
	 Total Energy              =    -776.0758922707520924 [Eh]

	 ================> DF-SCS-MP2 Energies <==================
	-----------------------------------------------------------
	 SCS Same-Spin Scale       =       0.3333333333333333 [-]
	 SCS Opposite-Spin Scale   =       1.2000000000000000 [-]
	 SCS Same-Spin Energy      =      -0.1534583907769752 [Eh]
	 SCS Opposite-Spin Energy  =      -1.6467152281514816 [Eh]
	 SCS Correlation Energy    =      -1.8001736189284567 [Eh]
	 SCS Total Energy          =    -776.0434280272233991 [Eh]
	-----------------------------------------------------------

  Dipole Moment: [D]
     X:     0.5534      Y:     3.0499      Z:     0.0000     Total:     3.0997

*** Psi4 exiting successfully. Buy a developer a beer!
