                               Psi4 1.3.2 release

  ==> Input File <==

--------------------------------------------------------------------------
#psi4
#
memory 32 gb

molecule  {
0 1
  S        1.5510760    -1.0871590     0.0000010
  O       -1.4242190    -1.5655850    -0.0000010
  N       -2.0132560     0.6673690     0.0000000
  N        0.6809160     1.3479160    -0.0000010
  C        0.3298236     0.0703478     0.0000000
  C       -1.1339070    -0.3627170    -0.0000010
  C       -3.4470980     0.4588130     0.0000010
  C        2.6913180     0.1894230     0.0000000
  C        2.0463170     1.4081830     0.0000000
  H       -1.6187540     1.6018420     0.0000010
  H       -3.9049180     0.8972840    -0.8911940
  H       -3.9049160     0.8972760     0.8912010
  H       -3.6178680    -0.6175520    -0.0000030
  H        3.7564850    -0.0027380     0.0000010
  H        2.5404020     2.3736430     0.0000000
units angstrom
no_reorient  #important for SAPT in psi4, default
symmetry c1  #important for SAPT in psi4, default
}

set PROPERTIES_ORIGIN ["COM"]
properties('MP2/aug-cc-pvtz', properties = ['dipole'])
--------------------------------------------------------------------------

    Molecular point group: c1
  Charge       = 0
  Multiplicity = 1
  Basis Set: AUG-CC-PVTZ
    Blend: AUG-CC-PVTZ
  Basis Set: (AUG-CC-PVTZ AUX)
    Blend: AUG-CC-PVTZ-JKFIT

    Orbital Energies [Eh]
    ---------------------

    Doubly Occupied:

       1A    -92.014156     2A    -20.528397     3A    -15.594148
       4A    -15.593709     5A    -11.370391     6A    -11.323170
       7A    -11.284606     8A    -11.279879     9A    -11.263714
      10A     -9.014942    11A     -6.695706    12A     -6.695117
      13A     -6.694445    14A     -1.382506    15A     -1.298459
      16A     -1.237008    17A     -1.086192    18A     -1.032479
      19A     -0.959265    20A     -0.840155    21A     -0.804948
      22A     -0.776587    23A     -0.719869    24A     -0.653064
      25A     -0.649198    26A     -0.632393    27A     -0.596035
      28A     -0.585793    29A     -0.568430    30A     -0.551813
      31A     -0.532422    32A     -0.519529    33A     -0.470645
      34A     -0.434755    35A     -0.408365    36A     -0.392460
      37A     -0.349791

  @DF-RHF Final Energy:  -774.27529528336447

   => Energetics <=

    Nuclear Repulsion Energy =            505.1115647677295328
    One-Electron Energy =               -2065.1046389380162509
    Two-Electron Energy =                 785.7177788869222468
    Total Energy =                       -774.2752952833644713
  Basis Set: (AUG-CC-PVTZ AUX)
    Blend: AUG-CC-PVTZ-RI
    Molecular point group: c1

    Geometry (in Angstrom), charge = 0, multiplicity = 1:

       Center              X                  Y                   Z               Mass
    ------------   -----------------  -----------------  -----------------  -----------------
         S            1.500456019023    -1.050394560846     0.000000943522    31.972071174400
         O           -1.474838980977    -1.528820560846    -0.000001056478    15.994914619570
         N           -2.063875980977     0.704133439154    -0.000000056478    14.003074004430
         N            0.630296019023     1.384680439154    -0.000001056478    14.003074004430
         C            0.279203619023     0.107112239154    -0.000000056478    12.000000000000
         C           -1.184526980977    -0.325952560846    -0.000001056478    12.000000000000
         C           -3.497717980977     0.495577439154     0.000000943522    12.000000000000
         C            2.640698019023     0.226187439154    -0.000000056478    12.000000000000
         C            1.995697019023     1.444947439154    -0.000000056478    12.000000000000
         H           -1.669373980977     1.638606439154     0.000000943522     1.007825032230
         H           -3.955537980977     0.934048439154    -0.891194056478     1.007825032230
         H           -3.955535980977     0.934040439154     0.891200943522     1.007825032230
         H           -3.668487980977    -0.580787560846    -0.000003056478     1.007825032230
         H            3.705865019023     0.034026439154     0.000000943522     1.007825032230
         H            2.489782019023     2.410407439154    -0.000000056478     1.007825032230

  Basis Set: AUG-CC-PVTZ
    Blend: AUG-CC-PVTZ
  Basis Set: (AUG-CC-PVTZ AUX)
    Blend: AUG-CC-PVTZ-JKFIT
	 Reference Energy          =    -774.2752952833644713 [Eh]
	 Singles Energy            =      -0.0000000000000000 [Eh]
	 Same-Spin Energy          =      -0.4585457759372832 [Eh]
	 Opposite-Spin Energy      =      -1.3684457359330644 [Eh]
	 Correlation Energy        =      -1.8269915118703475 [Eh]
	 Total Energy              =    -776.1022867952348179 [Eh]

	 ================> DF-SCS-MP2 Energies <==================
	-----------------------------------------------------------
	 SCS Same-Spin Scale       =       0.3333333333333333 [-]
	 SCS Opposite-Spin Scale   =       1.2000000000000000 [-]
	 SCS Same-Spin Energy      =      -0.1528485919790944 [Eh]
	 SCS Opposite-Spin Energy  =      -1.6421348831196771 [Eh]
	 SCS Correlation Energy    =      -1.7949834750987717 [Eh]
	 SCS Total Energy          =    -776.0702787584632460 [Eh]
	-----------------------------------------------------------

  Dipole Moment: [D]
     X:     1.1388      Y:     2.3590      Z:     0.0000     Total:     2.6195

*** Psi4 exiting successfully. Buy a developer a beer!
