                               Psi4 1.3.2 release

  ==> Input File <==

--------------------------------------------------------------------------
#psi4
#
memory 32 gb

molecule  {
0 1
  S        1.5510760    -1.0871590     0.0000010
  O       -1.4242190    -1.5655850    -0.0000010
  N       -2.0132560     0.6673690     0.0000000
  N        0.6809160     1.3479160    -0.0000010
  C        0.2854510     0.0833790     0.0000000
  C       -1.1339070    -0.3627170    -0.0000010
  C       -3.4470980     0.4588130     0.0000010
  C        2.6913180     0.1894230     0.0000000
  C        1.8465115     1.3993639    -0.0000001
  H       -1.6187540     1.6018420     0.0000010
  H       -3.9049180     0.8972840    -0.8911940
  H       -3.9049160     0.8972760     0.8912010
  H       -3.6178680    -0.6175520    -0.0000030
  H        3.7564850    -0.0027380     0.0000010
  H        2.5404020     2.3736430     0.0000000
units angstrom
no_reorient  #important for SAPT in psi4, default
symmetry c1  #important for SAPT in psi4, default
}

set PROPERTIES_ORIGIN ["COM"]
properties('MP2/aug-cc-pvtz', properties = ['dipole'])
--------------------------------------------------------------------------

    Molecular point group: c1
  Charge       = 0
  Multiplicity = 1
  Basis Set: AUG-CC-PVTZ
    Blend: AUG-CC-PVTZ
  Basis Set: (AUG-CC-PVTZ AUX)
    Blend: AUG-CC-PVTZ-JKFIT

    Orbital Energies [Eh]
    ---------------------

    Doubly Occupied:

       1A    -92.026925     2A    -20.522150     3A    -15.591238
       4A    -15.585669     5A    -11.364511     6A    -11.317972
       7A    -11.289493     8A    -11.288630     9A    -11.262100
      10A     -9.025215    11A     -6.705628    12A     -6.705346
      13A     -6.705045    14A     -1.382503    15A     -1.358207
      16A     -1.236612    17A     -1.100206    18A     -1.030113
      19A     -0.949904    20A     -0.843357    21A     -0.814641
      22A     -0.771476    23A     -0.735198    24A     -0.653612
      25A     -0.643018    26A     -0.636252    27A     -0.611038
      28A     -0.605460    29A     -0.566603    30A     -0.549778
      31A     -0.536162    32A     -0.502480    33A     -0.447690
      34A     -0.435577    35A     -0.428537    36A     -0.395444
      37A     -0.323967

  @DF-RHF Final Energy:  -774.21351869197326

   => Energetics <=

    Nuclear Repulsion Energy =            508.3136746303988502
    One-Electron Energy =               -2071.1588748268541167
    Two-Electron Energy =                 788.6316815044818895
    Total Energy =                       -774.2135186919732632
  Basis Set: (AUG-CC-PVTZ AUX)
    Blend: AUG-CC-PVTZ-RI
    Molecular point group: c1

    Geometry (in Angstrom), charge = 0, multiplicity = 1:

       Center              X                  Y                   Z               Mass
    ------------   -----------------  -----------------  -----------------  -----------------
         S            1.521087869938    -1.050750462621     0.000000951971    31.972071174400
         O           -1.454207130062    -1.529176462621    -0.000001048029    15.994914619570
         N           -2.043244130062     0.703777537379    -0.000000048029    14.003074004430
         N            0.650927869938     1.384324537379    -0.000001048029    14.003074004430
         C            0.255462869938     0.119787537379    -0.000000048029    12.000000000000
         C           -1.163895130062    -0.326308462621    -0.000001048029    12.000000000000
         C           -3.477086130062     0.495221537379     0.000000951971    12.000000000000
         C            2.661329869938     0.225831537379    -0.000000048029    12.000000000000
         C            1.816523369938     1.435772437379    -0.000000148029    12.000000000000
         H           -1.648742130062     1.638250537379     0.000000951971     1.007825032230
         H           -3.934906130062     0.933692537379    -0.891194048029     1.007825032230
         H           -3.934904130062     0.933684537379     0.891200951971     1.007825032230
         H           -3.647856130062    -0.581143462621    -0.000003048029     1.007825032230
         H            3.726496869938     0.033670537379     0.000000951971     1.007825032230
         H            2.510413869938     2.410051537379    -0.000000048029     1.007825032230

  Basis Set: AUG-CC-PVTZ
    Blend: AUG-CC-PVTZ
  Basis Set: (AUG-CC-PVTZ AUX)
    Blend: AUG-CC-PVTZ-JKFIT
	 Reference Energy          =    -774.2135186919732632 [Eh]
	 Singles Energy            =      -0.0000000000000000 [Eh]
	 Same-Spin Energy          =      -0.4634579904165386 [Eh]
	 Opposite-Spin Energy      =      -1.3729542127940773 [Eh]
	 Correlation Energy        =      -1.8364122032106158 [Eh]
	 Total Energy              =    -776.0499308951839339 [Eh]

	 ================> DF-SCS-MP2 Energies <==================
	-----------------------------------------------------------
	 SCS Same-Spin Scale       =       0.3333333333333333 [-]
	 SCS Opposite-Spin Scale   =       1.2000000000000000 [-]
	 SCS Same-Spin Energy      =      -0.1544859968055128 [Eh]
	 SCS Opposite-Spin Energy  =      -1.6475450553528928 [Eh]
	 SCS Correlation Energy    =      -1.8020310521584055 [Eh]
	 SCS Total Energy          =    -776.0155497441317038 [Eh]
	-----------------------------------------------------------

  Dipole Moment: [D]
     X:     1.1031      Y:     2.4507      Z:     0.0000     Total:     2.6875

*** Psi4 exiting successfully. Buy a developer a beer!
