                               Psi4 1.3.2 release

  ==> Input File <==

--------------------------------------------------------------------------
#psi4
#
memory 32 gb

molecule  {
0 1
  S        1.5510760    -1.0871590     0.0000010
  O       -1.4242190    -1.5655850    -0.0000010
  N       -2.0132560     0.6673690     0.0000000
  N        0.7029250     1.3408216    -0.0000010
  C        0.2854510     0.0833790     0.0000000
  C       -1.1339070    -0.3627170    -0.0000010
  C       -3.4470980     0.4588130     0.0000010
  C        2.6913180     0.1894230     0.0000000
  C        2.0463170     1.4081830     0.0000000
  H       -1.6187540     1.6018420     0.0000010
  H       -3.9049180     0.8972840    -0.8911940
  H       -3.9049160     0.8972760     0.8912010
  H       -3.6178680    -0.6175520    -0.0000030
  H        3.7564850    -0.0027380     0.0000010
  H        2.5404020     2.3736430     0.0000000
units angstrom
no_reorient  #important for SAPT in psi4, default
symmetry c1  #important for SAPT in psi4, default
}

set PROPERTIES_ORIGIN ["COM"]
properties('MP2/aug-cc-pvtz', properties = ['dipole'])
--------------------------------------------------------------------------

    Molecular point group: c1
  Charge       = 0
  Multiplicity = 1
  Basis Set: AUG-CC-PVTZ
    Blend: AUG-CC-PVTZ
  Basis Set: (AUG-CC-PVTZ AUX)
    Blend: AUG-CC-PVTZ-JKFIT

    Orbital Energies [Eh]
    ---------------------

    Doubly Occupied:

       1A    -92.012973     2A    -20.529153     3A    -15.594314
       4A    -15.594154     5A    -11.369785     6A    -11.323629
       7A    -11.283136     8A    -11.281727     9A    -11.263909
      10A     -9.012796    11A     -6.693478    12A     -6.692976
      13A     -6.692371    14A     -1.384216    15A     -1.300462
      16A     -1.238431    17A     -1.080361    18A     -1.037735
      19A     -0.960079    20A     -0.848100    21A     -0.806724
      22A     -0.777788    23A     -0.719527    24A     -0.657773
      25A     -0.650640    26A     -0.633845    27A     -0.601496
      28A     -0.585841    29A     -0.567338    30A     -0.552085
      31A     -0.533093    32A     -0.517208    33A     -0.463705
      34A     -0.436355    35A     -0.408644    36A     -0.393173
      37A     -0.347375

  @DF-RHF Final Energy:  -774.27654032727207

   => Energetics <=

    Nuclear Repulsion Energy =            505.1578724526114570
    One-Electron Energy =               -2065.1760313804074940
    Two-Electron Energy =                 785.7416186005240206
    Total Energy =                       -774.2765403272720732
  Basis Set: (AUG-CC-PVTZ AUX)
    Blend: AUG-CC-PVTZ-RI
    Molecular point group: c1

    Geometry (in Angstrom), charge = 0, multiplicity = 1:

       Center              X                  Y                   Z               Mass
    ------------   -----------------  -----------------  -----------------  -----------------
         S            1.502035214992    -1.050796130752     0.000000943522    31.972071174400
         O           -1.473259785008    -1.529222130752    -0.000001056478    15.994914619570
         N           -2.062296785008     0.703731869248    -0.000000056478    14.003074004430
         N            0.653884214992     1.377184469248    -0.000001056478    14.003074004430
         C            0.236410214992     0.119741869248    -0.000000056478    12.000000000000
         C           -1.182947785008    -0.326354130752    -0.000001056478    12.000000000000
         C           -3.496138785008     0.495175869248     0.000000943522    12.000000000000
         C            2.642277214992     0.225785869248    -0.000000056478    12.000000000000
         C            1.997276214992     1.444545869248    -0.000000056478    12.000000000000
         H           -1.667794785008     1.638204869248     0.000000943522     1.007825032230
         H           -3.953958785008     0.933646869248    -0.891194056478     1.007825032230
         H           -3.953956785008     0.933638869248     0.891200943522     1.007825032230
         H           -3.666908785008    -0.581189130752    -0.000003056478     1.007825032230
         H            3.707444214992     0.033624869248     0.000000943522     1.007825032230
         H            2.491361214992     2.410005869248    -0.000000056478     1.007825032230

  Basis Set: AUG-CC-PVTZ
    Blend: AUG-CC-PVTZ
  Basis Set: (AUG-CC-PVTZ AUX)
    Blend: AUG-CC-PVTZ-JKFIT
	 Reference Energy          =    -774.2765403272720732 [Eh]
	 Singles Energy            =      -0.0000000000000000 [Eh]
	 Same-Spin Energy          =      -0.4591396652144955 [Eh]
	 Opposite-Spin Energy      =      -1.3688444540431541 [Eh]
	 Correlation Energy        =      -1.8279841192576496 [Eh]
	 Total Energy              =    -776.1045244465296946 [Eh]

	 ================> DF-SCS-MP2 Energies <==================
	-----------------------------------------------------------
	 SCS Same-Spin Scale       =       0.3333333333333333 [-]
	 SCS Opposite-Spin Scale   =       1.2000000000000000 [-]
	 SCS Same-Spin Energy      =      -0.1530465550714985 [Eh]
	 SCS Opposite-Spin Energy  =      -1.6426133448517850 [Eh]
	 SCS Correlation Energy    =      -1.7956598999232836 [Eh]
	 SCS Total Energy          =    -776.0722002271953670 [Eh]
	-----------------------------------------------------------

  Dipole Moment: [D]
     X:     1.0838      Y:     2.4762      Z:     0.0000     Total:     2.7030

*** Psi4 exiting successfully. Buy a developer a beer!
