                               Psi4 1.3.2 release

  ==> Input File <==

--------------------------------------------------------------------------
#psi4
#
memory 32 gb

molecule  {
0 1
  S        1.5510760    -1.0871590     0.0000010
  O       -1.4451677    -1.5603352    -0.0000010
  N       -2.0132560     0.6673690     0.0000000
  N        0.6809160     1.3479160    -0.0000010
  C        0.2854510     0.0833790     0.0000000
  C       -1.1339070    -0.3627170    -0.0000010
  C       -3.4470980     0.4588130     0.0000010
  C        2.6913180     0.1894230     0.0000000
  C        2.0463170     1.4081830     0.0000000
  H       -1.6187540     1.6018420     0.0000010
  H       -3.9049180     0.8972840    -0.8911940
  H       -3.9049160     0.8972760     0.8912010
  H       -3.6178680    -0.6175520    -0.0000030
  H        3.7564850    -0.0027380     0.0000010
  H        2.5404020     2.3736430     0.0000000
units angstrom
no_reorient  #important for SAPT in psi4, default
symmetry c1  #important for SAPT in psi4, default
}

set PROPERTIES_ORIGIN ["COM"]
properties('MP2/aug-cc-pvtz', properties = ['dipole'])
--------------------------------------------------------------------------

    Molecular point group: c1
  Charge       = 0
  Multiplicity = 1
  Basis Set: AUG-CC-PVTZ
    Blend: AUG-CC-PVTZ
  Basis Set: (AUG-CC-PVTZ AUX)
    Blend: AUG-CC-PVTZ-JKFIT

    Orbital Energies [Eh]
    ---------------------

    Doubly Occupied:

       1A    -92.013535     2A    -20.528636     3A    -15.597795
       4A    -15.592680     5A    -11.369053     6A    -11.325494
       7A    -11.285763     8A    -11.283350     9A    -11.262833
      10A     -9.013442    11A     -6.694147    12A     -6.693618
      13A     -6.692993    14A     -1.384028    15A     -1.296791
      16A     -1.236538    17A     -1.081864    18A     -1.036592
      19A     -0.959373    20A     -0.848251    21A     -0.805671
      22A     -0.776846    23A     -0.719168    24A     -0.655716
      25A     -0.649945    26A     -0.633093    27A     -0.599766
      28A     -0.584529    29A     -0.568175    30A     -0.550951
      31A     -0.532009    32A     -0.518495    33A     -0.466872
      34A     -0.436697    35A     -0.408633    36A     -0.392103
      37A     -0.349149

  @DF-RHF Final Energy:  -774.27642274065738

   => Energetics <=

    Nuclear Repulsion Energy =            504.7158901468441172
    One-Electron Energy =               -2064.2954390193717700
    Two-Electron Energy =                 785.3031261318701581
    Total Energy =                       -774.2764227406573809
  Basis Set: (AUG-CC-PVTZ AUX)
    Blend: AUG-CC-PVTZ-RI
    Molecular point group: c1

    Geometry (in Angstrom), charge = 0, multiplicity = 1:

       Center              X                  Y                   Z               Mass
    ------------   -----------------  -----------------  -----------------  -----------------
         S            1.506564618901    -1.052086888410     0.000000943522    31.972071174400
         O           -1.489679081099    -1.525263088410    -0.000001056478    15.994914619570
         N           -2.057767381099     0.702441111590    -0.000000056478    14.003074004430
         N            0.636404618901     1.382988111590    -0.000001056478    14.003074004430
         C            0.240939618901     0.118451111590    -0.000000056478    12.000000000000
         C           -1.178418381099    -0.327644888410    -0.000001056478    12.000000000000
         C           -3.491609381099     0.493885111590     0.000000943522    12.000000000000
         C            2.646806618901     0.224495111590    -0.000000056478    12.000000000000
         C            2.001805618901     1.443255111590    -0.000000056478    12.000000000000
         H           -1.663265381099     1.636914111590     0.000000943522     1.007825032230
         H           -3.949429381099     0.932356111590    -0.891194056478     1.007825032230
         H           -3.949427381099     0.932348111590     0.891200943522     1.007825032230
         H           -3.662379381099    -0.582479888410    -0.000003056478     1.007825032230
         H            3.711973618901     0.032334111590     0.000000943522     1.007825032230
         H            2.495890618901     2.408715111590    -0.000000056478     1.007825032230

  Basis Set: AUG-CC-PVTZ
    Blend: AUG-CC-PVTZ
  Basis Set: (AUG-CC-PVTZ AUX)
    Blend: AUG-CC-PVTZ-JKFIT
	 Reference Energy          =    -774.2764227406573809 [Eh]
	 Singles Energy            =      -0.0000000000000000 [Eh]
	 Same-Spin Energy          =      -0.4588883325278011 [Eh]
	 Opposite-Spin Energy      =      -1.3691037611499490 [Eh]
	 Correlation Energy        =      -1.8279920936777501 [Eh]
	 Total Energy              =    -776.1044148343351026 [Eh]

	 ================> DF-SCS-MP2 Energies <==================
	-----------------------------------------------------------
	 SCS Same-Spin Scale       =       0.3333333333333333 [-]
	 SCS Opposite-Spin Scale   =       1.2000000000000000 [-]
	 SCS Same-Spin Energy      =      -0.1529627775092670 [Eh]
	 SCS Opposite-Spin Energy  =      -1.6429245133799388 [Eh]
	 SCS Correlation Energy    =      -1.7958872908892058 [Eh]
	 SCS Total Energy          =    -776.0723100315466354 [Eh]
	-----------------------------------------------------------

  Dipole Moment: [D]
     X:     1.2050      Y:     2.4446      Z:     0.0000     Total:     2.7254

*** Psi4 exiting successfully. Buy a developer a beer!
