                               Psi4 1.3.2 release

  ==> Input File <==

--------------------------------------------------------------------------
#psi4
#
memory 32 gb

molecule  {
0 1
  S        1.5510760    -1.0871590     0.0000010
  O       -1.4242190    -1.5655850    -0.0000010
  N       -2.0132560     0.6673690     0.0000000
  N        0.6809160     1.3479160    -0.0000010
  C        0.2854510     0.0833790     0.0000000
  C       -1.1339070    -0.3627170    -0.0000010
  C       -3.4470980     0.4588130     0.0000010
  C        2.6913180     0.1894230     0.0000000
  C        2.0463170     1.4081830     0.0000000
  H       -1.6187540     1.6018420     0.0000010
  H       -3.9049180     0.8972840    -0.8911940
  H       -3.9049160     0.8972760     0.8912010
  H       -3.6178680    -0.6175520    -0.0000030
  H        3.6580736     0.0150159     0.0000009
  H        2.5404020     2.3736430     0.0000000
units angstrom
no_reorient  #important for SAPT in psi4, default
symmetry c1  #important for SAPT in psi4, default
}

set PROPERTIES_ORIGIN ["COM"]
properties('MP2/aug-cc-pvtz', properties = ['dipole'])
--------------------------------------------------------------------------

    Molecular point group: c1
  Charge       = 0
  Multiplicity = 1
  Basis Set: AUG-CC-PVTZ
    Blend: AUG-CC-PVTZ
  Basis Set: (AUG-CC-PVTZ AUX)
    Blend: AUG-CC-PVTZ-JKFIT

    Orbital Energies [Eh]
    ---------------------

    Doubly Occupied:

       1A    -92.012395     2A    -20.529168     3A    -15.596699
       4A    -15.593793     5A    -11.369270     6A    -11.324566
       7A    -11.284880     8A    -11.271989     9A    -11.263730
      10A     -9.012336    11A     -6.693050    12A     -6.692519
      13A     -6.691902    14A     -1.384153    15A     -1.295963
      16A     -1.237917    17A     -1.084183    18A     -1.036853
      19A     -0.961097    20A     -0.850141    21A     -0.816569
      22A     -0.777555    23A     -0.725571    24A     -0.656013
      25A     -0.654476    26A     -0.633562    27A     -0.602515
      28A     -0.584289    29A     -0.573772    30A     -0.552095
      31A     -0.532095    32A     -0.517654    33A     -0.466378
      34A     -0.436623    35A     -0.408544    36A     -0.392459
      37A     -0.348533

  @DF-RHF Final Energy:  -774.27046309036950

   => Energetics <=

    Nuclear Repulsion Energy =            505.4126734757285249
    One-Electron Energy =               -2065.6356541064265002
    Two-Electron Energy =                 785.9525175403284720
    Total Energy =                       -774.2704630903695033
  Basis Set: (AUG-CC-PVTZ AUX)
    Blend: AUG-CC-PVTZ-RI
    Molecular point group: c1

    Geometry (in Angstrom), charge = 0, multiplicity = 1:

       Center              X                  Y                   Z               Mass
    ------------   -----------------  -----------------  -----------------  -----------------
         S            1.504903648221    -1.051621621273     0.000000944231    31.972071174400
         O           -1.470391351779    -1.530047621273    -0.000001055769    15.994914619570
         N           -2.059428351779     0.702906378727    -0.000000055769    14.003074004430
         N            0.634743648221     1.383453378727    -0.000001055769    14.003074004430
         C            0.239278648221     0.118916378727    -0.000000055769    12.000000000000
         C           -1.180079351779    -0.327179621273    -0.000001055769    12.000000000000
         C           -3.493270351779     0.494350378727     0.000000944231    12.000000000000
         C            2.645145648221     0.224960378727    -0.000000055769    12.000000000000
         C            2.000144648221     1.443720378727    -0.000000055769    12.000000000000
         H           -1.664926351779     1.637379378727     0.000000944231     1.007825032230
         H           -3.951090351779     0.932821378727    -0.891194055769     1.007825032230
         H           -3.951088351779     0.932813378727     0.891200944231     1.007825032230
         H           -3.664040351779    -0.582014621273    -0.000003055769     1.007825032230
         H            3.611901248221     0.050553278727     0.000000844231     1.007825032230
         H            2.494229648221     2.409180378727    -0.000000055769     1.007825032230

  Basis Set: AUG-CC-PVTZ
    Blend: AUG-CC-PVTZ
  Basis Set: (AUG-CC-PVTZ AUX)
    Blend: AUG-CC-PVTZ-JKFIT
	 Reference Energy          =    -774.2704630903695033 [Eh]
	 Singles Energy            =      -0.0000000000000000 [Eh]
	 Same-Spin Energy          =      -0.4586538782418854 [Eh]
	 Opposite-Spin Energy      =      -1.3687706315319297 [Eh]
	 Correlation Energy        =      -1.8274245097738151 [Eh]
	 Total Energy              =    -776.0978876001432809 [Eh]

	 ================> DF-SCS-MP2 Energies <==================
	-----------------------------------------------------------
	 SCS Same-Spin Scale       =       0.3333333333333333 [-]
	 SCS Opposite-Spin Scale   =       1.2000000000000000 [-]
	 SCS Same-Spin Energy      =      -0.1528846260806284 [Eh]
	 SCS Opposite-Spin Energy  =      -1.6425247578383155 [Eh]
	 SCS Correlation Energy    =      -1.7954093839189440 [Eh]
	 SCS Total Energy          =    -776.0658724742884260 [Eh]
	-----------------------------------------------------------

  Dipole Moment: [D]
     X:     1.1000      Y:     2.4578      Z:     0.0000     Total:     2.6928

*** Psi4 exiting successfully. Buy a developer a beer!
