                               Psi4 1.4a3.dev225

  ==> Input File <==

--------------------------------------------------------------------------
#psi4
#
memory 32 gb

molecule  {
0 1
  S        1.5510760    -1.0871590     0.0000010
  O       -1.4242190    -1.5655850    -0.0000010
  N       -2.0132560     0.6673690     0.0000000
  N        0.6809160     1.3479160    -0.0000010
  C        0.2854510     0.0833790     0.0000000
  C       -1.1339070    -0.3627170    -0.0000010
  C       -3.4470980     0.4588130     0.0000010
  C        2.6913180     0.1894230     0.0000000
  C        2.0463170     1.4081830     0.0000000
  H       -1.6187540     1.6018420     0.0000010
  H       -3.9049180     0.8972840    -0.8911940
  H       -3.9049160     0.8972760     0.8912010
  H       -3.6178680    -0.6175520    -0.0000030
  H        3.7564850    -0.0027380     0.0000010
  H        2.5495134     2.3914470     0.0000000
units angstrom
no_reorient  #important for SAPT in psi4, default
symmetry c1  #important for SAPT in psi4, default
}

set PROPERTIES_ORIGIN ["COM"]
properties('MP2/aug-cc-pvtz', properties = ['dipole'])
--------------------------------------------------------------------------

    Molecular point group: c1
  Charge       = 0
  Multiplicity = 1
  Basis Set: AUG-CC-PVTZ
    Blend: AUG-CC-PVTZ
  Basis Set: (AUG-CC-PVTZ AUX)
    Blend: AUG-CC-PVTZ-JKFIT

    Orbital Energies [Eh]
    ---------------------

    Doubly Occupied:

       1A    -92.012930     2A    -20.529247     3A    -15.597224
       4A    -15.593859     5A    -11.369385     6A    -11.324679
       7A    -11.287235     8A    -11.282869     9A    -11.263776
      10A     -9.012826    11A     -6.693531    12A     -6.693002
      13A     -6.692375    14A     -1.384241    15A     -1.296218
      16A     -1.237980    17A     -1.081308    18A     -1.035413
      19A     -0.959595    20A     -0.847781    21A     -0.803657
      22A     -0.777346    23A     -0.718433    24A     -0.653587
      25A     -0.650112    26A     -0.633646    27A     -0.598669
      28A     -0.584516    29A     -0.567888    30A     -0.552096
      31A     -0.532225    32A     -0.517128    33A     -0.466370
      34A     -0.436758    35A     -0.408682    36A     -0.392579
      37A     -0.348531

  @DF-RHF Final Energy:  -774.27588404408777

   => Energetics <=

    Nuclear Repulsion Energy =            504.7215130856367296
    One-Electron Energy =               -2064.3194010358056403
    Two-Electron Energy =                 785.3220039060812496
    Total Energy =                       -774.2758840440877748
  Basis Set: (AUG-CC-PVTZ AUX)
    Blend: AUG-CC-PVTZ-RI
    Molecular point group: c1

    Geometry (in Angstrom), charge = 0, multiplicity = 1:

       Center              X                  Y                   Z               Mass
    ------------   -----------------  -----------------  -----------------  -----------------
         S            1.504140628187    -1.051621976800     0.000000943522    31.972071174400
         O           -1.471154371813    -1.530047976800    -0.000001056478    15.994914619570
         N           -2.060191371813     0.702906023200    -0.000000056478    14.003074004430
         N            0.633980628187     1.383453023200    -0.000001056478    14.003074004430
         C            0.238515628187     0.118916023200    -0.000000056478    12.000000000000
         C           -1.180842371813    -0.327179976800    -0.000001056478    12.000000000000
         C           -3.494033371813     0.494350023200     0.000000943522    12.000000000000
         C            2.644382628187     0.224960023200    -0.000000056478    12.000000000000
         C            1.999381628187     1.443720023200    -0.000000056478    12.000000000000
         H           -1.665689371813     1.637379023200     0.000000943522     1.007825032230
         H           -3.951853371813     0.932821023200    -0.891194056478     1.007825032230
         H           -3.951851371813     0.932813023200     0.891200943522     1.007825032230
         H           -3.664803371813    -0.582014976800    -0.000003056478     1.007825032230
         H            3.709549628187     0.032799023200     0.000000943522     1.007825032230
         H            2.502578028187     2.426984023200    -0.000000056478     1.007825032230

  Basis Set: AUG-CC-PVTZ
    Blend: AUG-CC-PVTZ
  Basis Set: (AUG-CC-PVTZ AUX)
    Blend: AUG-CC-PVTZ-JKFIT
	 Reference Energy          =    -774.2758840440877748 [Eh]
	 Singles Energy            =      -0.0000000000000000 [Eh]
	 Same-Spin Energy          =      -0.4588930283813004 [Eh]
	 Opposite-Spin Energy      =      -1.3692075104226245 [Eh]
	 Correlation Energy        =      -1.8281005388039249 [Eh]
	 Total Energy              =    -776.1039845828917123 [Eh]

	 ================> DF-SCS-MP2 Energies <==================
	-----------------------------------------------------------
	 SCS Same-Spin Scale       =       0.3333333333333333 [-]
	 SCS Opposite-Spin Scale   =       1.2000000000000000 [-]
	 SCS Same-Spin Energy      =      -0.1529643427937668 [Eh]
	 SCS Opposite-Spin Energy  =      -1.6430490125071493 [Eh]
	 SCS Correlation Energy    =      -1.7960133553009161 [Eh]
	 SCS Total Energy          =    -776.0718973993887175 [Eh]
	-----------------------------------------------------------

  Dipole Moment: [D]
     X:     1.1182      Y:     2.4491      Z:     0.0000     Total:     2.6923

*** Psi4 exiting successfully. Buy a developer a beer!
