                               Psi4 1.3.2 release

  ==> Input File <==

--------------------------------------------------------------------------
#psi4
#
memory 32 gb

molecule  {
0 1
  S        1.5510760    -1.0871590     0.0000010
  O       -1.4242190    -1.5655850    -0.0000010
  N       -2.0132560     0.6673690     0.0000000
  N        0.6809160     1.3479160    -0.0000010
  C        0.2854510     0.0833790     0.0000000
  C       -1.1339070    -0.3627170    -0.0000010
  C       -3.4470980     0.4588130     0.0000010
  C        2.6247022     0.1148419     0.0000001
  C        2.0463170     1.4081830     0.0000000
  H       -1.6187540     1.6018420     0.0000010
  H       -3.9049180     0.8972840    -0.8911940
  H       -3.9049160     0.8972760     0.8912010
  H       -3.6178680    -0.6175520    -0.0000030
  H        3.7564850    -0.0027380     0.0000010
  H        2.5404020     2.3736430     0.0000000
units angstrom
no_reorient  #important for SAPT in psi4, default
symmetry c1  #important for SAPT in psi4, default
}

set PROPERTIES_ORIGIN ["COM"]
properties('MP2/aug-cc-pvtz', properties = ['dipole'])
--------------------------------------------------------------------------

    Molecular point group: c1
  Charge       = 0
  Multiplicity = 1
  Basis Set: AUG-CC-PVTZ
    Blend: AUG-CC-PVTZ
  Basis Set: (AUG-CC-PVTZ AUX)
    Blend: AUG-CC-PVTZ-JKFIT

    Orbital Energies [Eh]
    ---------------------

    Doubly Occupied:

       1A    -92.016310     2A    -20.525749     3A    -15.597986
       4A    -15.591037     5A    -11.366344     6A    -11.316831
       7A    -11.286680     8A    -11.284968     9A    -11.262018
      10A     -9.018336    11A     -6.699280    12A     -6.698407
      13A     -6.697792    14A     -1.381358    15A     -1.298108
      16A     -1.235757    17A     -1.102498    18A     -1.029118
      19A     -0.954490    20A     -0.844019    21A     -0.799901
      22A     -0.776035    23A     -0.718518    24A     -0.654803
      25A     -0.645148    26A     -0.631988    27A     -0.595717
      28A     -0.586734    29A     -0.565006    30A     -0.549995
      31A     -0.532114    32A     -0.526445    33A     -0.465805
      34A     -0.435412    35A     -0.416320    36A     -0.393394
      37A     -0.337395

  @DF-RHF Final Energy:  -774.26338790529655

   => Energetics <=

    Nuclear Repulsion Energy =            506.7475713393512251
    One-Electron Energy =               -2068.3462914673796149
    Two-Electron Energy =                 787.3353322227318358
    Total Energy =                       -774.2633879052965540
  Basis Set: (AUG-CC-PVTZ AUX)
    Blend: AUG-CC-PVTZ-RI
    Molecular point group: c1

    Geometry (in Angstrom), charge = 0, multiplicity = 1:

       Center              X                  Y                   Z               Mass
    ------------   -----------------  -----------------  -----------------  -----------------
         S            1.509833994042    -1.045193896410     0.000000935072    31.972071174400
         O           -1.465461005958    -1.523619896410    -0.000001064928    15.994914619570
         N           -2.054498005958     0.709334103590    -0.000000064928    14.003074004430
         N            0.639673994042     1.389881103590    -0.000001064928    14.003074004430
         C            0.244208994042     0.125344103590    -0.000000064928    12.000000000000
         C           -1.175149005958    -0.320751896410    -0.000001064928    12.000000000000
         C           -3.488340005958     0.500778103590     0.000000935072    12.000000000000
         C            2.583460194042     0.156807003590     0.000000035072    12.000000000000
         C            2.005074994042     1.450148103590    -0.000000064928    12.000000000000
         H           -1.659996005958     1.643807103590     0.000000935072     1.007825032230
         H           -3.946160005958     0.939249103590    -0.891194064928     1.007825032230
         H           -3.946158005958     0.939241103590     0.891200935072     1.007825032230
         H           -3.659110005958    -0.575586896410    -0.000003064928     1.007825032230
         H            3.715242994042     0.039227103590     0.000000935072     1.007825032230
         H            2.499159994042     2.415608103590    -0.000000064928     1.007825032230

  Basis Set: AUG-CC-PVTZ
    Blend: AUG-CC-PVTZ
  Basis Set: (AUG-CC-PVTZ AUX)
    Blend: AUG-CC-PVTZ-JKFIT
	 Reference Energy          =    -774.2633879052965540 [Eh]
	 Singles Energy            =      -0.0000000000000000 [Eh]
	 Same-Spin Energy          =      -0.4609316881793859 [Eh]
	 Opposite-Spin Energy      =      -1.3703676705253856 [Eh]
	 Correlation Energy        =      -1.8312993587047715 [Eh]
	 Total Energy              =    -776.0946872640013225 [Eh]

	 ================> DF-SCS-MP2 Energies <==================
	-----------------------------------------------------------
	 SCS Same-Spin Scale       =       0.3333333333333333 [-]
	 SCS Opposite-Spin Scale   =       1.2000000000000000 [-]
	 SCS Same-Spin Energy      =      -0.1536438960597953 [Eh]
	 SCS Opposite-Spin Energy  =      -1.6444412046304626 [Eh]
	 SCS Correlation Energy    =      -1.7980851006902578 [Eh]
	 SCS Total Energy          =    -776.0614730059868407 [Eh]
	-----------------------------------------------------------

  Dipole Moment: [D]
     X:     1.2087      Y:     2.3839      Z:     0.0000     Total:     2.6728

*** Psi4 exiting successfully. Buy a developer a beer!
