                               Psi4 1.3.2 release

  ==> Input File <==

--------------------------------------------------------------------------
#psi4
#
memory 32 gb

molecule  {
0 1
  S        1.5510760    -1.0871590     0.0000010
  O       -1.4242190    -1.5655850    -0.0000010
  N       -1.9392588     0.7262000     0.0000001
  N        0.6809160     1.3479160    -0.0000010
  C        0.2854510     0.0833790     0.0000000
  C       -1.1339070    -0.3627170    -0.0000010
  C       -3.4470980     0.4588130     0.0000010
  C        2.6913180     0.1894230     0.0000000
  C        2.0463170     1.4081830     0.0000000
  H       -1.6187540     1.6018420     0.0000010
  H       -3.9049180     0.8972840    -0.8911940
  H       -3.9049160     0.8972760     0.8912010
  H       -3.6178680    -0.6175520    -0.0000030
  H        3.7564850    -0.0027380     0.0000010
  H        2.5404020     2.3736430     0.0000000
units angstrom
no_reorient  #important for SAPT in psi4, default
symmetry c1  #important for SAPT in psi4, default
}

set PROPERTIES_ORIGIN ["COM"]
properties('MP2/aug-cc-pvtz', properties = ['dipole'])
--------------------------------------------------------------------------

    Molecular point group: c1
  Charge       = 0
  Multiplicity = 1
  Basis Set: AUG-CC-PVTZ
    Blend: AUG-CC-PVTZ
  Basis Set: (AUG-CC-PVTZ AUX)
    Blend: AUG-CC-PVTZ-JKFIT

    Orbital Energies [Eh]
    ---------------------

    Doubly Occupied:

       1A    -92.009771     2A    -20.533801     3A    -15.593780
       4A    -15.591055     5A    -11.371648     6A    -11.320377
       7A    -11.282973     8A    -11.280094     9A    -11.271419
      10A     -9.009789    11A     -6.690507    12A     -6.689966
      13A     -6.689353    14A     -1.384719    15A     -1.294523
      16A     -1.237729    17A     -1.078438    18A     -1.031369
      19A     -0.954985    20A     -0.859907    21A     -0.803756
      22A     -0.792089    23A     -0.715677    24A     -0.656726
      25A     -0.637380    26A     -0.628150    27A     -0.599173
      28A     -0.582474    29A     -0.567814    30A     -0.553516
      31A     -0.534453    32A     -0.515643    33A     -0.465118
      34A     -0.435849    35A     -0.412392    36A     -0.394543
      37A     -0.346026

  @DF-RHF Final Energy:  -774.26441554709152

   => Energetics <=

    Nuclear Repulsion Energy =            504.8020538667635719
    One-Electron Energy =               -2064.4989755426290685
    Two-Electron Energy =                 785.4325061287739800
    Total Energy =                       -774.2644155470915166
  Basis Set: (AUG-CC-PVTZ AUX)
    Blend: AUG-CC-PVTZ-RI
    Molecular point group: c1

    Geometry (in Angstrom), charge = 0, multiplicity = 1:

       Center              X                  Y                   Z               Mass
    ------------   -----------------  -----------------  -----------------  -----------------
         S            1.496909217376    -1.057296325858     0.000000933662    31.972071174400
         O           -1.478385782624    -1.535722325858    -0.000001066338    15.994914619570
         N           -1.993425582624     0.756062674142     0.000000033662    14.003074004430
         N            0.626749217376     1.377778674142    -0.000001066338    14.003074004430
         C            0.231284217376     0.113241674142    -0.000000066338    12.000000000000
         C           -1.188073782624    -0.332854325858    -0.000001066338    12.000000000000
         C           -3.501264782624     0.488675674142     0.000000933662    12.000000000000
         C            2.637151217376     0.219285674142    -0.000000066338    12.000000000000
         C            1.992150217376     1.438045674142    -0.000000066338    12.000000000000
         H           -1.672920782624     1.631704674142     0.000000933662     1.007825032230
         H           -3.959084782624     0.927146674142    -0.891194066338     1.007825032230
         H           -3.959082782624     0.927138674142     0.891200933662     1.007825032230
         H           -3.672034782624    -0.587689325858    -0.000003066338     1.007825032230
         H            3.702318217376     0.027124674142     0.000000933662     1.007825032230
         H            2.486235217376     2.403505674142    -0.000000066338     1.007825032230

  Basis Set: AUG-CC-PVTZ
    Blend: AUG-CC-PVTZ
  Basis Set: (AUG-CC-PVTZ AUX)
    Blend: AUG-CC-PVTZ-JKFIT
	 Reference Energy          =    -774.2644155470915166 [Eh]
	 Singles Energy            =      -0.0000000000000000 [Eh]
	 Same-Spin Energy          =      -0.4583745302036726 [Eh]
	 Opposite-Spin Energy      =      -1.3691027974299863 [Eh]
	 Correlation Energy        =      -1.8274773276336589 [Eh]
	 Total Energy              =    -776.0918928747252039 [Eh]

	 ================> DF-SCS-MP2 Energies <==================
	-----------------------------------------------------------
	 SCS Same-Spin Scale       =       0.3333333333333333 [-]
	 SCS Opposite-Spin Scale   =       1.2000000000000000 [-]
	 SCS Same-Spin Energy      =      -0.1527915100678909 [Eh]
	 SCS Opposite-Spin Energy  =      -1.6429233569159836 [Eh]
	 SCS Correlation Energy    =      -1.7957148669838745 [Eh]
	 SCS Total Energy          =    -776.0601304140753882 [Eh]
	-----------------------------------------------------------

  Dipole Moment: [D]
     X:     0.8370      Y:     2.3628      Z:     0.0000     Total:     2.5067

*** Psi4 exiting successfully. Buy a developer a beer!
