                               Psi4 1.4a3.dev225

  ==> Input File <==

--------------------------------------------------------------------------
#psi4
#
memory 32 gb

molecule  {
0 1
  S        1.5510760    -1.0871590     0.0000010
  O       -1.4242190    -1.5655850    -0.0000010
  N       -2.0132560     0.6673690     0.0000000
  N        0.6809160     1.3479160    -0.0000010
  C        0.2854510     0.0833790     0.0000000
  C       -1.1339070    -0.3627170    -0.0000010
  C       -3.4470980     0.4588130     0.0000010
  C        2.6913180     0.1894230     0.0000000
  C        2.0556722     1.3905059     0.0000000
  H       -1.6187540     1.6018420     0.0000010
  H       -3.9049180     0.8972840    -0.8911940
  H       -3.9049160     0.8972760     0.8912010
  H       -3.6178680    -0.6175520    -0.0000030
  H        3.7564850    -0.0027380     0.0000010
  H        2.5404020     2.3736430     0.0000000
units angstrom
no_reorient  #important for SAPT in psi4, default
symmetry c1  #important for SAPT in psi4, default
}

set PROPERTIES_ORIGIN ["COM"]
properties('MP2/aug-cc-pvtz', properties = ['dipole'])
--------------------------------------------------------------------------

    Molecular point group: c1
  Charge       = 0
  Multiplicity = 1
  Basis Set: AUG-CC-PVTZ
    Blend: AUG-CC-PVTZ
  Basis Set: (AUG-CC-PVTZ AUX)
    Blend: AUG-CC-PVTZ-JKFIT

    Orbital Energies [Eh]
    ---------------------

    Doubly Occupied:

       1A    -92.011491     2A    -20.529752     3A    -15.597253
       4A    -15.594240     5A    -11.369695     6A    -11.325327
       7A    -11.283823     8A    -11.280169     9A    -11.264012
      10A     -9.011558    11A     -6.692276    12A     -6.691745
      13A     -6.691083    14A     -1.384641    15A     -1.295607
      16A     -1.238307    17A     -1.082194    18A     -1.036538
      19A     -0.960907    20A     -0.849190    21A     -0.802887
      22A     -0.777853    23A     -0.719799    24A     -0.653202
      25A     -0.650917    26A     -0.633884    27A     -0.597004
      28A     -0.584690    29A     -0.568363    30A     -0.552421
      31A     -0.532704    32A     -0.518115    33A     -0.467234
      34A     -0.436839    35A     -0.408224    36A     -0.392151
      37A     -0.351981

  @DF-RHF Final Energy:  -774.27690325284698

   => Energetics <=

    Nuclear Repulsion Energy =            505.0344494661357544
    One-Electron Energy =               -2064.9465509760148052
    Two-Electron Energy =                 785.6351982570320160
    Total Energy =                       -774.2769032528469779
  Basis Set: (AUG-CC-PVTZ AUX)
    Blend: AUG-CC-PVTZ-RI
    Molecular point group: c1

    Geometry (in Angstrom), charge = 0, multiplicity = 1:

       Center              X                  Y                   Z               Mass
    ------------   -----------------  -----------------  -----------------  -----------------
         S            1.503414817442    -1.050002005100     0.000000943522    31.972071174400
         O           -1.471880182558    -1.528428005100    -0.000001056478    15.994914619570
         N           -2.060917182558     0.704525994900    -0.000000056478    14.003074004430
         N            0.633254817442     1.385072994900    -0.000001056478    14.003074004430
         C            0.237789817442     0.120535994900    -0.000000056478    12.000000000000
         C           -1.181568182558    -0.325560005100    -0.000001056478    12.000000000000
         C           -3.494759182558     0.495969994900     0.000000943522    12.000000000000
         C            2.643656817442     0.226579994900    -0.000000056478    12.000000000000
         C            2.008011017442     1.427662894900    -0.000000056478    12.000000000000
         H           -1.666415182558     1.638998994900     0.000000943522     1.007825032230
         H           -3.952579182558     0.934440994900    -0.891194056478     1.007825032230
         H           -3.952577182558     0.934432994900     0.891200943522     1.007825032230
         H           -3.665529182558    -0.580395005100    -0.000003056478     1.007825032230
         H            3.708823817442     0.034418994900     0.000000943522     1.007825032230
         H            2.492740817442     2.410799994900    -0.000000056478     1.007825032230

  Basis Set: AUG-CC-PVTZ
    Blend: AUG-CC-PVTZ
  Basis Set: (AUG-CC-PVTZ AUX)
    Blend: AUG-CC-PVTZ-JKFIT
	 Reference Energy          =    -774.2769032528469779 [Eh]
	 Singles Energy            =      -0.0000000000000000 [Eh]
	 Same-Spin Energy          =      -0.4583721026414469 [Eh]
	 Opposite-Spin Energy      =      -1.3685906229195046 [Eh]
	 Correlation Energy        =      -1.8269627255609515 [Eh]
	 Total Energy              =    -776.1038659784079528 [Eh]

	 ================> DF-SCS-MP2 Energies <==================
	-----------------------------------------------------------
	 SCS Same-Spin Scale       =       0.3333333333333333 [-]
	 SCS Opposite-Spin Scale   =       1.2000000000000000 [-]
	 SCS Same-Spin Energy      =      -0.1527907008804823 [Eh]
	 SCS Opposite-Spin Energy  =      -1.6423087475034055 [Eh]
	 SCS Correlation Energy    =      -1.7950994483838878 [Eh]
	 SCS Total Energy          =    -776.0720027012308719 [Eh]
	-----------------------------------------------------------

  Dipole Moment: [D]
     X:     1.1046      Y:     2.4380      Z:     0.0000     Total:     2.6766

*** Psi4 exiting successfully. Buy a developer a beer!
