                               Psi4 1.3.2 release

  ==> Input File <==

--------------------------------------------------------------------------
#psi4
#
memory 32 gb

molecule  {
0 1
  S        1.5510760    -1.0871590     0.0000010
  O       -1.4242190    -1.5655850    -0.0000010
  N       -2.0132560     0.6673690     0.0000000
  N        0.6809160     1.3479160    -0.0000010
  C        0.2854510     0.0833790     0.0000000
  C       -1.1339070    -0.3627170    -0.0000010
  C       -3.4470980     0.4588130     0.0000010
  C        2.6913180     0.1894230     0.0000000
  C        1.9628718     1.3602212    -0.0000001
  H       -1.6187540     1.6018420     0.0000010
  H       -3.9049180     0.8972840    -0.8911940
  H       -3.9049160     0.8972760     0.8912010
  H       -3.6178680    -0.6175520    -0.0000030
  H        3.7564850    -0.0027380     0.0000010
  H        2.5404020     2.3736430     0.0000000
units angstrom
no_reorient  #important for SAPT in psi4, default
symmetry c1  #important for SAPT in psi4, default
}

set PROPERTIES_ORIGIN ["COM"]
properties('MP2/aug-cc-pvtz', properties = ['dipole'])
--------------------------------------------------------------------------

    Molecular point group: c1
  Charge       = 0
  Multiplicity = 1
  Basis Set: AUG-CC-PVTZ
    Blend: AUG-CC-PVTZ
  Basis Set: (AUG-CC-PVTZ AUX)
    Blend: AUG-CC-PVTZ-JKFIT

    Orbital Energies [Eh]
    ---------------------

    Doubly Occupied:

       1A    -92.015884     2A    -20.527801     3A    -15.594109
       4A    -15.593087     5A    -11.368459     6A    -11.324555
       7A    -11.284894     8A    -11.280466     9A    -11.263902
      10A     -9.015502    11A     -6.696096    12A     -6.695700
      13A     -6.695128    14A     -1.383801    15A     -1.322922
      16A     -1.238870    17A     -1.090235    18A     -1.036410
      19A     -0.957607    20A     -0.848122    21A     -0.805979
      22A     -0.775961    23A     -0.729022    24A     -0.652207
      25A     -0.644520    26A     -0.634889    27A     -0.601679
      28A     -0.593811    29A     -0.570671    30A     -0.551981
      31A     -0.535553    32A     -0.502010    33A     -0.467490
      34A     -0.438370    35A     -0.414222    36A     -0.395357
      37A     -0.343320

  @DF-RHF Final Energy:  -774.26371177318720

   => Energetics <=

    Nuclear Repulsion Energy =            507.0466767026751995
    One-Electron Energy =               -2068.8395986738887586
    Two-Electron Energy =                 787.5292101980264761
    Total Energy =                       -774.2637117731871967
  Basis Set: (AUG-CC-PVTZ AUX)
    Blend: AUG-CC-PVTZ-RI
    Molecular point group: c1

    Geometry (in Angstrom), charge = 0, multiplicity = 1:

       Center              X                  Y                   Z               Mass
    ------------   -----------------  -----------------  -----------------  -----------------
         S            1.511255995736    -1.047443096601     0.000000951971    31.972071174400
         O           -1.464039004264    -1.525869096601    -0.000001048029    15.994914619570
         N           -2.053076004264     0.707084903399    -0.000000048029    14.003074004430
         N            0.641095995736     1.387631903399    -0.000001048029    14.003074004430
         C            0.245630995736     0.123094903399    -0.000000048029    12.000000000000
         C           -1.173727004264    -0.323001096601    -0.000001048029    12.000000000000
         C           -3.486918004264     0.498528903399     0.000000951971    12.000000000000
         C            2.651497995736     0.229138903399    -0.000000048029    12.000000000000
         C            1.923051795736     1.399937103399    -0.000000148029    12.000000000000
         H           -1.658574004264     1.641557903399     0.000000951971     1.007825032230
         H           -3.944738004264     0.936999903399    -0.891194048029     1.007825032230
         H           -3.944736004264     0.936991903399     0.891200951971     1.007825032230
         H           -3.657688004264    -0.577836096601    -0.000003048029     1.007825032230
         H            3.716664995736     0.036977903399     0.000000951971     1.007825032230
         H            2.500581995736     2.413358903399    -0.000000048029     1.007825032230

  Basis Set: AUG-CC-PVTZ
    Blend: AUG-CC-PVTZ
  Basis Set: (AUG-CC-PVTZ AUX)
    Blend: AUG-CC-PVTZ-JKFIT
	 Reference Energy          =    -774.2637117731871967 [Eh]
	 Singles Energy            =      -0.0000000000000000 [Eh]
	 Same-Spin Energy          =      -0.4603215287951499 [Eh]
	 Opposite-Spin Energy      =      -1.3694989085258260 [Eh]
	 Correlation Energy        =      -1.8298204373209759 [Eh]
	 Total Energy              =    -776.0935322105082150 [Eh]

	 ================> DF-SCS-MP2 Energies <==================
	-----------------------------------------------------------
	 SCS Same-Spin Scale       =       0.3333333333333333 [-]
	 SCS Opposite-Spin Scale   =       1.2000000000000000 [-]
	 SCS Same-Spin Energy      =      -0.1534405095983833 [Eh]
	 SCS Opposite-Spin Energy  =      -1.6433986902309912 [Eh]
	 SCS Correlation Energy    =      -1.7968391998293745 [Eh]
	 SCS Total Energy          =    -776.0605509730165750 [Eh]
	-----------------------------------------------------------

  Dipole Moment: [D]
     X:     1.1212      Y:     2.3685      Z:     0.0000     Total:     2.6205

*** Psi4 exiting successfully. Buy a developer a beer!
