                               Psi4 1.3.2 release

  ==> Input File <==

--------------------------------------------------------------------------
#psi4
#
memory 32 gb

molecule  {
0 1
  S        1.5510760    -1.0871590     0.0000010
  O       -1.4242190    -1.5655850    -0.0000010
  N       -2.0132560     0.6673690     0.0000000
  N        0.6838511     1.3003009    -0.0000010
  C        0.2854510     0.0833790     0.0000000
  C       -1.1339070    -0.3627170    -0.0000010
  C       -3.4470980     0.4588130     0.0000010
  C        2.6913180     0.1894230     0.0000000
  C        2.0463170     1.4081830     0.0000000
  H       -1.6187540     1.6018420     0.0000010
  H       -3.9049180     0.8972840    -0.8911940
  H       -3.9049160     0.8972760     0.8912010
  H       -3.6178680    -0.6175520    -0.0000030
  H        3.7564850    -0.0027380     0.0000010
  H        2.5404020     2.3736430     0.0000000
units angstrom
no_reorient  #important for SAPT in psi4, default
symmetry c1  #important for SAPT in psi4, default
}

set PROPERTIES_ORIGIN ["COM"]
properties('MP2/aug-cc-pvtz', properties = ['dipole'])
--------------------------------------------------------------------------

    Molecular point group: c1
  Charge       = 0
  Multiplicity = 1
  Basis Set: AUG-CC-PVTZ
    Blend: AUG-CC-PVTZ
  Basis Set: (AUG-CC-PVTZ AUX)
    Blend: AUG-CC-PVTZ-JKFIT

    Orbital Energies [Eh]
    ---------------------

    Doubly Occupied:

       1A    -92.007528     2A    -20.529283     3A    -15.593977
       4A    -15.590918     5A    -11.368821     6A    -11.318884
       7A    -11.284923     8A    -11.282984     9A    -11.263887
      10A     -9.007888    11A     -6.688606    12A     -6.688103
      13A     -6.687408    14A     -1.384499    15A     -1.308226
      16A     -1.238249    17A     -1.080739    18A     -1.037428
      19A     -0.961158    20A     -0.847533    21A     -0.810219
      22A     -0.777539    23A     -0.718019    24A     -0.660510
      25A     -0.650709    26A     -0.634531    27A     -0.602936
      28A     -0.588749    29A     -0.568786    30A     -0.552140
      31A     -0.532794    32A     -0.515967    33A     -0.464802
      34A     -0.431450    35A     -0.409438    36A     -0.392700
      37A     -0.350412

  @DF-RHF Final Energy:  -774.27871349147927

   => Energetics <=

    Nuclear Repulsion Energy =            506.1514100477788247
    One-Electron Energy =               -2067.1947595948613525
    Two-Electron Energy =                 786.7646360556032050
    Total Energy =                       -774.2787134914792659
  Basis Set: (AUG-CC-PVTZ AUX)
    Blend: AUG-CC-PVTZ-RI
    Molecular point group: c1

    Geometry (in Angstrom), charge = 0, multiplicity = 1:

       Center              X                  Y                   Z               Mass
    ------------   -----------------  -----------------  -----------------  -----------------
         S            1.503915887258    -1.046800820055     0.000000943522    31.972071174400
         O           -1.471379112742    -1.525226820055    -0.000001056478    15.994914619570
         N           -2.060416112742     0.707727179945    -0.000000056478    14.003074004430
         N            0.636690987258     1.340659079945    -0.000001056478    14.003074004430
         C            0.238290887258     0.123737179945    -0.000000056478    12.000000000000
         C           -1.181067112742    -0.322358820055    -0.000001056478    12.000000000000
         C           -3.494258112742     0.499171179945     0.000000943522    12.000000000000
         C            2.644157887258     0.229781179945    -0.000000056478    12.000000000000
         C            1.999156887258     1.448541179945    -0.000000056478    12.000000000000
         H           -1.665914112742     1.642200179945     0.000000943522     1.007825032230
         H           -3.952078112742     0.937642179945    -0.891194056478     1.007825032230
         H           -3.952076112742     0.937634179945     0.891200943522     1.007825032230
         H           -3.665028112742    -0.577193820055    -0.000003056478     1.007825032230
         H            3.709324887258     0.037620179945     0.000000943522     1.007825032230
         H            2.493241887258     2.414001179945    -0.000000056478     1.007825032230

  Basis Set: AUG-CC-PVTZ
    Blend: AUG-CC-PVTZ
  Basis Set: (AUG-CC-PVTZ AUX)
    Blend: AUG-CC-PVTZ-JKFIT
	 Reference Energy          =    -774.2787134914792659 [Eh]
	 Singles Energy            =      -0.0000000000000000 [Eh]
	 Same-Spin Energy          =      -0.4576882836711720 [Eh]
	 Opposite-Spin Energy      =      -1.3668574636791684 [Eh]
	 Correlation Energy        =      -1.8245457473503404 [Eh]
	 Total Energy              =    -776.1032592388296507 [Eh]

	 ================> DF-SCS-MP2 Energies <==================
	-----------------------------------------------------------
	 SCS Same-Spin Scale       =       0.3333333333333333 [-]
	 SCS Opposite-Spin Scale   =       1.2000000000000000 [-]
	 SCS Same-Spin Energy      =      -0.1525627612237240 [Eh]
	 SCS Opposite-Spin Energy  =      -1.6402289564150021 [Eh]
	 SCS Correlation Energy    =      -1.7927917176387260 [Eh]
	 SCS Total Energy          =    -776.0715052091179587 [Eh]
	-----------------------------------------------------------

  Dipole Moment: [D]
     X:     1.0388      Y:     2.6141      Z:     0.0000     Total:     2.8130

*** Psi4 exiting successfully. Buy a developer a beer!
