                               Psi4 1.3.2 release

  ==> Input File <==

--------------------------------------------------------------------------
#psi4
#
memory 32 gb

molecule  {
0 1
  S        1.5510760    -1.0871590     0.0000010
  O       -1.4242190    -1.5655850    -0.0000010
  N       -2.0132560     0.6673690     0.0000000
  N        0.6809160     1.3479160    -0.0000010
  C        0.3701866     0.1688132    -0.0000001
  C       -1.1339070    -0.3627170    -0.0000010
  C       -3.4470980     0.4588130     0.0000010
  C        2.6913180     0.1894230     0.0000000
  C        2.0463170     1.4081830     0.0000000
  H       -1.6187540     1.6018420     0.0000010
  H       -3.9049180     0.8972840    -0.8911940
  H       -3.9049160     0.8972760     0.8912010
  H       -3.6178680    -0.6175520    -0.0000030
  H        3.7564850    -0.0027380     0.0000010
  H        2.5404020     2.3736430     0.0000000
units angstrom
no_reorient  #important for SAPT in psi4, default
symmetry c1  #important for SAPT in psi4, default
}

set PROPERTIES_ORIGIN ["COM"]
properties('MP2/aug-cc-pvtz', properties = ['dipole'])
--------------------------------------------------------------------------

    Molecular point group: c1
  Charge       = 0
  Multiplicity = 1
  Basis Set: AUG-CC-PVTZ
    Blend: AUG-CC-PVTZ
  Basis Set: (AUG-CC-PVTZ AUX)
    Blend: AUG-CC-PVTZ-JKFIT

    Orbital Energies [Eh]
    ---------------------

    Doubly Occupied:

       1A    -92.004640     2A    -20.531927     3A    -15.594508
       4A    -15.587427     5A    -11.372519     6A    -11.320112
       7A    -11.283426     8A    -11.279839     9A    -11.263978
      10A     -9.005524    11A     -6.686278    12A     -6.685612
      13A     -6.684864    14A     -1.382392    15A     -1.334111
      16A     -1.237988    17A     -1.091398    18A     -1.023837
      19A     -0.959321    20A     -0.828779    21A     -0.815161
      22A     -0.773600    23A     -0.722897    24A     -0.653609
      25A     -0.648517    26A     -0.633293    27A     -0.601911
      28A     -0.596370    29A     -0.559447    30A     -0.552517
      31A     -0.535051    32A     -0.516452    33A     -0.482314
      34A     -0.421636    35A     -0.417121    36A     -0.395367
      37A     -0.348703

  @DF-RHF Final Energy:  -774.26464969414133

   => Energetics <=

    Nuclear Repulsion Energy =            505.3577262769092044
    One-Electron Energy =               -2065.5798594831117043
    Two-Electron Energy =                 785.9574835120611169
    Total Energy =                       -774.2646496941413261
  Basis Set: (AUG-CC-PVTZ AUX)
    Blend: AUG-CC-PVTZ-RI
    Molecular point group: c1

    Geometry (in Angstrom), charge = 0, multiplicity = 1:

       Center              X                  Y                   Z               Mass
    ------------   -----------------  -----------------  -----------------  -----------------
         S            1.497045543642    -1.058714403834     0.000000951971    31.972071174400
         O           -1.478249456358    -1.537140403834    -0.000001048029    15.994914619570
         N           -2.067286456358     0.695813596166    -0.000000048029    14.003074004430
         N            0.626885543642     1.376360596166    -0.000001048029    14.003074004430
         C            0.316156143642     0.197257796166    -0.000000148029    12.000000000000
         C           -1.187937456358    -0.334272403834    -0.000001048029    12.000000000000
         C           -3.501128456358     0.487257596166     0.000000951971    12.000000000000
         C            2.637287543642     0.217867596166    -0.000000048029    12.000000000000
         C            1.992286543642     1.436627596166    -0.000000048029    12.000000000000
         H           -1.672784456358     1.630286596166     0.000000951971     1.007825032230
         H           -3.958948456358     0.925728596166    -0.891194048029     1.007825032230
         H           -3.958946456358     0.925720596166     0.891200951971     1.007825032230
         H           -3.671898456358    -0.589107403834    -0.000003048029     1.007825032230
         H            3.702454543642     0.025706596166     0.000000951971     1.007825032230
         H            2.486371543642     2.402087596166    -0.000000048029     1.007825032230

  Basis Set: AUG-CC-PVTZ
    Blend: AUG-CC-PVTZ
  Basis Set: (AUG-CC-PVTZ AUX)
    Blend: AUG-CC-PVTZ-JKFIT
	 Reference Energy          =    -774.2646496941413261 [Eh]
	 Singles Energy            =      -0.0000000000000000 [Eh]
	 Same-Spin Energy          =      -0.4560074984449692 [Eh]
	 Opposite-Spin Energy      =      -1.3653886885841242 [Eh]
	 Correlation Energy        =      -1.8213961870290933 [Eh]
	 Total Energy              =    -776.0860458811704348 [Eh]

	 ================> DF-SCS-MP2 Energies <==================
	-----------------------------------------------------------
	 SCS Same-Spin Scale       =       0.3333333333333333 [-]
	 SCS Opposite-Spin Scale   =       1.2000000000000000 [-]
	 SCS Same-Spin Energy      =      -0.1520024994816564 [Eh]
	 SCS Opposite-Spin Energy  =      -1.6384664263009490 [Eh]
	 SCS Correlation Energy    =      -1.7904689257826054 [Eh]
	 SCS Total Energy          =    -776.0551186199239737 [Eh]
	-----------------------------------------------------------

  Dipole Moment: [D]
     X:     0.8265      Y:     2.5151      Z:     0.0000     Total:     2.6475

*** Psi4 exiting successfully. Buy a developer a beer!
