                               Psi4 1.4a3.dev225

  ==> Input File <==

--------------------------------------------------------------------------
#psi4
#
memory 32 gb

molecule  {
0 1
  S        1.5510760    -1.0871590     0.0000010
  O       -1.4242190    -1.5655850    -0.0000010
  N       -2.0132560     0.6673690     0.0000000
  N        0.6809160     1.3479160    -0.0000010
  C        0.2854510     0.0833790     0.0000000
  C       -1.1339070    -0.3627170    -0.0000010
  C       -3.4470980     0.4588130     0.0000010
  C        2.6913180     0.1894230     0.0000000
  C        2.0463170     1.4081830     0.0000000
  H       -1.6187540     1.6018420     0.0000010
  H       -3.9049180     0.8972840    -0.8911940
  H       -3.9049160     0.8972760     0.8912010
  H       -3.6178680    -0.6175520    -0.0000030
  H        3.7564850    -0.0027380     0.0000010
  H        2.5631805     2.4181530     0.0000000
units angstrom
no_reorient  #important for SAPT in psi4, default
symmetry c1  #important for SAPT in psi4, default
}

set PROPERTIES_ORIGIN ["COM"]
properties('MP2/aug-cc-pvtz', properties = ['dipole'])
--------------------------------------------------------------------------

    Molecular point group: c1
  Charge       = 0
  Multiplicity = 1
  Basis Set: AUG-CC-PVTZ
    Blend: AUG-CC-PVTZ
  Basis Set: (AUG-CC-PVTZ AUX)
    Blend: AUG-CC-PVTZ-JKFIT

    Orbital Energies [Eh]
    ---------------------

    Doubly Occupied:

       1A    -92.013089     2A    -20.529341     3A    -15.597505
       4A    -15.593938     5A    -11.369497     6A    -11.324892
       7A    -11.290420     8A    -11.283087     9A    -11.263826
      10A     -9.012981    11A     -6.693684    12A     -6.693155
      13A     -6.692526    14A     -1.384334    15A     -1.296370
      16A     -1.238055    17A     -1.081482    18A     -1.034737
      19A     -0.959281    20A     -0.847456    21A     -0.801810
      22A     -0.776987    23A     -0.718145    24A     -0.651839
      25A     -0.648549    26A     -0.633723    27A     -0.597150
      28A     -0.584656    29A     -0.568006    30A     -0.552122
      31A     -0.532330    32A     -0.515903    33A     -0.466287
      34A     -0.436878    35A     -0.408805    36A     -0.392678
      37A     -0.348619

  @DF-RHF Final Energy:  -774.27400881251219

   => Energetics <=

    Nuclear Repulsion Energy =            504.5658007264682965
    One-Electron Energy =               -2064.0113392920284241
    Two-Electron Energy =                 785.1715297530479347
    Total Energy =                       -774.2740088125121929
  Basis Set: (AUG-CC-PVTZ AUX)
    Blend: AUG-CC-PVTZ-RI
    Molecular point group: c1

    Geometry (in Angstrom), charge = 0, multiplicity = 1:

       Center              X                  Y                   Z               Mass
    ------------   -----------------  -----------------  -----------------  -----------------
         S            1.504043641584    -1.051811492075     0.000000943522    31.972071174400
         O           -1.471251358416    -1.530237492075    -0.000001056478    15.994914619570
         N           -2.060288358416     0.702716507925    -0.000000056478    14.003074004430
         N            0.633883641584     1.383263507925    -0.000001056478    14.003074004430
         C            0.238418641584     0.118726507925    -0.000000056478    12.000000000000
         C           -1.180939358416    -0.327369492075    -0.000001056478    12.000000000000
         C           -3.494130358416     0.494160507925     0.000000943522    12.000000000000
         C            2.644285641584     0.224770507925    -0.000000056478    12.000000000000
         C            1.999284641584     1.443530507925    -0.000000056478    12.000000000000
         H           -1.665786358416     1.637189507925     0.000000943522     1.007825032230
         H           -3.951950358416     0.932631507925    -0.891194056478     1.007825032230
         H           -3.951948358416     0.932623507925     0.891200943522     1.007825032230
         H           -3.664900358416    -0.582204492075    -0.000003056478     1.007825032230
         H            3.709452641584     0.032609507925     0.000000943522     1.007825032230
         H            2.516148141584     2.453500507925    -0.000000056478     1.007825032230

  Basis Set: AUG-CC-PVTZ
    Blend: AUG-CC-PVTZ
  Basis Set: (AUG-CC-PVTZ AUX)
    Blend: AUG-CC-PVTZ-JKFIT
	 Reference Energy          =    -774.2740088125121929 [Eh]
	 Singles Energy            =      -0.0000000000000000 [Eh]
	 Same-Spin Energy          =      -0.4589743131491942 [Eh]
	 Opposite-Spin Energy      =      -1.3694462058983574 [Eh]
	 Correlation Energy        =      -1.8284205190475515 [Eh]
	 Total Energy              =    -776.1024293315597333 [Eh]

	 ================> DF-SCS-MP2 Energies <==================
	-----------------------------------------------------------
	 SCS Same-Spin Scale       =       0.3333333333333333 [-]
	 SCS Opposite-Spin Scale   =       1.2000000000000000 [-]
	 SCS Same-Spin Energy      =      -0.1529914377163981 [Eh]
	 SCS Opposite-Spin Energy  =      -1.6433354470780288 [Eh]
	 SCS Correlation Energy    =      -1.7963268847944269 [Eh]
	 SCS Total Energy          =    -776.0703356973066320 [Eh]
	-----------------------------------------------------------

  Dipole Moment: [D]
     X:     1.1108      Y:     2.4461      Z:     0.0000     Total:     2.6865

*** Psi4 exiting successfully. Buy a developer a beer!
