                               Psi4 1.3.2 release

  ==> Input File <==

--------------------------------------------------------------------------
#psi4
#
memory 32 gb

molecule  {
0 1
  S        1.5510760    -1.0871590     0.0000010
  O       -1.4242190    -1.5655850    -0.0000010
  N       -2.0132560     0.6673690     0.0000000
  N        0.6809160     1.3479160    -0.0000010
  C        0.2854510     0.0833790     0.0000000
  C       -0.9431087    -0.3027502    -0.0000009
  C       -3.4470980     0.4588130     0.0000010
  C        2.6913180     0.1894230     0.0000000
  C        2.0463170     1.4081830     0.0000000
  H       -1.6187540     1.6018420     0.0000010
  H       -3.9049180     0.8972840    -0.8911940
  H       -3.9049160     0.8972760     0.8912010
  H       -3.6178680    -0.6175520    -0.0000030
  H        3.7564850    -0.0027380     0.0000010
  H        2.5404020     2.3736430     0.0000000
units angstrom
no_reorient  #important for SAPT in psi4, default
symmetry c1  #important for SAPT in psi4, default
}

set PROPERTIES_ORIGIN ["COM"]
properties('MP2/aug-cc-pvtz', properties = ['dipole'])
--------------------------------------------------------------------------

    Molecular point group: c1
  Charge       = 0
  Multiplicity = 1
  Basis Set: AUG-CC-PVTZ
    Blend: AUG-CC-PVTZ
  Basis Set: (AUG-CC-PVTZ AUX)
    Blend: AUG-CC-PVTZ-JKFIT

    Orbital Energies [Eh]
    ---------------------

    Doubly Occupied:

       1A    -92.029764     2A    -20.514715     3A    -15.619078
       4A    -15.582606     5A    -11.366180     6A    -11.317781
       7A    -11.305157     8A    -11.299113     9A    -11.255286
      10A     -9.029239    11A     -6.709833    12A     -6.709251
      13A     -6.708697    14A     -1.338350    15A     -1.294845
      16A     -1.193851    17A     -1.097729    18A     -1.082133
      19A     -0.953676    20A     -0.889376    21A     -0.823164
      22A     -0.742242    23A     -0.728584    24A     -0.658176
      25A     -0.644458    26A     -0.625024    27A     -0.591883
      28A     -0.586423    29A     -0.573823    30A     -0.534913
      31A     -0.524775    32A     -0.502923    33A     -0.472903
      34A     -0.425053    35A     -0.415428    36A     -0.371267
      37A     -0.358538

  @DF-RHF Final Energy:  -774.20091048224106

   => Energetics <=

    Nuclear Repulsion Energy =            505.8697613844333318
    One-Electron Energy =               -2066.3888718686685024
    Two-Electron Energy =                 786.3182000019941142
    Total Energy =                       -774.2009104822410563
  Basis Set: (AUG-CC-PVTZ AUX)
    Blend: AUG-CC-PVTZ-RI
    Molecular point group: c1

    Geometry (in Angstrom), charge = 0, multiplicity = 1:

       Center              X                  Y                   Z               Mass
    ------------   -----------------  -----------------  -----------------  -----------------
         S            1.488083766095    -1.056562533540     0.000000935072    31.972071174400
         O           -1.487211233905    -1.534988533540    -0.000001064928    15.994914619570
         N           -2.076248233905     0.697965466460    -0.000000064928    14.003074004430
         N            0.617923766095     1.378512466460    -0.000001064928    14.003074004430
         C            0.222458766095     0.113975466460    -0.000000064928    12.000000000000
         C           -1.006100933905    -0.272153733540    -0.000000964928    12.000000000000
         C           -3.510090233905     0.489409466460     0.000000935072    12.000000000000
         C            2.628325766095     0.220019466460    -0.000000064928    12.000000000000
         C            1.983324766095     1.438779466460    -0.000000064928    12.000000000000
         H           -1.681746233905     1.632438466460     0.000000935072     1.007825032230
         H           -3.967910233905     0.927880466460    -0.891194064928     1.007825032230
         H           -3.967908233905     0.927872466460     0.891200935072     1.007825032230
         H           -3.680860233905    -0.586955533540    -0.000003064928     1.007825032230
         H            3.693492766095     0.027858466460     0.000000935072     1.007825032230
         H            2.477409766095     2.404239466460    -0.000000064928     1.007825032230

  Basis Set: AUG-CC-PVTZ
    Blend: AUG-CC-PVTZ
  Basis Set: (AUG-CC-PVTZ AUX)
    Blend: AUG-CC-PVTZ-JKFIT
	 Reference Energy          =    -774.2009104822410563 [Eh]
	 Singles Energy            =      -0.0000000000000000 [Eh]
	 Same-Spin Energy          =      -0.4661599784319963 [Eh]
	 Opposite-Spin Energy      =      -1.3823124237853013 [Eh]
	 Correlation Energy        =      -1.8484724022172976 [Eh]
	 Total Energy              =    -776.0493828844583959 [Eh]

	 ================> DF-SCS-MP2 Energies <==================
	-----------------------------------------------------------
	 SCS Same-Spin Scale       =       0.3333333333333333 [-]
	 SCS Opposite-Spin Scale   =       1.2000000000000000 [-]
	 SCS Same-Spin Energy      =      -0.1553866594773321 [Eh]
	 SCS Opposite-Spin Energy  =      -1.6587749085423615 [Eh]
	 SCS Correlation Energy    =      -1.8141615680196936 [Eh]
	 SCS Total Energy          =    -776.0150720502607555 [Eh]
	-----------------------------------------------------------

  Dipole Moment: [D]
     X:     2.4326      Y:     2.5970      Z:     0.0000     Total:     3.5584

*** Psi4 exiting successfully. Buy a developer a beer!
