                               Psi4 1.3.2 release

  ==> Input File <==

--------------------------------------------------------------------------
#psi4
#
memory 32 gb

molecule  {
0 1
  S        1.5510760    -1.0871590     0.0000010
  O       -1.4242190    -1.5655850    -0.0000010
  N       -1.9951446     0.6825589     0.0000000
  N        0.6809160     1.3479160    -0.0000010
  C        0.2854510     0.0833790     0.0000000
  C       -1.1339070    -0.3627170    -0.0000010
  C       -3.4470980     0.4588130     0.0000010
  C        2.6913180     0.1894230     0.0000000
  C        2.0463170     1.4081830     0.0000000
  H       -1.6187540     1.6018420     0.0000010
  H       -3.9049180     0.8972840    -0.8911940
  H       -3.9049160     0.8972760     0.8912010
  H       -3.6178680    -0.6175520    -0.0000030
  H        3.7564850    -0.0027380     0.0000010
  H        2.5404020     2.3736430     0.0000000
units angstrom
no_reorient  #important for SAPT in psi4, default
symmetry c1  #important for SAPT in psi4, default
}

set PROPERTIES_ORIGIN ["COM"]
properties('MP2/aug-cc-pvtz', properties = ['dipole'])
--------------------------------------------------------------------------

    Molecular point group: c1
  Charge       = 0
  Multiplicity = 1
  Basis Set: AUG-CC-PVTZ
    Blend: AUG-CC-PVTZ
  Basis Set: (AUG-CC-PVTZ AUX)
    Blend: AUG-CC-PVTZ-JKFIT

    Orbital Energies [Eh]
    ---------------------

    Doubly Occupied:

       1A    -92.012061     2A    -20.530291     3A    -15.596226
       4A    -15.593160     5A    -11.369715     6A    -11.323480
       7A    -11.284584     8A    -11.282022     9A    -11.265661
      10A     -9.011990    11A     -6.692698    12A     -6.692166
      13A     -6.691543    14A     -1.384202    15A     -1.295670
      16A     -1.237441    17A     -1.080497    18A     -1.034749
      19A     -0.958518    20A     -0.850072    21A     -0.804602
      22A     -0.781743    23A     -0.717906    24A     -0.655743
      25A     -0.647029    26A     -0.632064    27A     -0.599537
      28A     -0.583876    29A     -0.565912    30A     -0.555199
      31A     -0.532719    32A     -0.517335    33A     -0.466087
      34A     -0.436564    35A     -0.409239    36A     -0.393382
      37A     -0.347866

  @DF-RHF Final Energy:  -774.27609974324935

   => Energetics <=

    Nuclear Repulsion Energy =            504.8046378988813672
    One-Electron Energy =               -2064.4943764845406804
    Two-Electron Energy =                 785.4136388424100232
    Total Energy =                       -774.2760997432493468
  Basis Set: (AUG-CC-PVTZ AUX)
    Blend: AUG-CC-PVTZ-RI
    Molecular point group: c1

    Geometry (in Angstrom), charge = 0, multiplicity = 1:

       Center              X                  Y                   Z               Mass
    ------------   -----------------  -----------------  -----------------  -----------------
         S            1.502419515435    -1.052993346056     0.000000943522    31.972071174400
         O           -1.472875484565    -1.531419346056    -0.000001056478    15.994914619570
         N           -2.043801084565     0.716724553944    -0.000000056478    14.003074004430
         N            0.632259515435     1.382081653944    -0.000001056478    14.003074004430
         C            0.236794515435     0.117544653944    -0.000000056478    12.000000000000
         C           -1.182563484565    -0.328551346056    -0.000001056478    12.000000000000
         C           -3.495754484565     0.492978653944     0.000000943522    12.000000000000
         C            2.642661515435     0.223588653944    -0.000000056478    12.000000000000
         C            1.997660515435     1.442348653944    -0.000000056478    12.000000000000
         H           -1.667410484565     1.636007653944     0.000000943522     1.007825032230
         H           -3.953574484565     0.931449653944    -0.891194056478     1.007825032230
         H           -3.953572484565     0.931441653944     0.891200943522     1.007825032230
         H           -3.666524484565    -0.583386346056    -0.000003056478     1.007825032230
         H            3.707828515435     0.031427653944     0.000000943522     1.007825032230
         H            2.491745515435     2.407808653944    -0.000000056478     1.007825032230

  Basis Set: AUG-CC-PVTZ
    Blend: AUG-CC-PVTZ
  Basis Set: (AUG-CC-PVTZ AUX)
    Blend: AUG-CC-PVTZ-JKFIT
	 Reference Energy          =    -774.2760997432493468 [Eh]
	 Singles Energy            =      -0.0000000000000000 [Eh]
	 Same-Spin Energy          =      -0.4586587391955677 [Eh]
	 Opposite-Spin Energy      =      -1.3689167279708903 [Eh]
	 Correlation Energy        =      -1.8275754671664579 [Eh]
	 Total Energy              =    -776.1036752104157586 [Eh]

	 ================> DF-SCS-MP2 Energies <==================
	-----------------------------------------------------------
	 SCS Same-Spin Scale       =       0.3333333333333333 [-]
	 SCS Opposite-Spin Scale   =       1.2000000000000000 [-]
	 SCS Same-Spin Energy      =      -0.1528862463985226 [Eh]
	 SCS Opposite-Spin Energy  =      -1.6427000735650683 [Eh]
	 SCS Correlation Energy    =      -1.7955863199635909 [Eh]
	 SCS Total Energy          =    -776.0716860632129510 [Eh]
	-----------------------------------------------------------

  Dipole Moment: [D]
     X:     1.0498      Y:     2.4304      Z:     0.0000     Total:     2.6474

*** Psi4 exiting successfully. Buy a developer a beer!
