                               Psi4 1.3.2 release

  ==> Input File <==

--------------------------------------------------------------------------
#psi4
#
memory 32 gb

molecule  {
0 1
  S        1.5510760    -1.0871590     0.0000010
  O       -1.4242190    -1.5655850    -0.0000010
  N       -2.0132560     0.6673690     0.0000000
  N        0.6809160     1.3479160    -0.0000010
  C        0.3060725     0.1052889    -0.0000000
  C       -1.1339070    -0.3627170    -0.0000010
  C       -3.4470980     0.4588130     0.0000010
  C        2.6913180     0.1894230     0.0000000
  C        2.0463170     1.4081830     0.0000000
  H       -1.6187540     1.6018420     0.0000010
  H       -3.9049180     0.8972840    -0.8911940
  H       -3.9049160     0.8972760     0.8912010
  H       -3.6178680    -0.6175520    -0.0000030
  H        3.7564850    -0.0027380     0.0000010
  H        2.5404020     2.3736430     0.0000000
units angstrom
no_reorient  #important for SAPT in psi4, default
symmetry c1  #important for SAPT in psi4, default
}

set PROPERTIES_ORIGIN ["COM"]
properties('MP2/aug-cc-pvtz', properties = ['dipole'])
--------------------------------------------------------------------------

    Molecular point group: c1
  Charge       = 0
  Multiplicity = 1
  Basis Set: AUG-CC-PVTZ
    Blend: AUG-CC-PVTZ
  Basis Set: (AUG-CC-PVTZ AUX)
    Blend: AUG-CC-PVTZ-JKFIT

    Orbital Energies [Eh]
    ---------------------

    Doubly Occupied:

       1A    -92.010544     2A    -20.530176     3A    -15.594688
       4A    -15.594201     5A    -11.370777     6A    -11.323672
       7A    -11.284426     8A    -11.281705     9A    -11.263940
      10A     -9.010712    11A     -6.691432    12A     -6.690866
      13A     -6.690211    14A     -1.383797    15A     -1.304639
      16A     -1.238223    17A     -1.083407    18A     -1.032746
      19A     -0.959859    20A     -0.842754    21A     -0.807983
      22A     -0.776973    23A     -0.719438    24A     -0.655041
      25A     -0.650000    26A     -0.633514    27A     -0.600277
      28A     -0.586691    29A     -0.565741    30A     -0.552345
      31A     -0.533114    32A     -0.517502    33A     -0.470459
      34A     -0.433763    35A     -0.410398    36A     -0.393400
      37A     -0.348711

  @DF-RHF Final Energy:  -774.27759020262579

   => Energetics <=

    Nuclear Repulsion Energy =            504.9306759625446261
    One-Electron Energy =               -2064.7402828956019221
    Two-Electron Energy =                 785.5320167304314509
    Total Energy =                       -774.2775902026257882
  Basis Set: (AUG-CC-PVTZ AUX)
    Blend: AUG-CC-PVTZ-RI
    Molecular point group: c1

    Geometry (in Angstrom), charge = 0, multiplicity = 1:

       Center              X                  Y                   Z               Mass
    ------------   -----------------  -----------------  -----------------  -----------------
         S            1.502462870392    -1.053346912290     0.000000943522    31.972071174400
         O           -1.472832129608    -1.531772912290    -0.000001056478    15.994914619570
         N           -2.061869129608     0.701181087710    -0.000000056478    14.003074004430
         N            0.632302870392     1.381728087710    -0.000001056478    14.003074004430
         C            0.257459370392     0.139100987710    -0.000000056478    12.000000000000
         C           -1.182520129608    -0.328904912290    -0.000001056478    12.000000000000
         C           -3.495711129608     0.492625087710     0.000000943522    12.000000000000
         C            2.642704870392     0.223235087710    -0.000000056478    12.000000000000
         C            1.997703870392     1.441995087710    -0.000000056478    12.000000000000
         H           -1.667367129608     1.635654087710     0.000000943522     1.007825032230
         H           -3.953531129608     0.931096087710    -0.891194056478     1.007825032230
         H           -3.953529129608     0.931088087710     0.891200943522     1.007825032230
         H           -3.666481129608    -0.583739912290    -0.000003056478     1.007825032230
         H            3.707871870392     0.031074087710     0.000000943522     1.007825032230
         H            2.491788870392     2.407455087710    -0.000000056478     1.007825032230

  Basis Set: AUG-CC-PVTZ
    Blend: AUG-CC-PVTZ
  Basis Set: (AUG-CC-PVTZ AUX)
    Blend: AUG-CC-PVTZ-JKFIT
	 Reference Energy          =    -774.2775902026257882 [Eh]
	 Singles Energy            =      -0.0000000000000000 [Eh]
	 Same-Spin Energy          =      -0.4580071522253124 [Eh]
	 Opposite-Spin Energy      =      -1.3678753631091440 [Eh]
	 Correlation Energy        =      -1.8258825153344564 [Eh]
	 Total Energy              =    -776.1034727179602442 [Eh]

	 ================> DF-SCS-MP2 Energies <==================
	-----------------------------------------------------------
	 SCS Same-Spin Scale       =       0.3333333333333333 [-]
	 SCS Opposite-Spin Scale   =       1.2000000000000000 [-]
	 SCS Same-Spin Energy      =      -0.1526690507417708 [Eh]
	 SCS Opposite-Spin Energy  =      -1.6414504357309727 [Eh]
	 SCS Correlation Energy    =      -1.7941194864727434 [Eh]
	 SCS Total Energy          =    -776.0717096890984976 [Eh]
	-----------------------------------------------------------

  Dipole Moment: [D]
     X:     1.0385      Y:     2.4608      Z:     0.0000     Total:     2.6710

*** Psi4 exiting successfully. Buy a developer a beer!
