                               Psi4 1.3.2 release

  ==> Input File <==

--------------------------------------------------------------------------
#psi4
#
memory 32 gb

molecule  {
0 1
  S        1.5510760    -1.0871590     0.0000010
  O       -1.4242190    -1.5655850    -0.0000010
  N       -2.0132560     0.6673690     0.0000000
  N        0.6809160     1.3479160    -0.0000010
  C        0.2854510     0.0833790     0.0000000
  C       -1.1339070    -0.3627170    -0.0000010
  C       -3.4470980     0.4588130     0.0000010
  C        2.8245495     0.3385852    -0.0000001
  C        2.0463170     1.4081830     0.0000000
  H       -1.6187540     1.6018420     0.0000010
  H       -3.9049180     0.8972840    -0.8911940
  H       -3.9049160     0.8972760     0.8912010
  H       -3.6178680    -0.6175520    -0.0000030
  H        3.7564850    -0.0027380     0.0000010
  H        2.5404020     2.3736430     0.0000000
units angstrom
no_reorient  #important for SAPT in psi4, default
symmetry c1  #important for SAPT in psi4, default
}

set PROPERTIES_ORIGIN ["COM"]
properties('MP2/aug-cc-pvtz', properties = ['dipole'])
--------------------------------------------------------------------------

    Molecular point group: c1
  Charge       = 0
  Multiplicity = 1
  Basis Set: AUG-CC-PVTZ
    Blend: AUG-CC-PVTZ
  Basis Set: (AUG-CC-PVTZ AUX)
    Blend: AUG-CC-PVTZ-JKFIT

    Orbital Energies [Eh]
    ---------------------

    Doubly Occupied:

       1A    -92.001418     2A    -20.533680     3A    -15.597785
       4A    -15.595733     5A    -11.373317     6A    -11.336326
       7A    -11.287533     8A    -11.284858     9A    -11.266114
      10A     -8.999660    11A     -6.680350    12A     -6.679540
      13A     -6.679127    14A     -1.387817    15A     -1.293865
      16A     -1.240961    17A     -1.063211    18A     -1.040398
      19A     -0.967689    20A     -0.854600    21A     -0.818620
      22A     -0.780167    23A     -0.732616    24A     -0.659189
      25A     -0.653244    26A     -0.635903    27A     -0.607990
      28A     -0.582311    29A     -0.577341    30A     -0.554581
      31A     -0.532704    32A     -0.475334    33A     -0.464987
      34A     -0.434434    35A     -0.403939    36A     -0.383775
      37A     -0.369549

  @DF-RHF Final Energy:  -774.25010231751139

   => Energetics <=

    Nuclear Repulsion Energy =            501.3939600133235217
    One-Electron Energy =               -2057.6267917982277140
    Two-Electron Energy =                 781.9827294673928009
    Total Energy =                       -774.2501023175113914
  Basis Set: (AUG-CC-PVTZ AUX)
    Blend: AUG-CC-PVTZ-RI
    Molecular point group: c1

    Geometry (in Angstrom), charge = 0, multiplicity = 1:

       Center              X                  Y                   Z               Mass
    ------------   -----------------  -----------------  -----------------  -----------------
         S            1.492947878131    -1.064099107029     0.000000951971    31.972071174400
         O           -1.482347121869    -1.542525107029    -0.000001048029    15.994914619570
         N           -2.071384121869     0.690428892971    -0.000000048029    14.003074004430
         N            0.622787878131     1.370975892971    -0.000001048029    14.003074004430
         C            0.227322878131     0.106438892971    -0.000000048029    12.000000000000
         C           -1.192035121869    -0.339657107029    -0.000001048029    12.000000000000
         C           -3.505226121869     0.481872892971     0.000000951971    12.000000000000
         C            2.766421378131     0.361645092971    -0.000000148029    12.000000000000
         C            1.988188878131     1.431242892971    -0.000000048029    12.000000000000
         H           -1.676882121869     1.624901892971     0.000000951971     1.007825032230
         H           -3.963046121869     0.920343892971    -0.891194048029     1.007825032230
         H           -3.963044121869     0.920335892971     0.891200951971     1.007825032230
         H           -3.675996121869    -0.594492107029    -0.000003048029     1.007825032230
         H            3.698356878131     0.020321892971     0.000000951971     1.007825032230
         H            2.482273878131     2.396702892971    -0.000000048029     1.007825032230

  Basis Set: AUG-CC-PVTZ
    Blend: AUG-CC-PVTZ
  Basis Set: (AUG-CC-PVTZ AUX)
    Blend: AUG-CC-PVTZ-JKFIT
	 Reference Energy          =    -774.2501023175113914 [Eh]
	 Singles Energy            =      -0.0000000000000000 [Eh]
	 Same-Spin Energy          =      -0.4565451518016808 [Eh]
	 Opposite-Spin Energy      =      -1.3691686960031499 [Eh]
	 Correlation Energy        =      -1.8257138478048307 [Eh]
	 Total Energy              =    -776.0758161653162688 [Eh]

	 ================> DF-SCS-MP2 Energies <==================
	-----------------------------------------------------------
	 SCS Same-Spin Scale       =       0.3333333333333333 [-]
	 SCS Opposite-Spin Scale   =       1.2000000000000000 [-]
	 SCS Same-Spin Energy      =      -0.1521817172672269 [Eh]
	 SCS Opposite-Spin Energy  =      -1.6430024352037800 [Eh]
	 SCS Correlation Energy    =      -1.7951841524710068 [Eh]
	 SCS Total Energy          =    -776.0452864699824431 [Eh]
	-----------------------------------------------------------

  Dipole Moment: [D]
     X:     1.0378      Y:     2.6289      Z:     0.0000     Total:     2.8263

*** Psi4 exiting successfully. Buy a developer a beer!
