                               Psi4 1.3.2 release

  ==> Input File <==

--------------------------------------------------------------------------
#psi4
#
memory 32 gb

molecule  {
0 1
  S        1.4217882    -1.2130405     0.0000011
  O       -1.4242190    -1.5655850    -0.0000010
  N       -2.0132560     0.6673690     0.0000000
  N        0.6809160     1.3479160    -0.0000010
  C        0.2854510     0.0833790     0.0000000
  C       -1.1339070    -0.3627170    -0.0000010
  C       -3.4470980     0.4588130     0.0000010
  C        2.6913180     0.1894230     0.0000000
  C        2.0463170     1.4081830     0.0000000
  H       -1.6187540     1.6018420     0.0000010
  H       -3.9049180     0.8972840    -0.8911940
  H       -3.9049160     0.8972760     0.8912010
  H       -3.6178680    -0.6175520    -0.0000030
  H        3.7564850    -0.0027380     0.0000010
  H        2.5404020     2.3736430     0.0000000
units angstrom
no_reorient  #important for SAPT in psi4, default
symmetry c1  #important for SAPT in psi4, default
}

set PROPERTIES_ORIGIN ["COM"]
properties('MP2/aug-cc-pvtz', properties = ['dipole'])
--------------------------------------------------------------------------

    Molecular point group: c1
  Charge       = 0
  Multiplicity = 1
  Basis Set: AUG-CC-PVTZ
    Blend: AUG-CC-PVTZ
  Basis Set: (AUG-CC-PVTZ AUX)
    Blend: AUG-CC-PVTZ-JKFIT

    Orbital Energies [Eh]
    ---------------------

    Doubly Occupied:

       1A    -92.015495     2A    -20.532138     3A    -15.596559
       4A    -15.594966     5A    -11.368967     6A    -11.331229
       7A    -11.293209     8A    -11.289516     9A    -11.264383
      10A     -9.012473    11A     -6.693079    12A     -6.692173
      13A     -6.691772    14A     -1.387231    15A     -1.290374
      16A     -1.238583    17A     -1.053177    18A     -1.038652
      19A     -0.961319    20A     -0.847380    21A     -0.808133
      22A     -0.776657    23A     -0.706143    24A     -0.656853
      25A     -0.647687    26A     -0.634292    27A     -0.603090
      28A     -0.580123    29A     -0.561732    30A     -0.552983
      31A     -0.528979    32A     -0.498709    33A     -0.469122
      34A     -0.437003    35A     -0.405485    36A     -0.389219
      37A     -0.351890

  @DF-RHF Final Energy:  -774.25878412320799

   => Energetics <=

    Nuclear Repulsion Energy =            502.0663391529033674
    One-Electron Energy =               -2059.0487085960503464
    Two-Electron Energy =                 782.7235853199390476
    Total Energy =                       -774.2587841232079882
  Basis Set: (AUG-CC-PVTZ AUX)
    Blend: AUG-CC-PVTZ-RI
    Molecular point group: c1

    Geometry (in Angstrom), charge = 0, multiplicity = 1:

       Center              X                  Y                   Z               Mass
    ------------   -----------------  -----------------  -----------------  -----------------
         S            1.404023219613    -1.149038238077     0.000001021009    31.972071174400
         O           -1.441983980387    -1.501582738077    -0.000001078991    15.994914619570
         N           -2.031020980387     0.731371261923    -0.000000078991    14.003074004430
         N            0.663151019613     1.411918261923    -0.000001078991    14.003074004430
         C            0.267686019613     0.147381261923    -0.000000078991    12.000000000000
         C           -1.151671980387    -0.298714738077    -0.000001078991    12.000000000000
         C           -3.464862980387     0.522815261923     0.000000921009    12.000000000000
         C            2.673553019613     0.253425261923    -0.000000078991    12.000000000000
         C            2.028552019613     1.472185261923    -0.000000078991    12.000000000000
         H           -1.636518980387     1.665844261923     0.000000921009     1.007825032230
         H           -3.922682980387     0.961286261923    -0.891194078991     1.007825032230
         H           -3.922680980387     0.961278261923     0.891200921009     1.007825032230
         H           -3.635632980387    -0.553549738077    -0.000003078991     1.007825032230
         H            3.738720019613     0.061264261923     0.000000921009     1.007825032230
         H            2.522637019613     2.437645261923    -0.000000078991     1.007825032230

  Basis Set: AUG-CC-PVTZ
    Blend: AUG-CC-PVTZ
  Basis Set: (AUG-CC-PVTZ AUX)
    Blend: AUG-CC-PVTZ-JKFIT
	 Reference Energy          =    -774.2587841232079882 [Eh]
	 Singles Energy            =      -0.0000000000000000 [Eh]
	 Same-Spin Energy          =      -0.4580029081174678 [Eh]
	 Opposite-Spin Energy      =      -1.3720665376602690 [Eh]
	 Correlation Energy        =      -1.8300694457777369 [Eh]
	 Total Energy              =    -776.0888535689857690 [Eh]

	 ================> DF-SCS-MP2 Energies <==================
	-----------------------------------------------------------
	 SCS Same-Spin Scale       =       0.3333333333333333 [-]
	 SCS Opposite-Spin Scale   =       1.2000000000000000 [-]
	 SCS Same-Spin Energy      =      -0.1526676360391559 [Eh]
	 SCS Opposite-Spin Energy  =      -1.6464798451923228 [Eh]
	 SCS Correlation Energy    =      -1.7991474812314787 [Eh]
	 SCS Total Energy          =    -776.0579316044394318 [Eh]
	-----------------------------------------------------------

  Dipole Moment: [D]
     X:     0.9126      Y:     2.4677      Z:     0.0000     Total:     2.6310

*** Psi4 exiting successfully. Buy a developer a beer!
