                               Psi4 1.3.2 release

  ==> Input File <==

--------------------------------------------------------------------------
#psi4
#
memory 32 gb

molecule  {
0 1
  S        1.5510760    -1.0871590     0.0000010
  O       -1.4242190    -1.5655850    -0.0000010
  N       -2.0132560     0.6673690     0.0000000
  N        0.6809160     1.3479160    -0.0000010
  C        0.2854510     0.0833790     0.0000000
  C       -1.1339070    -0.3627170    -0.0000010
  C       -3.4470980     0.4588130     0.0000010
  C        2.6913180     0.1894230     0.0000000
  C        2.2461225     1.4170021     0.0000001
  H       -1.6187540     1.6018420     0.0000010
  H       -3.9049180     0.8972840    -0.8911940
  H       -3.9049160     0.8972760     0.8912010
  H       -3.6178680    -0.6175520    -0.0000030
  H        3.7564850    -0.0027380     0.0000010
  H        2.5404020     2.3736430     0.0000000
units angstrom
no_reorient  #important for SAPT in psi4, default
symmetry c1  #important for SAPT in psi4, default
}

set PROPERTIES_ORIGIN ["COM"]
properties('MP2/aug-cc-pvtz', properties = ['dipole'])
--------------------------------------------------------------------------

    Molecular point group: c1
  Charge       = 0
  Multiplicity = 1
  Basis Set: AUG-CC-PVTZ
    Blend: AUG-CC-PVTZ
  Basis Set: (AUG-CC-PVTZ AUX)
    Blend: AUG-CC-PVTZ-JKFIT

    Orbital Energies [Eh]
    ---------------------

    Doubly Occupied:

       1A    -92.005793     2A    -20.532434     3A    -15.600148
       4A    -15.594163     5A    -11.371275     6A    -11.325593
       7A    -11.284658     8A    -11.280537     9A    -11.264013
      10A     -9.006537    11A     -6.687434    12A     -6.686670
      13A     -6.685850    14A     -1.386186    15A     -1.263649
      16A     -1.234978    17A     -1.081092    18A     -1.032734
      19A     -0.966817    20A     -0.853795    21A     -0.807170
      22A     -0.777641    23A     -0.716845    24A     -0.656422
      25A     -0.650792    26A     -0.633109    27A     -0.590001
      28A     -0.575348    29A     -0.557209    30A     -0.550047
      31A     -0.542890    32A     -0.528531    33A     -0.460859
      34A     -0.424259    35A     -0.405329    36A     -0.386466
      37A     -0.368318

  @DF-RHF Final Energy:  -774.24383611291125

   => Energetics <=

    Nuclear Repulsion Energy =            501.9458403588211581
    One-Electron Energy =               -2058.8281689893055955
    Two-Electron Energy =                 782.6384925175731269
    Total Energy =                       -774.2438361129112536
  Basis Set: (AUG-CC-PVTZ AUX)
    Blend: AUG-CC-PVTZ-RI
    Molecular point group: c1

    Geometry (in Angstrom), charge = 0, multiplicity = 1:

       Center              X                  Y                   Z               Mass
    ------------   -----------------  -----------------  -----------------  -----------------
         S            1.487322701906    -1.052240803945     0.000000935072    31.972071174400
         O           -1.487972298094    -1.530666803945    -0.000001064928    15.994914619570
         N           -2.077009298094     0.702287196055    -0.000000064928    14.003074004430
         N            0.617162701906     1.382834196055    -0.000001064928    14.003074004430
         C            0.221697701906     0.118297196055    -0.000000064928    12.000000000000
         C           -1.197660298094    -0.327798803945    -0.000001064928    12.000000000000
         C           -3.510851298094     0.493731196055     0.000000935072    12.000000000000
         C            2.627564701906     0.224341196055    -0.000000064928    12.000000000000
         C            2.182369201906     1.451920296055     0.000000035072    12.000000000000
         H           -1.682507298094     1.636760196055     0.000000935072     1.007825032230
         H           -3.968671298094     0.932202196055    -0.891194064928     1.007825032230
         H           -3.968669298094     0.932194196055     0.891200935072     1.007825032230
         H           -3.681621298094    -0.582633803945    -0.000003064928     1.007825032230
         H            3.692731701906     0.032180196055     0.000000935072     1.007825032230
         H            2.476648701906     2.408561196055    -0.000000064928     1.007825032230

  Basis Set: AUG-CC-PVTZ
    Blend: AUG-CC-PVTZ
  Basis Set: (AUG-CC-PVTZ AUX)
    Blend: AUG-CC-PVTZ-JKFIT
	 Reference Energy          =    -774.2438361129112536 [Eh]
	 Singles Energy            =      -0.0000000000000000 [Eh]
	 Same-Spin Energy          =      -0.4557811546274297 [Eh]
	 Opposite-Spin Energy      =      -1.3700340457881812 [Eh]
	 Correlation Energy        =      -1.8258152004156110 [Eh]
	 Total Energy              =    -776.0696513133268581 [Eh]

	 ================> DF-SCS-MP2 Energies <==================
	-----------------------------------------------------------
	 SCS Same-Spin Scale       =       0.3333333333333333 [-]
	 SCS Opposite-Spin Scale   =       1.2000000000000000 [-]
	 SCS Same-Spin Energy      =      -0.1519270515424765 [Eh]
	 SCS Opposite-Spin Energy  =      -1.6440408549458174 [Eh]
	 SCS Correlation Energy    =      -1.7959679064882939 [Eh]
	 SCS Total Energy          =    -776.0398040193995257 [Eh]
	-----------------------------------------------------------

  Dipole Moment: [D]
     X:     0.9801      Y:     2.5357      Z:     0.0000     Total:     2.7185

*** Psi4 exiting successfully. Buy a developer a beer!
