                               Psi4 1.3.2 release

  ==> Input File <==

--------------------------------------------------------------------------
#psi4
#
memory 32 gb

molecule  {
0 1
  S        1.4663404    -1.1725932     0.0000011
  O       -1.4242190    -1.5655850    -0.0000010
  N       -2.0132560     0.6673690     0.0000000
  N        0.6809160     1.3479160    -0.0000010
  C        0.2854510     0.0833790     0.0000000
  C       -1.1339070    -0.3627170    -0.0000010
  C       -3.4470980     0.4588130     0.0000010
  C        2.6913180     0.1894230     0.0000000
  C        2.0463170     1.4081830     0.0000000
  H       -1.6187540     1.6018420     0.0000010
  H       -3.9049180     0.8972840    -0.8911940
  H       -3.9049160     0.8972760     0.8912010
  H       -3.6178680    -0.6175520    -0.0000030
  H        3.7564850    -0.0027380     0.0000010
  H        2.5404020     2.3736430     0.0000000
units angstrom
no_reorient  #important for SAPT in psi4, default
symmetry c1  #important for SAPT in psi4, default
}

set PROPERTIES_ORIGIN ["COM"]
properties('MP2/aug-cc-pvtz', properties = ['dipole'])
--------------------------------------------------------------------------

    Molecular point group: c1
  Charge       = 0
  Multiplicity = 1
  Basis Set: AUG-CC-PVTZ
    Blend: AUG-CC-PVTZ
  Basis Set: (AUG-CC-PVTZ AUX)
    Blend: AUG-CC-PVTZ-JKFIT

    Orbital Energies [Eh]
    ---------------------

    Doubly Occupied:

       1A    -92.014938     2A    -20.531221     3A    -15.596743
       4A    -15.594617     5A    -11.369123     6A    -11.329231
       7A    -11.290141     8A    -11.287857     9A    -11.264199
      10A     -9.012662    11A     -6.693306    12A     -6.692520
      13A     -6.692072    14A     -1.386215    15A     -1.291913
      16A     -1.238371    17A     -1.059942    18A     -1.038960
      19A     -0.960866    20A     -0.847648    21A     -0.807081
      22A     -0.776980    23A     -0.709885    24A     -0.656186
      25A     -0.648487    26A     -0.634055    27A     -0.601961
      28A     -0.581180    29A     -0.562410    30A     -0.552707
      31A     -0.529899    32A     -0.507359    33A     -0.468342
      34A     -0.437107    35A     -0.405852    36A     -0.390084
      37A     -0.351433

  @DF-RHF Final Energy:  -774.26755054714681

   => Energetics <=

    Nuclear Repulsion Energy =            502.8493862085139767
    One-Electron Energy =               -2060.6067713447841925
    Two-Electron Energy =                 783.4898345891233475
    Total Energy =                       -774.2675505471468114
  Basis Set: (AUG-CC-PVTZ AUX)
    Blend: AUG-CC-PVTZ-RI
    Molecular point group: c1

    Geometry (in Angstrom), charge = 0, multiplicity = 1:

       Center              X                  Y                   Z               Mass
    ------------   -----------------  -----------------  -----------------  -----------------
         S            1.438545668403    -1.117696579463     0.000001021009    31.972071174400
         O           -1.452013731597    -1.510688379463    -0.000001078991    15.994914619570
         N           -2.041050731597     0.722265620537    -0.000000078991    14.003074004430
         N            0.653121268403     1.402812620537    -0.000001078991    14.003074004430
         C            0.257656268403     0.138275620537    -0.000000078991    12.000000000000
         C           -1.161701731597    -0.307820379463    -0.000001078991    12.000000000000
         C           -3.474892731597     0.513709620537     0.000000921009    12.000000000000
         C            2.663523268403     0.244319620537    -0.000000078991    12.000000000000
         C            2.018522268403     1.463079620537    -0.000000078991    12.000000000000
         H           -1.646548731597     1.656738620537     0.000000921009     1.007825032230
         H           -3.932712731597     0.952180620537    -0.891194078991     1.007825032230
         H           -3.932710731597     0.952172620537     0.891200921009     1.007825032230
         H           -3.645662731597    -0.562655379463    -0.000003078991     1.007825032230
         H            3.728690268403     0.052158620537     0.000000921009     1.007825032230
         H            2.512607268403     2.428539620537    -0.000000078991     1.007825032230

  Basis Set: AUG-CC-PVTZ
    Blend: AUG-CC-PVTZ
  Basis Set: (AUG-CC-PVTZ AUX)
    Blend: AUG-CC-PVTZ-JKFIT
	 Reference Energy          =    -774.2675505471468114 [Eh]
	 Singles Energy            =      -0.0000000000000000 [Eh]
	 Same-Spin Energy          =      -0.4581407949576026 [Eh]
	 Opposite-Spin Energy      =      -1.3708770072614631 [Eh]
	 Correlation Energy        =      -1.8290178022190657 [Eh]
	 Total Energy              =    -776.0965683493658389 [Eh]

	 ================> DF-SCS-MP2 Energies <==================
	-----------------------------------------------------------
	 SCS Same-Spin Scale       =       0.3333333333333333 [-]
	 SCS Opposite-Spin Scale   =       1.2000000000000000 [-]
	 SCS Same-Spin Energy      =      -0.1527135983192009 [Eh]
	 SCS Opposite-Spin Energy  =      -1.6450524087137557 [Eh]
	 SCS Correlation Energy    =      -1.7977660070329566 [Eh]
	 SCS Total Energy          =    -776.0653165541797307 [Eh]
	-----------------------------------------------------------

  Dipole Moment: [D]
     X:     0.9812      Y:     2.4591      Z:     0.0000     Total:     2.6476

*** Psi4 exiting successfully. Buy a developer a beer!
