                               Psi4 1.3.2 release

  ==> Input File <==

--------------------------------------------------------------------------
#psi4
#
memory 32 gb

molecule  {
0 1
  S        1.5510760    -1.0871590     0.0000010
  O       -1.4242190    -1.5655850    -0.0000010
  N       -2.0132560     0.6673690     0.0000000
  N        0.6809160     1.3479160    -0.0000010
  C        0.2854510     0.0833790     0.0000000
  C       -1.0385079    -0.3327336    -0.0000009
  C       -3.4470980     0.4588130     0.0000010
  C        2.6913180     0.1894230     0.0000000
  C        2.0463170     1.4081830     0.0000000
  H       -1.6187540     1.6018420     0.0000010
  H       -3.9049180     0.8972840    -0.8911940
  H       -3.9049160     0.8972760     0.8912010
  H       -3.6178680    -0.6175520    -0.0000030
  H        3.7564850    -0.0027380     0.0000010
  H        2.5404020     2.3736430     0.0000000
units angstrom
no_reorient  #important for SAPT in psi4, default
symmetry c1  #important for SAPT in psi4, default
}

set PROPERTIES_ORIGIN ["COM"]
properties('MP2/aug-cc-pvtz', properties = ['dipole'])
--------------------------------------------------------------------------

    Molecular point group: c1
  Charge       = 0
  Multiplicity = 1
  Basis Set: AUG-CC-PVTZ
    Blend: AUG-CC-PVTZ
  Basis Set: (AUG-CC-PVTZ AUX)
    Blend: AUG-CC-PVTZ-JKFIT

    Orbital Energies [Eh]
    ---------------------

    Doubly Occupied:

       1A    -92.020806     2A    -20.522766     3A    -15.607321
       4A    -15.588899     5A    -11.369081     6A    -11.323692
       7A    -11.293005     8A    -11.291152     9A    -11.259958
      10A     -9.020501    11A     -6.701158    12A     -6.700610
      13A     -6.700011    14A     -1.354584    15A     -1.301194
      16A     -1.216245    17A     -1.088957    18A     -1.056636
      19A     -0.956102    20A     -0.870508    21A     -0.813476
      22A     -0.758925    23A     -0.725334    24A     -0.654906
      25A     -0.645912    26A     -0.626522    27A     -0.590595
      28A     -0.589546    29A     -0.576699    30A     -0.541295
      31A     -0.524830    32A     -0.516957    33A     -0.468316
      34A     -0.435944    35A     -0.410680    36A     -0.383350
      37A     -0.354138

  @DF-RHF Final Energy:  -774.25487276832837

   => Energetics <=

    Nuclear Repulsion Energy =            505.2558511158439956
    One-Electron Energy =               -2065.3002339183985896
    Two-Electron Energy =                 785.7895100342261685
    Total Energy =                       -774.2548727683283687
  Basis Set: (AUG-CC-PVTZ AUX)
    Blend: AUG-CC-PVTZ-RI
    Molecular point group: c1

    Geometry (in Angstrom), charge = 0, multiplicity = 1:

       Center              X                  Y                   Z               Mass
    ------------   -----------------  -----------------  -----------------  -----------------
         S            1.496144530233    -1.054029083411     0.000000935072    31.972071174400
         O           -1.479150469767    -1.532455083411    -0.000001064928    15.994914619570
         N           -2.068187469767     0.700498916589    -0.000000064928    14.003074004430
         N            0.625984530233     1.381045916589    -0.000001064928    14.003074004430
         C            0.230519530233     0.116508916589    -0.000000064928    12.000000000000
         C           -1.093439369767    -0.299603683411    -0.000000964928    12.000000000000
         C           -3.502029469767     0.491942916589     0.000000935072    12.000000000000
         C            2.636386530233     0.222552916589    -0.000000064928    12.000000000000
         C            1.991385530233     1.441312916589    -0.000000064928    12.000000000000
         H           -1.673685469767     1.634971916589     0.000000935072     1.007825032230
         H           -3.959849469767     0.930413916589    -0.891194064928     1.007825032230
         H           -3.959847469767     0.930405916589     0.891200935072     1.007825032230
         H           -3.672799469767    -0.584422083411    -0.000003064928     1.007825032230
         H            3.701553530233     0.030391916589     0.000000935072     1.007825032230
         H            2.485470530233     2.406772916589    -0.000000064928     1.007825032230

  Basis Set: AUG-CC-PVTZ
    Blend: AUG-CC-PVTZ
  Basis Set: (AUG-CC-PVTZ AUX)
    Blend: AUG-CC-PVTZ-JKFIT
	 Reference Energy          =    -774.2548727683283687 [Eh]
	 Singles Energy            =      -0.0000000000000000 [Eh]
	 Same-Spin Energy          =      -0.4618929189311546 [Eh]
	 Opposite-Spin Energy      =      -1.3746510147443880 [Eh]
	 Correlation Energy        =      -1.8365439336755427 [Eh]
	 Total Energy              =    -776.0914167020039258 [Eh]

	 ================> DF-SCS-MP2 Energies <==================
	-----------------------------------------------------------
	 SCS Same-Spin Scale       =       0.3333333333333333 [-]
	 SCS Opposite-Spin Scale   =       1.2000000000000000 [-]
	 SCS Same-Spin Energy      =      -0.1539643063103849 [Eh]
	 SCS Opposite-Spin Energy  =      -1.6495812176932656 [Eh]
	 SCS Correlation Energy    =      -1.8035455240036504 [Eh]
	 SCS Total Energy          =    -776.0584182923320213 [Eh]
	-----------------------------------------------------------

  Dipole Moment: [D]
     X:     1.7934      Y:     2.5491      Z:     0.0000     Total:     3.1168

*** Psi4 exiting successfully. Buy a developer a beer!
