                               Psi4 1.3.2 release

  ==> Input File <==

--------------------------------------------------------------------------
#psi4
#
memory 32 gb

molecule  {
0 1
  S        1.5510760    -1.0871590     0.0000010
  O       -1.4242190    -1.5655850    -0.0000010
  N       -2.0132560     0.6673690     0.0000000
  N        0.6809160     1.3479160    -0.0000010
  C        0.3075804     0.0766698     0.0000000
  C       -1.1339070    -0.3627170    -0.0000010
  C       -3.4470980     0.4588130     0.0000010
  C        2.6913180     0.1894230     0.0000000
  C        2.0463170     1.4081830     0.0000000
  H       -1.6187540     1.6018420     0.0000010
  H       -3.9049180     0.8972840    -0.8911940
  H       -3.9049160     0.8972760     0.8912010
  H       -3.6178680    -0.6175520    -0.0000030
  H        3.7564850    -0.0027380     0.0000010
  H        2.5404020     2.3736430     0.0000000
units angstrom
no_reorient  #important for SAPT in psi4, default
symmetry c1  #important for SAPT in psi4, default
}

set PROPERTIES_ORIGIN ["COM"]
properties('MP2/aug-cc-pvtz', properties = ['dipole'])
--------------------------------------------------------------------------

    Molecular point group: c1
  Charge       = 0
  Multiplicity = 1
  Basis Set: AUG-CC-PVTZ
    Blend: AUG-CC-PVTZ
  Basis Set: (AUG-CC-PVTZ AUX)
    Blend: AUG-CC-PVTZ-JKFIT

    Orbital Energies [Eh]
    ---------------------

    Doubly Occupied:

       1A    -92.013534     2A    -20.528804     3A    -15.595561
       4A    -15.593764     5A    -11.369888     6A    -11.323843
       7A    -11.284837     8A    -11.281282     9A    -11.263734
      10A     -9.013857    11A     -6.694585    12A     -6.694039
      13A     -6.693386    14A     -1.383350    15A     -1.297234
      16A     -1.237464    17A     -1.083502    18A     -1.034199
      19A     -0.959566    20A     -0.844094    21A     -0.804968
      22A     -0.777110    23A     -0.719253    24A     -0.654318
      25A     -0.649791    26A     -0.632977    27A     -0.597757
      28A     -0.585041    29A     -0.568279    30A     -0.551950
      31A     -0.532311    32A     -0.518724    33A     -0.468512
      34A     -0.435899    35A     -0.408451    36A     -0.392485
      37A     -0.349169

  @DF-RHF Final Energy:  -774.27653540807250

   => Energetics <=

    Nuclear Repulsion Energy =            504.9651751263519373
    One-Electron Energy =               -2064.8083876597243034
    Two-Electron Energy =                 785.5666771252999752
    Total Energy =                       -774.2765354080725047
  Basis Set: (AUG-CC-PVTZ AUX)
    Blend: AUG-CC-PVTZ-RI
    Molecular point group: c1

    Geometry (in Angstrom), charge = 0, multiplicity = 1:

       Center              X                  Y                   Z               Mass
    ------------   -----------------  -----------------  -----------------  -----------------
         S            1.502335460243    -1.050928738815     0.000000943522    31.972071174400
         O           -1.472959539757    -1.529354738815    -0.000001056478    15.994914619570
         N           -2.061996539757     0.703599261185    -0.000000056478    14.003074004430
         N            0.632175460243     1.384146261185    -0.000001056478    14.003074004430
         C            0.258839860243     0.112900061185    -0.000000056478    12.000000000000
         C           -1.182647539757    -0.326486738815    -0.000001056478    12.000000000000
         C           -3.495838539757     0.495043261185     0.000000943522    12.000000000000
         C            2.642577460243     0.225653261185    -0.000000056478    12.000000000000
         C            1.997576460243     1.444413261185    -0.000000056478    12.000000000000
         H           -1.667494539757     1.638072261185     0.000000943522     1.007825032230
         H           -3.953658539757     0.933514261185    -0.891194056478     1.007825032230
         H           -3.953656539757     0.933506261185     0.891200943522     1.007825032230
         H           -3.666608539757    -0.581321738815    -0.000003056478     1.007825032230
         H            3.707744460243     0.033492261185     0.000000943522     1.007825032230
         H            2.491661460243     2.409873261185    -0.000000056478     1.007825032230

  Basis Set: AUG-CC-PVTZ
    Blend: AUG-CC-PVTZ
  Basis Set: (AUG-CC-PVTZ AUX)
    Blend: AUG-CC-PVTZ-JKFIT
	 Reference Energy          =    -774.2765354080725047 [Eh]
	 Singles Energy            =      -0.0000000000000000 [Eh]
	 Same-Spin Energy          =      -0.4586634549866697 [Eh]
	 Opposite-Spin Energy      =      -1.3687048524983920 [Eh]
	 Correlation Energy        =      -1.8273683074850617 [Eh]
	 Total Energy              =    -776.1039037155575215 [Eh]

	 ================> DF-SCS-MP2 Energies <==================
	-----------------------------------------------------------
	 SCS Same-Spin Scale       =       0.3333333333333333 [-]
	 SCS Opposite-Spin Scale   =       1.2000000000000000 [-]
	 SCS Same-Spin Energy      =      -0.1528878183288899 [Eh]
	 SCS Opposite-Spin Energy  =      -1.6424458229980703 [Eh]
	 SCS Correlation Energy    =      -1.7953336413269603 [Eh]
	 SCS Total Energy          =    -776.0718690493994245 [Eh]
	-----------------------------------------------------------

  Dipole Moment: [D]
     X:     1.1317      Y:     2.4043      Z:     0.0000     Total:     2.6573

*** Psi4 exiting successfully. Buy a developer a beer!
