                               Psi4 1.3.2 release

  ==> Input File <==

--------------------------------------------------------------------------
#psi4
#
memory 32 gb

molecule  {
0 1
  S        1.5510760    -1.0871590     0.0000010
  O       -1.4242190    -1.5655850    -0.0000010
  N       -2.0132560     0.6673690     0.0000000
  N        0.6809160     1.3479160    -0.0000010
  C        0.2854510     0.0833790     0.0000000
  C       -1.1339070    -0.3627170    -0.0000010
  C       -3.4470980     0.4588130     0.0000010
  C        2.6913180     0.1894230     0.0000000
  C        2.0463170     1.4081830     0.0000000
  H       -1.6187540     1.6018420     0.0000010
  H       -3.9049180     0.8972840    -0.8911940
  H       -3.9049160     0.8972760     0.8912010
  H       -3.6178680    -0.6175520    -0.0000030
  H        3.7564850    -0.0027380     0.0000010
  H        2.6315160     2.5516830     0.0000000
units angstrom
no_reorient  #important for SAPT in psi4, default
symmetry c1  #important for SAPT in psi4, default
}

set PROPERTIES_ORIGIN ["COM"]
properties('MP2/aug-cc-pvtz', properties = ['dipole'])
--------------------------------------------------------------------------

    Molecular point group: c1
  Charge       = 0
  Multiplicity = 1
  Basis Set: AUG-CC-PVTZ
    Blend: AUG-CC-PVTZ
  Basis Set: (AUG-CC-PVTZ AUX)
    Blend: AUG-CC-PVTZ-JKFIT

    Orbital Energies [Eh]
    ---------------------

    Doubly Occupied:

       1A    -92.014144     2A    -20.529942     3A    -15.599221
       4A    -15.594430     5A    -11.370186     6A    -11.326182
       7A    -11.305205     8A    -11.284381     9A    -11.264147
      10A     -9.014005    11A     -6.694705    12A     -6.694174
      13A     -6.693538    14A     -1.384924    15A     -1.297472
      16A     -1.238546    17A     -1.082588    18A     -1.032715
      19A     -0.958354    20A     -0.846839    21A     -0.795983
      22A     -0.775234    23A     -0.717408    24A     -0.651608
      25A     -0.636186    26A     -0.634207    27A     -0.587421
      28A     -0.585544    29A     -0.568777    30A     -0.552283
      31A     -0.533009    32A     -0.507800    33A     -0.465461
      34A     -0.437601    35A     -0.409590    36A     -0.393312
      37A     -0.349361

  @DF-RHF Final Energy:  -774.25372443753940

   => Energetics <=

    Nuclear Repulsion Energy =            503.8583955943262822
    One-Electron Energy =               -2062.5712744294628465
    Two-Electron Energy =                 784.4591543975971035
    Total Energy =                       -774.2537244375394039
  Basis Set: (AUG-CC-PVTZ AUX)
    Blend: AUG-CC-PVTZ-RI
    Molecular point group: c1

    Geometry (in Angstrom), charge = 0, multiplicity = 1:

       Center              X                  Y                   Z               Mass
    ------------   -----------------  -----------------  -----------------  -----------------
         S            1.503558708569    -1.052759068452     0.000000943522    31.972071174400
         O           -1.471736291431    -1.531185068452    -0.000001056478    15.994914619570
         N           -2.060773291431     0.701768931548    -0.000000056478    14.003074004430
         N            0.633398708569     1.382315931548    -0.000001056478    14.003074004430
         C            0.237933708569     0.117778931548    -0.000000056478    12.000000000000
         C           -1.181424291431    -0.328317068452    -0.000001056478    12.000000000000
         C           -3.494615291431     0.493212931548     0.000000943522    12.000000000000
         C            2.643800708569     0.223822931548    -0.000000056478    12.000000000000
         C            1.998799708569     1.442582931548    -0.000000056478    12.000000000000
         H           -1.666271291431     1.636241931548     0.000000943522     1.007825032230
         H           -3.952435291431     0.931683931548    -0.891194056478     1.007825032230
         H           -3.952433291431     0.931675931548     0.891200943522     1.007825032230
         H           -3.665385291431    -0.583152068452    -0.000003056478     1.007825032230
         H            3.708967708569     0.031661931548     0.000000943522     1.007825032230
         H            2.583998708569     2.586082931548    -0.000000056478     1.007825032230

  Basis Set: AUG-CC-PVTZ
    Blend: AUG-CC-PVTZ
  Basis Set: (AUG-CC-PVTZ AUX)
    Blend: AUG-CC-PVTZ-JKFIT
	 Reference Energy          =    -774.2537244375394039 [Eh]
	 Singles Energy            =      -0.0000000000000000 [Eh]
	 Same-Spin Energy          =      -0.4594588667087427 [Eh]
	 Opposite-Spin Energy      =      -1.3711520736065239 [Eh]
	 Correlation Energy        =      -1.8306109403152666 [Eh]
	 Total Energy              =    -776.0843353778546998 [Eh]

	 ================> DF-SCS-MP2 Energies <==================
	-----------------------------------------------------------
	 SCS Same-Spin Scale       =       0.3333333333333333 [-]
	 SCS Opposite-Spin Scale   =       1.2000000000000000 [-]
	 SCS Same-Spin Energy      =      -0.1531529555695809 [Eh]
	 SCS Opposite-Spin Energy  =      -1.6453824883278287 [Eh]
	 SCS Correlation Energy    =      -1.7985354438974097 [Eh]
	 SCS Total Energy          =    -776.0522598814368394 [Eh]
	-----------------------------------------------------------

  Dipole Moment: [D]
     X:     1.0607      Y:     2.4137      Z:     0.0000     Total:     2.6365

*** Psi4 exiting successfully. Buy a developer a beer!
