                               Psi4 1.4a3.dev225

  ==> Input File <==

--------------------------------------------------------------------------
#psi4
#
memory 32 gb

molecule  {
0 1
  S        1.5510760    -1.0871590     0.0000010
  O       -1.4242190    -1.5655850    -0.0000010
  N       -2.0132560     0.6673690     0.0000000
  N        0.6809160     1.3479160    -0.0000010
  C        0.2854510     0.0833790     0.0000000
  C       -1.1339070    -0.3627170    -0.0000010
  C       -3.4470980     0.4588130     0.0000010
  C        2.6913180     0.1894230     0.0000000
  C        2.0229290     1.4523758     0.0000000
  H       -1.6187540     1.6018420     0.0000010
  H       -3.9049180     0.8972840    -0.8911940
  H       -3.9049160     0.8972760     0.8912010
  H       -3.6178680    -0.6175520    -0.0000030
  H        3.7564850    -0.0027380     0.0000010
  H        2.5404020     2.3736430     0.0000000
units angstrom
no_reorient  #important for SAPT in psi4, default
symmetry c1  #important for SAPT in psi4, default
}

set PROPERTIES_ORIGIN ["COM"]
properties('MP2/aug-cc-pvtz', properties = ['dipole'])
--------------------------------------------------------------------------

    Molecular point group: c1
  Charge       = 0
  Multiplicity = 1
  Basis Set: AUG-CC-PVTZ
    Blend: AUG-CC-PVTZ
  Basis Set: (AUG-CC-PVTZ AUX)
    Blend: AUG-CC-PVTZ-JKFIT

    Orbital Energies [Eh]
    ---------------------

    Doubly Occupied:

       1A    -92.016272     2A    -20.527670     3A    -15.596675
       4A    -15.592646     5A    -11.368266     6A    -11.322393
       7A    -11.289139     8A    -11.287766     9A    -11.263022
      10A     -9.015748    11A     -6.696417    12A     -6.695896
      13A     -6.695358    14A     -1.382947    15A     -1.297511
      16A     -1.236939    17A     -1.080196    18A     -1.033863
      19A     -0.957284    20A     -0.845523    21A     -0.809986
      22A     -0.776929    23A     -0.715611    24A     -0.663342
      25A     -0.648821    26A     -0.632834    27A     -0.604910
      28A     -0.583924    29A     -0.566383    30A     -0.551153
      31A     -0.530927    32A     -0.516546    33A     -0.463814
      34A     -0.435938    35A     -0.410048    36A     -0.393207
      37A     -0.340138

  @DF-RHF Final Energy:  -774.27133447435676

   => Energetics <=

    Nuclear Repulsion Energy =            504.3312571651335929
    One-Electron Energy =               -2063.5131043701480849
    Two-Electron Energy =                 784.9105127306577288
    Total Energy =                       -774.2713344743567632
  Basis Set: (AUG-CC-PVTZ AUX)
    Blend: AUG-CC-PVTZ-RI
    Molecular point group: c1

    Geometry (in Angstrom), charge = 0, multiplicity = 1:

       Center              X                  Y                   Z               Mass
    ------------   -----------------  -----------------  -----------------  -----------------
         S            1.506181457123    -1.055229707965     0.000000943522    31.972071174400
         O           -1.469113542877    -1.533655707965    -0.000001056478    15.994914619570
         N           -2.058150542877     0.699298292035    -0.000000056478    14.003074004430
         N            0.636021457123     1.379845292035    -0.000001056478    14.003074004430
         C            0.240556457123     0.115308292035    -0.000000056478    12.000000000000
         C           -1.178801542877    -0.330787707965    -0.000001056478    12.000000000000
         C           -3.491992542877     0.490742292035     0.000000943522    12.000000000000
         C            2.646423457123     0.221352292035    -0.000000056478    12.000000000000
         C            1.978034457123     1.484305092035    -0.000000056478    12.000000000000
         H           -1.663648542877     1.633771292035     0.000000943522     1.007825032230
         H           -3.949812542877     0.929213292035    -0.891194056478     1.007825032230
         H           -3.949810542877     0.929205292035     0.891200943522     1.007825032230
         H           -3.662762542877    -0.585622707965    -0.000003056478     1.007825032230
         H            3.711590457123     0.029191292035     0.000000943522     1.007825032230
         H            2.495507457123     2.405572292035    -0.000000056478     1.007825032230

  Basis Set: AUG-CC-PVTZ
    Blend: AUG-CC-PVTZ
  Basis Set: (AUG-CC-PVTZ AUX)
    Blend: AUG-CC-PVTZ-JKFIT
	 Reference Energy          =    -774.2713344743567632 [Eh]
	 Singles Energy            =      -0.0000000000000000 [Eh]
	 Same-Spin Energy          =      -0.4600770429888753 [Eh]
	 Opposite-Spin Energy      =      -1.3704439628594733 [Eh]
	 Correlation Energy        =      -1.8305210058483485 [Eh]
	 Total Energy              =    -776.1018554802051312 [Eh]

	 ================> DF-SCS-MP2 Energies <==================
	-----------------------------------------------------------
	 SCS Same-Spin Scale       =       0.3333333333333333 [-]
	 SCS Opposite-Spin Scale   =       1.2000000000000000 [-]
	 SCS Same-Spin Energy      =      -0.1533590143296251 [Eh]
	 SCS Opposite-Spin Energy  =      -1.6445327554313680 [Eh]
	 SCS Correlation Energy    =      -1.7978917697609931 [Eh]
	 SCS Total Energy          =    -776.0692262441177718 [Eh]
	-----------------------------------------------------------

  Dipole Moment: [D]
     X:     1.1590      Y:     2.4892      Z:     0.0000     Total:     2.7458

*** Psi4 exiting successfully. Buy a developer a beer!
