                               Psi4 1.4a3.dev225

  ==> Input File <==

--------------------------------------------------------------------------
#psi4
#
memory 32 gb

molecule  {
0 1
  S        1.5510760    -1.0871590     0.0000010
  O       -1.4242190    -1.5655850    -0.0000010
  N       -2.0132560     0.6673690     0.0000000
  N        0.6809160     1.3479160    -0.0000010
  C        0.2854510     0.0833790     0.0000000
  C       -1.1339070    -0.3627170    -0.0000010
  C       -3.4470980     0.4588130     0.0000010
  C        2.7046412     0.2043392    -0.0000000
  C        2.0463170     1.4081830     0.0000000
  H       -1.6187540     1.6018420     0.0000010
  H       -3.9049180     0.8972840    -0.8911940
  H       -3.9049160     0.8972760     0.8912010
  H       -3.6178680    -0.6175520    -0.0000030
  H        3.7564850    -0.0027380     0.0000010
  H        2.5404020     2.3736430     0.0000000
units angstrom
no_reorient  #important for SAPT in psi4, default
symmetry c1  #important for SAPT in psi4, default
}

set PROPERTIES_ORIGIN ["COM"]
properties('MP2/aug-cc-pvtz', properties = ['dipole'])
--------------------------------------------------------------------------

    Molecular point group: c1
  Charge       = 0
  Multiplicity = 1
  Basis Set: AUG-CC-PVTZ
    Blend: AUG-CC-PVTZ
  Basis Set: (AUG-CC-PVTZ AUX)
    Blend: AUG-CC-PVTZ-JKFIT

    Orbital Energies [Eh]
    ---------------------

    Doubly Occupied:

       1A    -92.011976     2A    -20.529780     3A    -15.596893
       4A    -15.594300     5A    -11.369832     6A    -11.325930
       7A    -11.284988     8A    -11.282414     9A    -11.264046
      10A     -9.011574    11A     -6.692265    12A     -6.691732
      13A     -6.691126    14A     -1.384670    15A     -1.295826
      16A     -1.238318    17A     -1.077742    18A     -1.037153
      19A     -0.960800    20A     -0.848813    21A     -0.806121
      22A     -0.777823    23A     -0.719301    24A     -0.655726
      25A     -0.651318    26A     -0.633890    27A     -0.600463
      28A     -0.584104    29A     -0.569113    30A     -0.552424
      31A     -0.532191    32A     -0.514276    33A     -0.466508
      34A     -0.436807    35A     -0.407579    36A     -0.392001
      37A     -0.350680

  @DF-RHF Final Energy:  -774.27670235166931

   => Energetics <=

    Nuclear Repulsion Energy =            504.4643389851490269
    One-Electron Energy =               -2063.8010703538543567
    Two-Electron Energy =                 785.0600290170360722
    Total Energy =                       -774.2767023516693143
  Basis Set: (AUG-CC-PVTZ AUX)
    Blend: AUG-CC-PVTZ-RI
    Molecular point group: c1

    Geometry (in Angstrom), charge = 0, multiplicity = 1:

       Center              X                  Y                   Z               Mass
    ------------   -----------------  -----------------  -----------------  -----------------
         S            1.503079540918    -1.052755978968     0.000000943522    31.972071174400
         O           -1.472215459082    -1.531181978968    -0.000001056478    15.994914619570
         N           -2.061252459082     0.701772021032    -0.000000056478    14.003074004430
         N            0.632919540918     1.382319021032    -0.000001056478    14.003074004430
         C            0.237454540918     0.117782021032    -0.000000056478    12.000000000000
         C           -1.181903459082    -0.328313978968    -0.000001056478    12.000000000000
         C           -3.495094459082     0.493216021032     0.000000943522    12.000000000000
         C            2.656644740918     0.238742221032    -0.000000056478    12.000000000000
         C            1.998320540918     1.442586021032    -0.000000056478    12.000000000000
         H           -1.666750459082     1.636245021032     0.000000943522     1.007825032230
         H           -3.952914459082     0.931687021032    -0.891194056478     1.007825032230
         H           -3.952912459082     0.931679021032     0.891200943522     1.007825032230
         H           -3.665864459082    -0.583148978968    -0.000003056478     1.007825032230
         H            3.708488540918     0.031665021032     0.000000943522     1.007825032230
         H            2.492405540918     2.408046021032    -0.000000056478     1.007825032230

  Basis Set: AUG-CC-PVTZ
    Blend: AUG-CC-PVTZ
  Basis Set: (AUG-CC-PVTZ AUX)
    Blend: AUG-CC-PVTZ-JKFIT
	 Reference Energy          =    -774.2767023516693143 [Eh]
	 Singles Energy            =      -0.0000000000000000 [Eh]
	 Same-Spin Energy          =      -0.4584942993869054 [Eh]
	 Opposite-Spin Energy      =      -1.3689230312966507 [Eh]
	 Correlation Energy        =      -1.8274173306835562 [Eh]
	 Total Energy              =    -776.1041196823529162 [Eh]

	 ================> DF-SCS-MP2 Energies <==================
	-----------------------------------------------------------
	 SCS Same-Spin Scale       =       0.3333333333333333 [-]
	 SCS Opposite-Spin Scale   =       1.2000000000000000 [-]
	 SCS Same-Spin Energy      =      -0.1528314331289685 [Eh]
	 SCS Opposite-Spin Energy  =      -1.6427076375559808 [Eh]
	 SCS Correlation Energy    =      -1.7955390706849492 [Eh]
	 SCS Total Energy          =    -776.0722414223542955 [Eh]
	-----------------------------------------------------------

  Dipole Moment: [D]
     X:     1.1086      Y:     2.4656      Z:     0.0000     Total:     2.7034

*** Psi4 exiting successfully. Buy a developer a beer!
