                               Psi4 1.3.2 release

  ==> Input File <==

--------------------------------------------------------------------------
#psi4
#
memory 32 gb

molecule  {
0 1
  S        1.5510760    -1.0871590     0.0000010
  O       -1.4242190    -1.5655850    -0.0000010
  N       -2.0132560     0.6673690     0.0000000
  N        0.6809160     1.3479160    -0.0000010
  C        0.2453708     0.0384963     0.0000000
  C       -1.1339070    -0.3627170    -0.0000010
  C       -3.4470980     0.4588130     0.0000010
  C        2.6913180     0.1894230     0.0000000
  C        2.0463170     1.4081830     0.0000000
  H       -1.6187540     1.6018420     0.0000010
  H       -3.9049180     0.8972840    -0.8911940
  H       -3.9049160     0.8972760     0.8912010
  H       -3.6178680    -0.6175520    -0.0000030
  H        3.7564850    -0.0027380     0.0000010
  H        2.5404020     2.3736430     0.0000000
units angstrom
no_reorient  #important for SAPT in psi4, default
symmetry c1  #important for SAPT in psi4, default
}

set PROPERTIES_ORIGIN ["COM"]
properties('MP2/aug-cc-pvtz', properties = ['dipole'])
--------------------------------------------------------------------------

    Molecular point group: c1
  Charge       = 0
  Multiplicity = 1
  Basis Set: AUG-CC-PVTZ
    Blend: AUG-CC-PVTZ
  Basis Set: (AUG-CC-PVTZ AUX)
    Blend: AUG-CC-PVTZ-JKFIT

    Orbital Energies [Eh]
    ---------------------

    Doubly Occupied:

       1A    -92.017773     2A    -20.526733     3A    -15.601522
       4A    -15.592661     5A    -11.365287     6A    -11.325626
       7A    -11.286993     8A    -11.285054     9A    -11.263124
      10A     -9.017100    11A     -6.697767    12A     -6.697318
      13A     -6.696748    14A     -1.384884    15A     -1.281235
      16A     -1.236846    17A     -1.077561    18A     -1.042467
      19A     -0.959542    20A     -0.858758    21A     -0.798958
      22A     -0.778146    23A     -0.717489    24A     -0.656899
      25A     -0.651123    26A     -0.633730    27A     -0.598139
      28A     -0.581120    29A     -0.571390    30A     -0.551318
      31A     -0.530079    32A     -0.518539    33A     -0.458245
      34A     -0.441101    35A     -0.405632    36A     -0.390804
      37A     -0.347426

  @DF-RHF Final Energy:  -774.26732253022180

   => Energetics <=

    Nuclear Repulsion Energy =            504.6813057254271371
    One-Electron Energy =               -2064.2069769054724020
    Two-Electron Energy =                 785.2583486498234606
    Total Energy =                       -774.2673225302218043
  Basis Set: (AUG-CC-PVTZ AUX)
    Blend: AUG-CC-PVTZ-RI
    Molecular point group: c1

    Geometry (in Angstrom), charge = 0, multiplicity = 1:

       Center              X                  Y                   Z               Mass
    ------------   -----------------  -----------------  -----------------  -----------------
         S            1.507591866091    -1.047703265437     0.000000943522    31.972071174400
         O           -1.467703133909    -1.526129265437    -0.000001056478    15.994914619570
         N           -2.056740133909     0.706824734563    -0.000000056478    14.003074004430
         N            0.637431866091     1.387371734563    -0.000001056478    14.003074004430
         C            0.201886666091     0.077952034563    -0.000000056478    12.000000000000
         C           -1.177391133909    -0.323261265437    -0.000001056478    12.000000000000
         C           -3.490582133909     0.498268734563     0.000000943522    12.000000000000
         C            2.647833866091     0.228878734563    -0.000000056478    12.000000000000
         C            2.002832866091     1.447638734563    -0.000000056478    12.000000000000
         H           -1.662238133909     1.641297734563     0.000000943522     1.007825032230
         H           -3.948402133909     0.936739734563    -0.891194056478     1.007825032230
         H           -3.948400133909     0.936731734563     0.891200943522     1.007825032230
         H           -3.661352133909    -0.578096265437    -0.000003056478     1.007825032230
         H            3.713000866091     0.036717734563     0.000000943522     1.007825032230
         H            2.496917866091     2.413098734563    -0.000000056478     1.007825032230

  Basis Set: AUG-CC-PVTZ
    Blend: AUG-CC-PVTZ
  Basis Set: (AUG-CC-PVTZ AUX)
    Blend: AUG-CC-PVTZ-JKFIT
	 Reference Energy          =    -774.2673225302218043 [Eh]
	 Singles Energy            =      -0.0000000000000000 [Eh]
	 Same-Spin Energy          =      -0.4607412535257890 [Eh]
	 Opposite-Spin Energy      =      -1.3720062052482525 [Eh]
	 Correlation Energy        =      -1.8327474587740413 [Eh]
	 Total Energy              =    -776.1000699889958696 [Eh]

	 ================> DF-SCS-MP2 Energies <==================
	-----------------------------------------------------------
	 SCS Same-Spin Scale       =       0.3333333333333333 [-]
	 SCS Opposite-Spin Scale   =       1.2000000000000000 [-]
	 SCS Same-Spin Energy      =      -0.1535804178419297 [Eh]
	 SCS Opposite-Spin Energy  =      -1.6464074462979028 [Eh]
	 SCS Correlation Energy    =      -1.7999878641398324 [Eh]
	 SCS Total Energy          =    -776.0673103943615843 [Eh]
	-----------------------------------------------------------

  Dipole Moment: [D]
     X:     1.2966      Y:     2.4384      Z:     0.0000     Total:     2.7617

*** Psi4 exiting successfully. Buy a developer a beer!
