                               Psi4 1.3.2 release

  ==> Input File <==

--------------------------------------------------------------------------
#psi4
#
memory 32 gb

molecule  {
0 1
  S        1.5510760    -1.0871590     0.0000010
  O       -1.4242190    -1.5655850    -0.0000010
  N       -2.0132560     0.6673690     0.0000000
  N        0.6809160     1.3479160    -0.0000010
  C        0.4322804    -0.0524191     0.0000001
  C       -1.1339070    -0.3627170    -0.0000010
  C       -3.4470980     0.4588130     0.0000010
  C        2.6913180     0.1894230     0.0000000
  C        2.0463170     1.4081830     0.0000000
  H       -1.6187540     1.6018420     0.0000010
  H       -3.9049180     0.8972840    -0.8911940
  H       -3.9049160     0.8972760     0.8912010
  H       -3.6178680    -0.6175520    -0.0000030
  H        3.7564850    -0.0027380     0.0000010
  H        2.5404020     2.3736430     0.0000000
units angstrom
no_reorient  #important for SAPT in psi4, default
symmetry c1  #important for SAPT in psi4, default
}

set PROPERTIES_ORIGIN ["COM"]
properties('MP2/aug-cc-pvtz', properties = ['dipole'])
--------------------------------------------------------------------------

    Molecular point group: c1
  Charge       = 0
  Multiplicity = 1
  Basis Set: AUG-CC-PVTZ
    Blend: AUG-CC-PVTZ
  Basis Set: (AUG-CC-PVTZ AUX)
    Blend: AUG-CC-PVTZ-JKFIT

    Orbital Energies [Eh]
    ---------------------

    Doubly Occupied:

       1A    -92.022540     2A    -20.523496     3A    -15.593694
       4A    -15.589201     5A    -11.372463     6A    -11.319283
       7A    -11.285178     8A    -11.269992     9A    -11.263815
      10A     -9.027836    11A     -6.709270    12A     -6.707528
      13A     -6.707066    14A     -1.378642    15A     -1.285247
      16A     -1.234752    17A     -1.109786    18A     -1.022859
      19A     -0.957464    20A     -0.825984    21A     -0.798066
      22A     -0.774792    23A     -0.720667    24A     -0.647292
      25A     -0.646241    26A     -0.630029    27A     -0.588414
      28A     -0.584701    29A     -0.571313    30A     -0.550833
      31A     -0.531415    32A     -0.525033    33A     -0.468092
      34A     -0.428341    35A     -0.408317    36A     -0.392350
      37A     -0.346458

  @DF-RHF Final Energy:  -774.22816289102173

   => Energetics <=

    Nuclear Repulsion Energy =            506.1693877035548894
    One-Electron Energy =               -2067.1581979467796373
    Two-Electron Energy =                 786.7606473522029091
    Total Energy =                       -774.2281628910217250
  Basis Set: (AUG-CC-PVTZ AUX)
    Blend: AUG-CC-PVTZ-RI
    Molecular point group: c1

    Geometry (in Angstrom), charge = 0, multiplicity = 1:

       Center              X                  Y                   Z               Mass
    ------------   -----------------  -----------------  -----------------  -----------------
         S            1.491798922326    -1.040021360391     0.000000935072    31.972071174400
         O           -1.483496077674    -1.518447360391    -0.000001064928    15.994914619570
         N           -2.072533077674     0.714506639609    -0.000000064928    14.003074004430
         N            0.621638922326     1.395053639609    -0.000001064928    14.003074004430
         C            0.373003322326    -0.005281460391     0.000000035072    12.000000000000
         C           -1.193184077674    -0.315579360391    -0.000001064928    12.000000000000
         C           -3.506375077674     0.505950639609     0.000000935072    12.000000000000
         C            2.632040922326     0.236560639609    -0.000000064928    12.000000000000
         C            1.987039922326     1.455320639609    -0.000000064928    12.000000000000
         H           -1.678031077674     1.648979639609     0.000000935072     1.007825032230
         H           -3.964195077674     0.944421639609    -0.891194064928     1.007825032230
         H           -3.964193077674     0.944413639609     0.891200935072     1.007825032230
         H           -3.677145077674    -0.570414360391    -0.000003064928     1.007825032230
         H            3.697207922326     0.044399639609     0.000000935072     1.007825032230
         H            2.481124922326     2.420780639609    -0.000000064928     1.007825032230

  Basis Set: AUG-CC-PVTZ
    Blend: AUG-CC-PVTZ
  Basis Set: (AUG-CC-PVTZ AUX)
    Blend: AUG-CC-PVTZ-JKFIT
	 Reference Energy          =    -774.2281628910217250 [Eh]
	 Singles Energy            =      -0.0000000000000000 [Eh]
	 Same-Spin Energy          =      -0.4611590684456510 [Eh]
	 Opposite-Spin Energy      =      -1.3719263305925669 [Eh]
	 Correlation Energy        =      -1.8330853990382179 [Eh]
	 Total Energy              =    -776.0612482900598934 [Eh]

	 ================> DF-SCS-MP2 Energies <==================
	-----------------------------------------------------------
	 SCS Same-Spin Scale       =       0.3333333333333333 [-]
	 SCS Opposite-Spin Scale   =       1.2000000000000000 [-]
	 SCS Same-Spin Energy      =      -0.1537196894818837 [Eh]
	 SCS Opposite-Spin Energy  =      -1.6463115967110802 [Eh]
	 SCS Correlation Energy    =      -1.8000312861929639 [Eh]
	 SCS Total Energy          =    -776.0281941772146865 [Eh]
	-----------------------------------------------------------

  Dipole Moment: [D]
     X:     1.2811      Y:     2.0729      Z:     0.0000     Total:     2.4369

*** Psi4 exiting successfully. Buy a developer a beer!
