                               Psi4 1.3.2 release

  ==> Input File <==

--------------------------------------------------------------------------
#psi4
#
memory 32 gb

molecule  {
0 1
  S        1.5510760    -1.0871590     0.0000010
  O       -1.4242190    -1.5655850    -0.0000010
  N       -2.0132560     0.6673690     0.0000000
  N        0.6800722     1.3717547    -0.0000010
  C        0.2854510     0.0833790     0.0000000
  C       -1.1339070    -0.3627170    -0.0000010
  C       -3.4470980     0.4588130     0.0000010
  C        2.6913180     0.1894230     0.0000000
  C        2.0463170     1.4081830     0.0000000
  H       -1.6187540     1.6018420     0.0000010
  H       -3.9049180     0.8972840    -0.8911940
  H       -3.9049160     0.8972760     0.8912010
  H       -3.6178680    -0.6175520    -0.0000030
  H        3.7564850    -0.0027380     0.0000010
  H        2.5404020     2.3736430     0.0000000
units angstrom
no_reorient  #important for SAPT in psi4, default
symmetry c1  #important for SAPT in psi4, default
}

set PROPERTIES_ORIGIN ["COM"]
properties('MP2/aug-cc-pvtz', properties = ['dipole'])
--------------------------------------------------------------------------

    Molecular point group: c1
  Charge       = 0
  Multiplicity = 1
  Basis Set: AUG-CC-PVTZ
    Blend: AUG-CC-PVTZ
  Basis Set: (AUG-CC-PVTZ AUX)
    Blend: AUG-CC-PVTZ-JKFIT

    Orbital Energies [Eh]
    ---------------------

    Doubly Occupied:

       1A    -92.015424     2A    -20.529138     3A    -15.599985
       4A    -15.593761     5A    -11.369525     6A    -11.327249
       7A    -11.285311     8A    -11.282499     9A    -11.263691
      10A     -9.015101    11A     -6.695796    12A     -6.695258
      13A     -6.694665    14A     -1.384064    15A     -1.290486
      16A     -1.237774    17A     -1.081762    18A     -1.034937
      19A     -0.959212    20A     -0.848375    21A     -0.802397
      22A     -0.777631    23A     -0.718975    24A     -0.653687
      25A     -0.649915    26A     -0.633231    27A     -0.597607
      28A     -0.582510    29A     -0.567412    30A     -0.552049
      31A     -0.531858    32A     -0.518817    33A     -0.467541
      34A     -0.438544    35A     -0.408305    36A     -0.392543
      37A     -0.347329

  @DF-RHF Final Energy:  -774.27374851469870

   => Energetics <=

    Nuclear Repulsion Energy =            504.1799791366067893
    One-Electron Energy =               -2063.2187315342571310
    Two-Electron Energy =                 784.7650038829516461
    Total Energy =                       -774.2737485146986955
  Basis Set: (AUG-CC-PVTZ AUX)
    Blend: AUG-CC-PVTZ-RI
    Molecular point group: c1

    Geometry (in Angstrom), charge = 0, multiplicity = 1:

       Center              X                  Y                   Z               Mass
    ------------   -----------------  -----------------  -----------------  -----------------
         S            1.504288483971    -1.053846111264     0.000000943522    31.972071174400
         O           -1.471006516029    -1.532272111264    -0.000001056478    15.994914619570
         N           -2.060043516029     0.700681888736    -0.000000056478    14.003074004430
         N            0.633284683971     1.405067588736    -0.000001056478    14.003074004430
         C            0.238663483971     0.116691888736    -0.000000056478    12.000000000000
         C           -1.180694516029    -0.329404111264    -0.000001056478    12.000000000000
         C           -3.493885516029     0.492125888736     0.000000943522    12.000000000000
         C            2.644530483971     0.222735888736    -0.000000056478    12.000000000000
         C            1.999529483971     1.441495888736    -0.000000056478    12.000000000000
         H           -1.665541516029     1.635154888736     0.000000943522     1.007825032230
         H           -3.951705516029     0.930596888736    -0.891194056478     1.007825032230
         H           -3.951703516029     0.930588888736     0.891200943522     1.007825032230
         H           -3.664655516029    -0.584239111264    -0.000003056478     1.007825032230
         H            3.709697483971     0.030574888736     0.000000943522     1.007825032230
         H            2.493614483971     2.406955888736    -0.000000056478     1.007825032230

  Basis Set: AUG-CC-PVTZ
    Blend: AUG-CC-PVTZ
  Basis Set: (AUG-CC-PVTZ AUX)
    Blend: AUG-CC-PVTZ-JKFIT
	 Reference Energy          =    -774.2737485146986955 [Eh]
	 Singles Energy            =      -0.0000000000000000 [Eh]
	 Same-Spin Energy          =      -0.4594748387348991 [Eh]
	 Opposite-Spin Energy      =      -1.3702953127036899 [Eh]
	 Correlation Energy        =      -1.8297701514385891 [Eh]
	 Total Energy              =    -776.1035186661372336 [Eh]

	 ================> DF-SCS-MP2 Energies <==================
	-----------------------------------------------------------
	 SCS Same-Spin Scale       =       0.3333333333333333 [-]
	 SCS Opposite-Spin Scale   =       1.2000000000000000 [-]
	 SCS Same-Spin Energy      =      -0.1531582795782997 [Eh]
	 SCS Opposite-Spin Energy  =      -1.6443543752444278 [Eh]
	 SCS Correlation Energy    =      -1.7975126548227276 [Eh]
	 SCS Total Energy          =    -776.0712611695214491 [Eh]
	-----------------------------------------------------------

  Dipole Moment: [D]
     X:     1.1616      Y:     2.3758      Z:     0.0000     Total:     2.6446

*** Psi4 exiting successfully. Buy a developer a beer!
