                               Psi4 1.3.2 release

  ==> Input File <==

--------------------------------------------------------------------------
#psi4
#
memory 32 gb

molecule  {
0 1
  S        1.5510760    -1.0871590     0.0000010
  O       -1.4242190    -1.5655850    -0.0000010
  N       -2.0132560     0.6673690     0.0000000
  N        0.6809160     1.3479160    -0.0000010
  C        0.2854510     0.0833790     0.0000000
  C       -1.1339070    -0.3627170    -0.0000010
  C       -3.4470980     0.4588130     0.0000010
  C        2.5603895     0.1286785     0.0000000
  C        2.0463170     1.4081830     0.0000000
  H       -1.6187540     1.6018420     0.0000010
  H       -3.9049180     0.8972840    -0.8911940
  H       -3.9049160     0.8972760     0.8912010
  H       -3.6178680    -0.6175520    -0.0000030
  H        3.7564850    -0.0027380     0.0000010
  H        2.5404020     2.3736430     0.0000000
units angstrom
no_reorient  #important for SAPT in psi4, default
symmetry c1  #important for SAPT in psi4, default
}

set PROPERTIES_ORIGIN ["COM"]
properties('MP2/aug-cc-pvtz', properties = ['dipole'])
--------------------------------------------------------------------------

    Molecular point group: c1
  Charge       = 0
  Multiplicity = 1
  Basis Set: AUG-CC-PVTZ
    Blend: AUG-CC-PVTZ
  Basis Set: (AUG-CC-PVTZ AUX)
    Blend: AUG-CC-PVTZ-JKFIT

    Orbital Energies [Eh]
    ---------------------

    Doubly Occupied:

       1A    -92.015185     2A    -20.525277     3A    -15.596748
       4A    -15.590127     5A    -11.365302     6A    -11.314978
       7A    -11.283345     8A    -11.280475     9A    -11.261473
      10A     -9.018488    11A     -6.699564    12A     -6.698421
      13A     -6.697775    14A     -1.380881    15A     -1.303031
      16A     -1.235325    17A     -1.109126    18A     -1.031404
      19A     -0.954736    20A     -0.845856    21A     -0.793238
      22A     -0.776224    23A     -0.721436    24A     -0.655539
      25A     -0.641974    26A     -0.631794    27A     -0.592357
      28A     -0.590116    29A     -0.557070    30A     -0.549048
      31A     -0.533570    32A     -0.529047    33A     -0.464761
      34A     -0.435119    35A     -0.417744    36A     -0.393070
      37A     -0.340534

  @DF-RHF Final Energy:  -774.25048987367370

   => Energetics <=

    Nuclear Repulsion Energy =            508.3798112326593923
    One-Electron Energy =               -2071.6002851464199921
    Two-Electron Energy =                 788.9699840400868425
    Total Energy =                       -774.2504898736737005
  Basis Set: (AUG-CC-PVTZ AUX)
    Blend: AUG-CC-PVTZ-RI
    Molecular point group: c1

    Geometry (in Angstrom), charge = 0, multiplicity = 1:

       Center              X                  Y                   Z               Mass
    ------------   -----------------  -----------------  -----------------  -----------------
         S            1.515268101517    -1.046363021194     0.000000943522    31.972071174400
         O           -1.460026898483    -1.524789021194    -0.000001056478    15.994914619570
         N           -2.049063898483     0.708164978806    -0.000000056478    14.003074004430
         N            0.645108101517     1.388711978806    -0.000001056478    14.003074004430
         C            0.249643101517     0.124174978806    -0.000000056478    12.000000000000
         C           -1.169714898483    -0.321921021194    -0.000001056478    12.000000000000
         C           -3.482905898483     0.499608978806     0.000000943522    12.000000000000
         C            2.524581601517     0.169474478806    -0.000000056478    12.000000000000
         C            2.010509101517     1.448978978806    -0.000000056478    12.000000000000
         H           -1.654561898483     1.642637978806     0.000000943522     1.007825032230
         H           -3.940725898483     0.938079978806    -0.891194056478     1.007825032230
         H           -3.940723898483     0.938071978806     0.891200943522     1.007825032230
         H           -3.653675898483    -0.576756021194    -0.000003056478     1.007825032230
         H            3.720677101517     0.038057978806     0.000000943522     1.007825032230
         H            2.504594101517     2.414438978806    -0.000000056478     1.007825032230

  Basis Set: AUG-CC-PVTZ
    Blend: AUG-CC-PVTZ
  Basis Set: (AUG-CC-PVTZ AUX)
    Blend: AUG-CC-PVTZ-JKFIT
	 Reference Energy          =    -774.2504898736737005 [Eh]
	 Singles Energy            =      -0.0000000000000000 [Eh]
	 Same-Spin Energy          =      -0.4611486871726987 [Eh]
	 Opposite-Spin Energy      =      -1.3704511296629616 [Eh]
	 Correlation Energy        =      -1.8315998168356602 [Eh]
	 Total Energy              =    -776.0820896905094060 [Eh]

	 ================> DF-SCS-MP2 Energies <==================
	-----------------------------------------------------------
	 SCS Same-Spin Scale       =       0.3333333333333333 [-]
	 SCS Opposite-Spin Scale   =       1.2000000000000000 [-]
	 SCS Same-Spin Energy      =      -0.1537162290575662 [Eh]
	 SCS Opposite-Spin Energy  =      -1.6445413555955539 [Eh]
	 SCS Correlation Energy    =      -1.7982575846531201 [Eh]
	 SCS Total Energy          =    -776.0487474583268295 [Eh]
	-----------------------------------------------------------

  Dipole Moment: [D]
     X:     1.2064      Y:     2.3451      Z:     0.0000     Total:     2.6372

*** Psi4 exiting successfully. Buy a developer a beer!
