                               Psi4 1.3.2 release

  ==> Input File <==

--------------------------------------------------------------------------
#psi4
#
memory 32 gb

molecule  {
0 1
  S        1.5510760    -1.0871590     0.0000010
  O       -1.4031818    -1.5704684    -0.0000010
  N       -2.0132560     0.6673690     0.0000000
  N        0.6809160     1.3479160    -0.0000010
  C        0.2854510     0.0833790     0.0000000
  C       -1.1339070    -0.3627170    -0.0000010
  C       -3.4470980     0.4588130     0.0000010
  C        2.6913180     0.1894230     0.0000000
  C        2.0463170     1.4081830     0.0000000
  H       -1.6187540     1.6018420     0.0000010
  H       -3.9049180     0.8972840    -0.8911940
  H       -3.9049160     0.8972760     0.8912010
  H       -3.6178680    -0.6175520    -0.0000030
  H        3.7564850    -0.0027380     0.0000010
  H        2.5404020     2.3736430     0.0000000
units angstrom
no_reorient  #important for SAPT in psi4, default
symmetry c1  #important for SAPT in psi4, default
}

set PROPERTIES_ORIGIN ["COM"]
properties('MP2/aug-cc-pvtz', properties = ['dipole'])
--------------------------------------------------------------------------

    Molecular point group: c1
  Charge       = 0
  Multiplicity = 1
  Basis Set: AUG-CC-PVTZ
    Blend: AUG-CC-PVTZ
  Basis Set: (AUG-CC-PVTZ AUX)
    Blend: AUG-CC-PVTZ-JKFIT

    Orbital Energies [Eh]
    ---------------------

    Doubly Occupied:

       1A    -92.012122     2A    -20.529728     3A    -15.596292
       4A    -15.594937     5A    -11.369589     6A    -11.323592
       7A    -11.284496     8A    -11.281988     9A    -11.264642
      10A     -9.012015    11A     -6.692718    12A     -6.692190
      13A     -6.691563    14A     -1.384384    15A     -1.295465
      16A     -1.239306    17A     -1.080529    18A     -1.035258
      19A     -0.960288    20A     -0.847853    21A     -0.804393
      22A     -0.778301    23A     -0.718137    24A     -0.655521
      25A     -0.650838    26A     -0.634114    27A     -0.599428
      28A     -0.584334    29A     -0.567433    30A     -0.553191
      31A     -0.532300    32A     -0.517263    33A     -0.465933
      34A     -0.436620    35A     -0.408651    36A     -0.392853
      37A     -0.347804

  @DF-RHF Final Energy:  -774.27650515795199

   => Energetics <=

    Nuclear Repulsion Energy =            504.9498267608926767
    One-Electron Energy =               -2064.7805274485863265
    Two-Electron Energy =                 785.5541955297417189
    Total Energy =                       -774.2765051579519877
  Basis Set: (AUG-CC-PVTZ AUX)
    Blend: AUG-CC-PVTZ-RI
    Molecular point group: c1

    Geometry (in Angstrom), charge = 0, multiplicity = 1:

       Center              X                  Y                   Z               Mass
    ------------   -----------------  -----------------  -----------------  -----------------
         S            1.501835985691    -1.050945643705     0.000000943522    31.972071174400
         O           -1.452421814309    -1.534255043705    -0.000001056478    15.994914619570
         N           -2.062496014309     0.703582356295    -0.000000056478    14.003074004430
         N            0.631675985691     1.384129356295    -0.000001056478    14.003074004430
         C            0.236210985691     0.119592356295    -0.000000056478    12.000000000000
         C           -1.183147014309    -0.326503643705    -0.000001056478    12.000000000000
         C           -3.496338014309     0.495026356295     0.000000943522    12.000000000000
         C            2.642077985691     0.225636356295    -0.000000056478    12.000000000000
         C            1.997076985691     1.444396356295    -0.000000056478    12.000000000000
         H           -1.667994014309     1.638055356295     0.000000943522     1.007825032230
         H           -3.954158014309     0.933497356295    -0.891194056478     1.007825032230
         H           -3.954156014309     0.933489356295     0.891200943522     1.007825032230
         H           -3.667108014309    -0.581338643705    -0.000003056478     1.007825032230
         H            3.707244985691     0.033475356295     0.000000943522     1.007825032230
         H            2.491161985691     2.409856356295    -0.000000056478     1.007825032230

  Basis Set: AUG-CC-PVTZ
    Blend: AUG-CC-PVTZ
  Basis Set: (AUG-CC-PVTZ AUX)
    Blend: AUG-CC-PVTZ-JKFIT
	 Reference Energy          =    -774.2765051579519877 [Eh]
	 Singles Energy            =      -0.0000000000000000 [Eh]
	 Same-Spin Energy          =      -0.4588051508291430 [Eh]
	 Opposite-Spin Energy      =      -1.3690498695818247 [Eh]
	 Correlation Energy        =      -1.8278550204109676 [Eh]
	 Total Energy              =    -776.1043601783629811 [Eh]

	 ================> DF-SCS-MP2 Energies <==================
	-----------------------------------------------------------
	 SCS Same-Spin Scale       =       0.3333333333333333 [-]
	 SCS Opposite-Spin Scale   =       1.2000000000000000 [-]
	 SCS Same-Spin Energy      =      -0.1529350502763810 [Eh]
	 SCS Opposite-Spin Energy  =      -1.6428598434981896 [Eh]
	 SCS Correlation Energy    =      -1.7957948937745707 [Eh]
	 SCS Total Energy          =    -776.0723000517265291 [Eh]
	-----------------------------------------------------------

  Dipole Moment: [D]
     X:     1.0397      Y:     2.4550      Z:     0.0000     Total:     2.6661

*** Psi4 exiting successfully. Buy a developer a beer!
