                               Psi4 1.3.2 release

  ==> Input File <==

--------------------------------------------------------------------------
#psi4
#
memory 32 gb

molecule  {
0 1
  S        1.5713119    -1.0648925     0.0000010
  O       -1.4242190    -1.5655850    -0.0000010
  N       -2.0132560     0.6673690     0.0000000
  N        0.6809160     1.3479160    -0.0000010
  C        0.2854510     0.0833790     0.0000000
  C       -1.1339070    -0.3627170    -0.0000010
  C       -3.4470980     0.4588130     0.0000010
  C        2.6913180     0.1894230     0.0000000
  C        2.0463170     1.4081830     0.0000000
  H       -1.6187540     1.6018420     0.0000010
  H       -3.9049180     0.8972840    -0.8911940
  H       -3.9049160     0.8972760     0.8912010
  H       -3.6178680    -0.6175520    -0.0000030
  H        3.7564850    -0.0027380     0.0000010
  H        2.5404020     2.3736430     0.0000000
units angstrom
no_reorient  #important for SAPT in psi4, default
symmetry c1  #important for SAPT in psi4, default
}

set PROPERTIES_ORIGIN ["COM"]
properties('MP2/aug-cc-pvtz', properties = ['dipole'])
--------------------------------------------------------------------------

    Molecular point group: c1
  Charge       = 0
  Multiplicity = 1
  Basis Set: AUG-CC-PVTZ
    Blend: AUG-CC-PVTZ
  Basis Set: (AUG-CC-PVTZ AUX)
    Blend: AUG-CC-PVTZ-JKFIT

    Orbital Energies [Eh]
    ---------------------

    Doubly Occupied:

       1A    -92.012072     2A    -20.528621     3A    -15.597108
       4A    -15.593572     5A    -11.369318     6A    -11.323211
       7A    -11.284299     8A    -11.280835     9A    -11.263603
      10A     -9.012693    11A     -6.693438    12A     -6.692920
      13A     -6.692253    14A     -1.383656    15A     -1.297508
      16A     -1.237813    17A     -1.087649    18A     -1.034914
      19A     -0.959540    20A     -0.848117    21A     -0.804598
      22A     -0.777709    23A     -0.721048    24A     -0.655897
      25A     -0.650720    26A     -0.633486    27A     -0.598981
      28A     -0.585555    29A     -0.570107    30A     -0.551896
      31A     -0.532802    32A     -0.518803    33A     -0.465855
      34A     -0.436440    35A     -0.409928    36A     -0.393055
      37A     -0.347345

  @DF-RHF Final Energy:  -774.27638425034638

   => Energetics <=

    Nuclear Repulsion Energy =            505.4135516877394707
    One-Electron Energy =               -2065.6851480754226031
    Two-Electron Energy =                 785.9952121373366936
    Total Energy =                       -774.2763842503463820
  Basis Set: (AUG-CC-PVTZ AUX)
    Blend: AUG-CC-PVTZ-RI
    Molecular point group: c1

    Geometry (in Angstrom), charge = 0, multiplicity = 1:

       Center              X                  Y                   Z               Mass
    ------------   -----------------  -----------------  -----------------  -----------------
         S            1.519885607465    -1.034241847702     0.000000943522    31.972071174400
         O           -1.475645292535    -1.534934347702    -0.000001056478    15.994914619570
         N           -2.064682292535     0.698019652298    -0.000000056478    14.003074004430
         N            0.629489707465     1.378566652298    -0.000001056478    14.003074004430
         C            0.234024707465     0.114029652298    -0.000000056478    12.000000000000
         C           -1.185333292535    -0.332066347702    -0.000001056478    12.000000000000
         C           -3.498524292535     0.489463652298     0.000000943522    12.000000000000
         C            2.639891707465     0.220073652298    -0.000000056478    12.000000000000
         C            1.994890707465     1.438833652298    -0.000000056478    12.000000000000
         H           -1.670180292535     1.632492652298     0.000000943522     1.007825032230
         H           -3.956344292535     0.927934652298    -0.891194056478     1.007825032230
         H           -3.956342292535     0.927926652298     0.891200943522     1.007825032230
         H           -3.669294292535    -0.586901347702    -0.000003056478     1.007825032230
         H            3.705058707465     0.027912652298     0.000000943522     1.007825032230
         H            2.488975707465     2.404293652298    -0.000000056478     1.007825032230

  Basis Set: AUG-CC-PVTZ
    Blend: AUG-CC-PVTZ
  Basis Set: (AUG-CC-PVTZ AUX)
    Blend: AUG-CC-PVTZ-JKFIT
	 Reference Energy          =    -774.2763842503463820 [Eh]
	 Singles Energy            =      -0.0000000000000000 [Eh]
	 Same-Spin Energy          =      -0.4591031745506187 [Eh]
	 Opposite-Spin Energy      =      -1.3687445781646148 [Eh]
	 Correlation Energy        =      -1.8278477527152335 [Eh]
	 Total Energy              =    -776.1042320030616111 [Eh]

	 ================> DF-SCS-MP2 Energies <==================
	-----------------------------------------------------------
	 SCS Same-Spin Scale       =       0.3333333333333333 [-]
	 SCS Opposite-Spin Scale   =       1.2000000000000000 [-]
	 SCS Same-Spin Energy      =      -0.1530343915168729 [Eh]
	 SCS Opposite-Spin Energy  =      -1.6424934937975377 [Eh]
	 SCS Correlation Energy    =      -1.7955278853144105 [Eh]
	 SCS Total Energy          =    -776.0719121356607957 [Eh]
	-----------------------------------------------------------

  Dipole Moment: [D]
     X:     1.1610      Y:     2.4512      Z:     0.0000     Total:     2.7122

*** Psi4 exiting successfully. Buy a developer a beer!
