                               Psi4 1.3.2 release

  ==> Input File <==

--------------------------------------------------------------------------
#psi4
#
memory 32 gb

molecule  {
0 1
 Cl       -1.5564010    -1.5365640    -0.1122650
 Cl        2.4627330     0.0122270     0.0169400
 Cl       -1.0685510     1.8023780    -0.3470660
  C       -0.1289900    -0.6488570     0.5010500
  C        1.1066799    -0.6110347    -0.5155957
  C       -0.5154060     0.7427890     0.9710020
  H        0.2242670    -1.1996790     1.3778280
  H        0.6181320    -0.1210460    -1.4565390
  H        1.1355610    -1.7215610    -0.8700150
  H       -1.3207740     0.6750150     1.7029520
  H        0.3537730     1.2151890     1.4309750
units angstrom
no_reorient  #important for SAPT in psi4, default
symmetry c1  #important for SAPT in psi4, default
}

set PROPERTIES_ORIGIN ["COM"]
properties('MP2/aug-cc-pvtz', properties = ['dipole'])
--------------------------------------------------------------------------

    Molecular point group: c1
  Charge       = 0
  Multiplicity = 1
  Basis Set: AUG-CC-PVTZ
    Blend: AUG-CC-PVTZ
  Basis Set: (AUG-CC-PVTZ AUX)
    Blend: AUG-CC-PVTZ-JKFIT

    Orbital Energies [Eh]
    ---------------------

    Doubly Occupied:

       1A   -104.856680     2A   -104.843784     3A   -104.834798
       4A    -11.329041     5A    -11.314287     6A    -11.310711
       7A    -10.585019     8A    -10.567784     9A    -10.559261
      10A     -8.052485    11A     -8.049799    12A     -8.049705
      13A     -8.034595    14A     -8.032778    15A     -8.032725
      16A     -8.026118    17A     -8.024285    18A     -8.024224
      19A     -1.225626    20A     -1.170930    21A     -1.119658
      22A     -0.993449    23A     -0.912182    24A     -0.797526
      25A     -0.679838    26A     -0.668260    27A     -0.637885
      28A     -0.597741    29A     -0.573163    30A     -0.558677
      31A     -0.531459    32A     -0.475401    33A     -0.458974
      34A     -0.449914    35A     -0.443011    36A     -0.435239
      37A     -0.423187

  @DF-RHF Final Energy: -1495.07896094868738

   => Energetics <=

    Nuclear Repulsion Energy =            433.4315096427832259
    One-Electron Energy =               -2925.6605487391821043
    Two-Electron Energy =                 997.1500781477117243
    Total Energy =                      -1495.0789609486873815
  Basis Set: (AUG-CC-PVTZ AUX)
    Blend: AUG-CC-PVTZ-RI
    Molecular point group: c1

    Geometry (in Angstrom), charge = 0, multiplicity = 1:

       Center              X                  Y                   Z               Mass
    ------------   -----------------  -----------------  -----------------  -----------------
         CL          -1.562524266231    -1.552710043089    -0.099999273469    34.968852682000
         CL           2.456609733769    -0.003919043089     0.029205726531    34.968852682000
         CL          -1.074674266231     1.786231956911    -0.334800273469    34.968852682000
         C           -0.135113266231    -0.665003043089     0.513315726531    12.000000000000
         C            1.100556633769    -0.627180743089    -0.503329973469    12.000000000000
         C           -0.521529266231     0.726642956911     0.983267726531    12.000000000000
         H            0.218143733769    -1.215825043089     1.390093726531     1.007825032230
         H            0.612008733769    -0.137192043089    -1.444273273469     1.007825032230
         H            1.129437733769    -1.737707043089    -0.857749273469     1.007825032230
         H           -1.326897266231     0.658868956911     1.715217726531     1.007825032230
         H            0.347649733769     1.199042956911     1.443240726531     1.007825032230

  Basis Set: AUG-CC-PVTZ
    Blend: AUG-CC-PVTZ
  Basis Set: (AUG-CC-PVTZ AUX)
    Blend: AUG-CC-PVTZ-JKFIT
	 Reference Energy          =   -1495.0789609486873815 [Eh]
	 Singles Energy            =      -0.0000000000000000 [Eh]
	 Same-Spin Energy          =      -0.3162229000085911 [Eh]
	 Opposite-Spin Energy      =      -0.9683057300756459 [Eh]
	 Correlation Energy        =      -1.2845286300842371 [Eh]
	 Total Energy              =   -1496.3634895787715777 [Eh]

	 ================> DF-SCS-MP2 Energies <==================
	-----------------------------------------------------------
	 SCS Same-Spin Scale       =       0.3333333333333333 [-]
	 SCS Opposite-Spin Scale   =       1.2000000000000000 [-]
	 SCS Same-Spin Energy      =      -0.1054076333361970 [Eh]
	 SCS Opposite-Spin Energy  =      -1.1619668760907751 [Eh]
	 SCS Correlation Energy    =      -1.2673745094269722 [Eh]
	 SCS Total Energy          =   -1496.3463354581142539 [Eh]
	-----------------------------------------------------------

  Dipole Moment: [D]
     X:     0.9395      Y:    -0.6183      Z:     1.3247     Total:     1.7377

*** Psi4 exiting successfully. Buy a developer a beer!
