                               Psi4 1.3.2 release

  ==> Input File <==

--------------------------------------------------------------------------
#psi4
#
memory 32 gb

molecule  {
0 1
 Cl       -1.5530085    -1.5573813    -0.0892347
 Cl        2.4627330     0.0122270     0.0169400
 Cl       -1.0685510     1.8023780    -0.3470660
  C       -0.1289900    -0.6488570     0.5010500
  C        0.9355250    -0.6897000    -0.5828100
  C       -0.5154060     0.7427890     0.9710020
  H        0.2242670    -1.1996790     1.3778280
  H        0.6181320    -0.1210460    -1.4565390
  H        1.1355610    -1.7215610    -0.8700150
  H       -1.3207740     0.6750150     1.7029520
  H        0.3537730     1.2151890     1.4309750
units angstrom
no_reorient  #important for SAPT in psi4, default
symmetry c1  #important for SAPT in psi4, default
}

set PROPERTIES_ORIGIN ["COM"]
properties('MP2/aug-cc-pvtz', properties = ['dipole'])
--------------------------------------------------------------------------

    Molecular point group: c1
  Charge       = 0
  Multiplicity = 1
  Basis Set: AUG-CC-PVTZ
    Blend: AUG-CC-PVTZ
  Basis Set: (AUG-CC-PVTZ AUX)
    Blend: AUG-CC-PVTZ-JKFIT

    Orbital Energies [Eh]
    ---------------------

    Doubly Occupied:

       1A   -104.844030     2A   -104.843659     3A   -104.838392
       4A    -11.332128     5A    -11.315054     6A    -11.315029
       7A    -10.568528     8A    -10.568081     9A    -10.562819
      10A     -8.035331    11A     -8.034922    12A     -8.033496
      13A     -8.033439    14A     -8.033116    15A     -8.033051
      16A     -8.029680    17A     -8.027841    18A     -8.027772
      19A     -1.205946    20A     -1.141024    21A     -1.122396
      22A     -0.999691    23A     -0.935811    24A     -0.809412
      25A     -0.696036    26A     -0.669831    27A     -0.620050
      28A     -0.593782    29A     -0.580526    30A     -0.549022
      31A     -0.524523    32A     -0.469979    33A     -0.460238
      34A     -0.455132    35A     -0.452799    36A     -0.443445
      37A     -0.438955

  @DF-RHF Final Energy: -1495.11926821973179

   => Energetics <=

    Nuclear Repulsion Energy =            431.7407726490320670
    One-Electron Energy =               -2922.4301513749051082
    Two-Electron Energy =                 995.5701105061414182
    Total Energy =                      -1495.1192682197317936
  Basis Set: (AUG-CC-PVTZ AUX)
    Blend: AUG-CC-PVTZ-RI
    Molecular point group: c1

    Geometry (in Angstrom), charge = 0, multiplicity = 1:

       Center              X                  Y                   Z               Mass
    ------------   -----------------  -----------------  -----------------  -----------------
         CL          -1.545871853880    -1.562071432505    -0.076960556419    34.968852682000
         CL           2.469869646120     0.007536867495     0.029214143581    34.968852682000
         CL          -1.061414353880     1.797687867495    -0.334791856419    34.968852682000
         C           -0.121853353880    -0.653547132505     0.513324143581    12.000000000000
         C            0.942661646120    -0.694390132505    -0.570535856419    12.000000000000
         C           -0.508269353880     0.738098867495     0.983276143581    12.000000000000
         H            0.231403646120    -1.204369132505     1.390102143581     1.007825032230
         H            0.625268646120    -0.125736132505    -1.444264856419     1.007825032230
         H            1.142697646120    -1.726251132505    -0.857740856419     1.007825032230
         H           -1.313637353880     0.670324867495     1.715226143581     1.007825032230
         H            0.360909646120     1.210498867495     1.443249143581     1.007825032230

  Basis Set: AUG-CC-PVTZ
    Blend: AUG-CC-PVTZ
  Basis Set: (AUG-CC-PVTZ AUX)
    Blend: AUG-CC-PVTZ-JKFIT
	 Reference Energy          =   -1495.1192682197317936 [Eh]
	 Singles Energy            =      -0.0000000000000000 [Eh]
	 Same-Spin Energy          =      -0.3133429193275811 [Eh]
	 Opposite-Spin Energy      =      -0.9645896387946582 [Eh]
	 Correlation Energy        =      -1.2779325581222394 [Eh]
	 Total Energy              =   -1496.3972007778540956 [Eh]

	 ================> DF-SCS-MP2 Energies <==================
	-----------------------------------------------------------
	 SCS Same-Spin Scale       =       0.3333333333333333 [-]
	 SCS Opposite-Spin Scale   =       1.2000000000000000 [-]
	 SCS Same-Spin Energy      =      -0.1044476397758604 [Eh]
	 SCS Opposite-Spin Energy  =      -1.1575075665535899 [Eh]
	 SCS Correlation Energy    =      -1.2619552063294504 [Eh]
	 SCS Total Energy          =   -1496.3812234260612968 [Eh]
	-----------------------------------------------------------

  Dipole Moment: [D]
     X:     0.3744      Y:    -0.7680      Z:     1.1814     Total:     1.4580

*** Psi4 exiting successfully. Buy a developer a beer!
