                               Psi4 1.4a3.dev225

  ==> Input File <==

--------------------------------------------------------------------------
#psi4
#
memory 32 gb

molecule  {
0 1
 Cl       -1.5559190    -1.5368180    -0.1120840
 Cl        2.4627220     0.0125820     0.0169060
 Cl       -1.0692530     1.8020150    -0.3469870
  C       -0.1128454    -0.6389690     0.5077666
  C        0.9353530    -0.6892460    -0.5830770
  C       -0.5150540     0.7428180     0.9709430
  H        0.2250200    -1.1997290     1.3774140
  H        0.6176610    -0.1200850    -1.4563010
  H        1.1354520    -1.7209640    -0.8707770
  H       -1.3198770     0.6751280     1.7035260
  H        0.3543960     1.2153530     1.4302720
units angstrom
no_reorient  #important for SAPT in psi4, default
symmetry c1  #important for SAPT in psi4, default
}

set PROPERTIES_ORIGIN ["COM"]
properties('MP2/aug-cc-pvtz', properties = ['dipole'])
--------------------------------------------------------------------------

    Molecular point group: c1
  Charge       = 0
  Multiplicity = 1
  Basis Set: AUG-CC-PVTZ
    Blend: AUG-CC-PVTZ
  Basis Set: (AUG-CC-PVTZ AUX)
    Blend: AUG-CC-PVTZ-JKFIT

    Orbital Energies [Eh]
    ---------------------

    Doubly Occupied:

       1A   -104.843617     2A   -104.841808     3A   -104.838889
       4A    -11.333052     5A    -11.315501     6A    -11.315250
       7A    -10.568103     8A    -10.566148     9A    -10.563294
      10A     -8.034941    11A     -8.033136    12A     -8.033070
      13A     -8.032908    14A     -8.031125    15A     -8.031070
      16A     -8.030155    17A     -8.028311    18A     -8.028241
      19A     -1.205873    20A     -1.141641    21A     -1.119284
      22A     -1.001075    23A     -0.937295    24A     -0.810562
      25A     -0.698190    26A     -0.670097    27A     -0.620580
      28A     -0.593247    29A     -0.583124    30A     -0.548773
      31A     -0.520978    32A     -0.468547    33A     -0.459378
      34A     -0.455843    35A     -0.453489    36A     -0.443568
      37A     -0.439606

  @DF-RHF Final Energy: -1495.11923627775923

   => Energetics <=

    Nuclear Repulsion Energy =            432.1180792085677922
    One-Electron Energy =               -2923.1950895732447862
    Two-Electron Energy =                 995.9577740869176523
    Total Energy =                      -1495.1192362777592280
  Basis Set: (AUG-CC-PVTZ AUX)
    Blend: AUG-CC-PVTZ-RI
    Molecular point group: c1

    Geometry (in Angstrom), charge = 0, multiplicity = 1:

       Center              X                  Y                   Z               Mass
    ------------   -----------------  -----------------  -----------------  -----------------
         CL          -1.549268094935    -1.547298274472    -0.094863986554    34.968852682000
         CL           2.469372905065     0.002101725528     0.034126013446    34.968852682000
         CL          -1.062602094935     1.791534725528    -0.329766986554    34.968852682000
         C           -0.106194494935    -0.649449274472     0.524986613446    12.000000000000
         C            0.942003905065    -0.699726274472    -0.565856986554    12.000000000000
         C           -0.508403094935     0.732337725528     0.988163013446    12.000000000000
         H            0.231670905065    -1.210209274472     1.394634013446     1.007825032230
         H            0.624311905065    -0.130565274472    -1.439080986554     1.007825032230
         H            1.142102905065    -1.731444274472    -0.853556986554     1.007825032230
         H           -1.313226094935     0.664647725528     1.720746013446     1.007825032230
         H            0.361046905065     1.204872725528     1.447492013446     1.007825032230

  Basis Set: AUG-CC-PVTZ
    Blend: AUG-CC-PVTZ
  Basis Set: (AUG-CC-PVTZ AUX)
    Blend: AUG-CC-PVTZ-JKFIT
	 Reference Energy          =   -1495.1192362777592280 [Eh]
	 Singles Energy            =      -0.0000000000000000 [Eh]
	 Same-Spin Energy          =      -0.3133556094618422 [Eh]
	 Opposite-Spin Energy      =      -0.9645910254588302 [Eh]
	 Correlation Energy        =      -1.2779466349206725 [Eh]
	 Total Energy              =   -1496.3971829126799094 [Eh]

	 ================> DF-SCS-MP2 Energies <==================
	-----------------------------------------------------------
	 SCS Same-Spin Scale       =       0.3333333333333333 [-]
	 SCS Opposite-Spin Scale   =       1.2000000000000000 [-]
	 SCS Same-Spin Energy      =      -0.1044518698206141 [Eh]
	 SCS Opposite-Spin Energy  =      -1.1575092305505963 [Eh]
	 SCS Correlation Energy    =      -1.2619611003712103 [Eh]
	 SCS Total Energy          =   -1496.3811973781305369 [Eh]
	-----------------------------------------------------------

  Dipole Moment: [D]
     X:     0.4174      Y:    -0.7369      Z:     1.2027     Total:     1.4709

*** Psi4 exiting successfully. Buy a developer a beer!
