                               Psi4 1.3.2 release

  ==> Input File <==

--------------------------------------------------------------------------
#psi4
#
memory 32 gb

molecule  {
0 1
 Cl       -1.5564010    -1.5365640    -0.1122650
 Cl        2.5123699    -0.0112990    -0.0948570
 Cl       -1.0685510     1.8023780    -0.3470660
  C       -0.1289900    -0.6488570     0.5010500
  C        0.9355250    -0.6897000    -0.5828100
  C       -0.5154060     0.7427890     0.9710020
  H        0.2242670    -1.1996790     1.3778280
  H        0.6181320    -0.1210460    -1.4565390
  H        1.1355610    -1.7215610    -0.8700150
  H       -1.3207740     0.6750150     1.7029520
  H        0.3537730     1.2151890     1.4309750
units angstrom
no_reorient  #important for SAPT in psi4, default
symmetry c1  #important for SAPT in psi4, default
}

set PROPERTIES_ORIGIN ["COM"]
properties('MP2/aug-cc-pvtz', properties = ['dipole'])
--------------------------------------------------------------------------

    Molecular point group: c1
  Charge       = 0
  Multiplicity = 1
  Basis Set: AUG-CC-PVTZ
    Blend: AUG-CC-PVTZ
  Basis Set: (AUG-CC-PVTZ AUX)
    Blend: AUG-CC-PVTZ-JKFIT

    Orbital Energies [Eh]
    ---------------------

    Doubly Occupied:

       1A   -104.845490     2A   -104.842795     3A   -104.838723
       4A    -11.333520     5A    -11.315897     6A    -11.313936
       7A    -10.569936     8A    -10.567135     9A    -10.563147
      10A     -8.036739    11A     -8.034893    12A     -8.034836
      13A     -8.033980    14A     -8.032166    15A     -8.032097
      16A     -8.030008    17A     -8.028165    18A     -8.028097
      19A     -1.205491    20A     -1.140986    21A     -1.122707
      22A     -1.001257    23A     -0.934959    24A     -0.809484
      25A     -0.696252    26A     -0.669668    27A     -0.621538
      28A     -0.592237    29A     -0.580288    30A     -0.549346
      31A     -0.525138    32A     -0.469251    33A     -0.461232
      34A     -0.455818    35A     -0.450665    36A     -0.443753
      37A     -0.439672

  @DF-RHF Final Energy: -1495.11870374432601

   => Energetics <=

    Nuclear Repulsion Energy =            430.3885678070590757
    One-Electron Energy =               -2919.7119387406805799
    Two-Electron Energy =                 994.2046671892952645
    Total Energy =                      -1495.1187037443260124
  Basis Set: (AUG-CC-PVTZ AUX)
    Blend: AUG-CC-PVTZ-RI
    Molecular point group: c1

    Geometry (in Angstrom), charge = 0, multiplicity = 1:

       Center              X                  Y                   Z               Mass
    ------------   -----------------  -----------------  -----------------  -----------------
         CL          -1.560344596717    -1.540605123030    -0.067685988693    34.968852682000
         CL           2.508426303283    -0.015340123030    -0.050277988693    34.968852682000
         CL          -1.072494596717     1.798336876970    -0.302486988693    34.968852682000
         C           -0.132933596717    -0.652898123030     0.545629011307    12.000000000000
         C            0.931581403283    -0.693741123030    -0.538230988693    12.000000000000
         C           -0.519349596717     0.738747876970     1.015581011307    12.000000000000
         H            0.220323403283    -1.203720123030     1.422407011307     1.007825032230
         H            0.614188403283    -0.125087123030    -1.411959988693     1.007825032230
         H            1.131617403283    -1.725602123030    -0.825435988693     1.007825032230
         H           -1.324717596717     0.670973876970     1.747531011307     1.007825032230
         H            0.349829403283     1.211147876970     1.475554011307     1.007825032230

  Basis Set: AUG-CC-PVTZ
    Blend: AUG-CC-PVTZ
  Basis Set: (AUG-CC-PVTZ AUX)
    Blend: AUG-CC-PVTZ-JKFIT
	 Reference Energy          =   -1495.1187037443260124 [Eh]
	 Singles Energy            =      -0.0000000000000000 [Eh]
	 Same-Spin Energy          =      -0.3131195305819333 [Eh]
	 Opposite-Spin Energy      =      -0.9643941722460938 [Eh]
	 Correlation Energy        =      -1.2775137028280272 [Eh]
	 Total Energy              =   -1496.3962174471539583 [Eh]

	 ================> DF-SCS-MP2 Energies <==================
	-----------------------------------------------------------
	 SCS Same-Spin Scale       =       0.3333333333333333 [-]
	 SCS Opposite-Spin Scale   =       1.2000000000000000 [-]
	 SCS Same-Spin Energy      =      -0.1043731768606444 [Eh]
	 SCS Opposite-Spin Energy  =      -1.1572730066953125 [Eh]
	 SCS Correlation Energy    =      -1.2616461835559569 [Eh]
	 SCS Total Energy          =   -1496.3803499278819800 [Eh]
	-----------------------------------------------------------

  Dipole Moment: [D]
     X:     0.2777      Y:    -0.7778      Z:     1.2724     Total:     1.5169

*** Psi4 exiting successfully. Buy a developer a beer!
