                               Psi4 1.3.2 release

  ==> Input File <==

--------------------------------------------------------------------------
#psi4
#
memory 32 gb

molecule  {
0 1
 Cl       -1.5411089    -1.5421988    -0.1389045
 Cl        2.4627330     0.0122270     0.0169400
 Cl       -1.0685510     1.8023780    -0.3470660
  C       -0.1289900    -0.6488570     0.5010500
  C        0.9355250    -0.6897000    -0.5828100
  C       -0.5154060     0.7427890     0.9710020
  H        0.2242670    -1.1996790     1.3778280
  H        0.6181320    -0.1210460    -1.4565390
  H        1.1355610    -1.7215610    -0.8700150
  H       -1.3207740     0.6750150     1.7029520
  H        0.3537730     1.2151890     1.4309750
units angstrom
no_reorient  #important for SAPT in psi4, default
symmetry c1  #important for SAPT in psi4, default
}

set PROPERTIES_ORIGIN ["COM"]
properties('MP2/aug-cc-pvtz', properties = ['dipole'])
--------------------------------------------------------------------------

    Molecular point group: c1
  Charge       = 0
  Multiplicity = 1
  Basis Set: AUG-CC-PVTZ
    Blend: AUG-CC-PVTZ
  Basis Set: (AUG-CC-PVTZ AUX)
    Blend: AUG-CC-PVTZ-JKFIT

    Orbital Energies [Eh]
    ---------------------

    Doubly Occupied:

       1A   -104.844052     2A   -104.842897     3A   -104.838357
       4A    -11.332351     5A    -11.315220     6A    -11.314529
       7A    -10.568573     8A    -10.567355     9A    -10.562783
      10A     -8.035373    11A     -8.034194    12A     -8.033539
      13A     -8.033483    14A     -8.032394    15A     -8.032330
      16A     -8.029644    17A     -8.027804    18A     -8.027735
      19A     -1.206330    20A     -1.140687    21A     -1.122160
      22A     -0.999607    23A     -0.935660    24A     -0.809504
      25A     -0.696225    26A     -0.669657    27A     -0.620441
      28A     -0.593517    29A     -0.580387    30A     -0.548742
      31A     -0.524826    32A     -0.469333    33A     -0.460041
      34A     -0.455335    35A     -0.452692    36A     -0.443235
      37A     -0.438871

  @DF-RHF Final Energy: -1495.11913024319233

   => Energetics <=

    Nuclear Repulsion Energy =            432.3139408383840987
    One-Electron Energy =               -2923.5864139264135702
    Two-Electron Energy =                 996.1533428448371978
    Total Energy =                      -1495.1191302431923305
  Basis Set: (AUG-CC-PVTZ AUX)
    Blend: AUG-CC-PVTZ-RI
    Molecular point group: c1

    Geometry (in Angstrom), charge = 0, multiplicity = 1:

       Center              X                  Y                   Z               Mass
    ------------   -----------------  -----------------  -----------------  -----------------
         CL          -1.536823419809    -1.550526687280    -0.114729381476    34.968852682000
         CL           2.467018480191     0.003899112720     0.041115118524    34.968852682000
         CL          -1.064265519809     1.794050112720    -0.322890881476    34.968852682000
         C           -0.124704519809    -0.657184887280     0.525225118524    12.000000000000
         C            0.939810480191    -0.698027887280    -0.558634881476    12.000000000000
         C           -0.511120519809     0.734461112720     0.995177118524    12.000000000000
         H            0.228552480191    -1.208006887280     1.402003118524     1.007825032230
         H            0.622417480191    -0.129373887280    -1.432363881476     1.007825032230
         H            1.139846480191    -1.729888887280    -0.845839881476     1.007825032230
         H           -1.316488519809     0.666687112720     1.727127118524     1.007825032230
         H            0.358058480191     1.206861112720     1.455150118524     1.007825032230

  Basis Set: AUG-CC-PVTZ
    Blend: AUG-CC-PVTZ
  Basis Set: (AUG-CC-PVTZ AUX)
    Blend: AUG-CC-PVTZ-JKFIT
	 Reference Energy          =   -1495.1191302431923305 [Eh]
	 Singles Energy            =      -0.0000000000000000 [Eh]
	 Same-Spin Energy          =      -0.3134598947804824 [Eh]
	 Opposite-Spin Energy      =      -0.9646996214675035 [Eh]
	 Correlation Energy        =      -1.2781595162479860 [Eh]
	 Total Energy              =   -1496.3972897594403548 [Eh]

	 ================> DF-SCS-MP2 Energies <==================
	-----------------------------------------------------------
	 SCS Same-Spin Scale       =       0.3333333333333333 [-]
	 SCS Opposite-Spin Scale   =       1.2000000000000000 [-]
	 SCS Same-Spin Energy      =      -0.1044866315934941 [Eh]
	 SCS Opposite-Spin Energy  =      -1.1576395457610043 [Eh]
	 SCS Correlation Energy    =      -1.2621261773544983 [Eh]
	 SCS Total Energy          =   -1496.3812564205468334 [Eh]
	-----------------------------------------------------------

  Dipole Moment: [D]
     X:     0.3402      Y:    -0.7804      Z:     1.2097     Total:     1.4793

*** Psi4 exiting successfully. Buy a developer a beer!
