                               Psi4 1.3.2 release

  ==> Input File <==

--------------------------------------------------------------------------
#psi4
#
memory 32 gb

molecule  {
0 1
 Cl       -1.5564010    -1.5365640    -0.1122650
 Cl        2.4620290    -0.0740544     0.1067781
 Cl       -1.0685510     1.8023780    -0.3470660
  C       -0.1289900    -0.6488570     0.5010500
  C        0.9355250    -0.6897000    -0.5828100
  C       -0.5154060     0.7427890     0.9710020
  H        0.2242670    -1.1996790     1.3778280
  H        0.6181320    -0.1210460    -1.4565390
  H        1.1355610    -1.7215610    -0.8700150
  H       -1.3207740     0.6750150     1.7029520
  H        0.3537730     1.2151890     1.4309750
units angstrom
no_reorient  #important for SAPT in psi4, default
symmetry c1  #important for SAPT in psi4, default
}

set PROPERTIES_ORIGIN ["COM"]
properties('MP2/aug-cc-pvtz', properties = ['dipole'])
--------------------------------------------------------------------------

    Molecular point group: c1
  Charge       = 0
  Multiplicity = 1
  Basis Set: AUG-CC-PVTZ
    Blend: AUG-CC-PVTZ
  Basis Set: (AUG-CC-PVTZ AUX)
    Blend: AUG-CC-PVTZ-JKFIT

    Orbital Energies [Eh]
    ---------------------

    Doubly Occupied:

       1A   -104.843933     2A   -104.842950     3A   -104.838428
       4A    -11.331547     5A    -11.315355     6A    -11.314820
       7A    -10.568417     8A    -10.567510     9A    -10.562864
      10A     -8.035253    11A     -8.034309    12A     -8.033447
      13A     -8.033386    14A     -8.032481    15A     -8.032427
      16A     -8.029723    17A     -8.027887    18A     -8.027817
      19A     -1.206638    20A     -1.141616    21A     -1.121562
      22A     -0.998886    23A     -0.936083    24A     -0.809710
      25A     -0.696434    26A     -0.669913    27A     -0.618378
      28A     -0.595625    29A     -0.580900    30A     -0.547931
      31A     -0.525122    32A     -0.469814    33A     -0.459330
      34A     -0.455597    35A     -0.453784    36A     -0.442707
      37A     -0.438578

  @DF-RHF Final Energy: -1495.11837704296863

   => Energetics <=

    Nuclear Repulsion Energy =            432.2888377094497514
    One-Electron Energy =               -2923.5321065865055061
    Two-Electron Energy =                 996.1248918340871796
    Total Energy =                      -1495.1183770429688593
  Basis Set: (AUG-CC-PVTZ AUX)
    Blend: AUG-CC-PVTZ-RI
    Molecular point group: c1

    Geometry (in Angstrom), charge = 0, multiplicity = 1:

       Center              X                  Y                   Z               Mass
    ------------   -----------------  -----------------  -----------------  -----------------
         CL          -1.548282824986    -1.525568814389    -0.115998127514    34.968852682000
         CL           2.470147175014    -0.063059214389     0.103044972486    34.968852682000
         CL          -1.060432824986     1.813373185611    -0.350799127514    34.968852682000
         C           -0.120871824986    -0.637861814389     0.497316872486    12.000000000000
         C            0.943643175014    -0.678704814389    -0.586543127514    12.000000000000
         C           -0.507287824986     0.753784185611     0.967268872486    12.000000000000
         H            0.232385175014    -1.188683814389     1.374094872486     1.007825032230
         H            0.626250175014    -0.110050814389    -1.460272127514     1.007825032230
         H            1.143679175014    -1.710565814389    -0.873748127514     1.007825032230
         H           -1.312655824986     0.686010185611     1.699218872486     1.007825032230
         H            0.361891175014     1.226184185611     1.427241872486     1.007825032230

  Basis Set: AUG-CC-PVTZ
    Blend: AUG-CC-PVTZ
  Basis Set: (AUG-CC-PVTZ AUX)
    Blend: AUG-CC-PVTZ-JKFIT
	 Reference Energy          =   -1495.1183770429686319 [Eh]
	 Singles Energy            =      -0.0000000000000000 [Eh]
	 Same-Spin Energy          =      -0.3135206627254279 [Eh]
	 Opposite-Spin Energy      =      -0.9647804478539282 [Eh]
	 Correlation Energy        =      -1.2783011105793562 [Eh]
	 Total Energy              =   -1496.3966781535480095 [Eh]

	 ================> DF-SCS-MP2 Energies <==================
	-----------------------------------------------------------
	 SCS Same-Spin Scale       =       0.3333333333333333 [-]
	 SCS Opposite-Spin Scale   =       1.2000000000000000 [-]
	 SCS Same-Spin Energy      =      -0.1045068875751426 [Eh]
	 SCS Opposite-Spin Energy  =      -1.1577365374247139 [Eh]
	 SCS Correlation Energy    =      -1.2622434249998566 [Eh]
	 SCS Total Energy          =   -1496.3806204679685834 [Eh]
	-----------------------------------------------------------

  Dipole Moment: [D]
     X:     0.3930      Y:    -0.7233      Z:     1.1322     Total:     1.3998

*** Psi4 exiting successfully. Buy a developer a beer!
