                               Psi4 1.3.2 release

  ==> Input File <==

--------------------------------------------------------------------------
#psi4
#
memory 32 gb

molecule  {
0 1
 Cl       -1.5856763    -1.5244850    -0.0584337
 Cl        2.4627330     0.0122270     0.0169400
 Cl       -1.0685510     1.8023780    -0.3470660
  C       -0.1289900    -0.6488570     0.5010500
  C        0.9355250    -0.6897000    -0.5828100
  C       -0.5154060     0.7427890     0.9710020
  H        0.2242670    -1.1996790     1.3778280
  H        0.6181320    -0.1210460    -1.4565390
  H        1.1355610    -1.7215610    -0.8700150
  H       -1.3207740     0.6750150     1.7029520
  H        0.3537730     1.2151890     1.4309750
units angstrom
no_reorient  #important for SAPT in psi4, default
symmetry c1  #important for SAPT in psi4, default
}

set PROPERTIES_ORIGIN ["COM"]
properties('MP2/aug-cc-pvtz', properties = ['dipole'])
--------------------------------------------------------------------------

    Molecular point group: c1
  Charge       = 0
  Multiplicity = 1
  Basis Set: AUG-CC-PVTZ
    Blend: AUG-CC-PVTZ
  Basis Set: (AUG-CC-PVTZ AUX)
    Blend: AUG-CC-PVTZ-JKFIT

    Orbital Energies [Eh]
    ---------------------

    Doubly Occupied:

       1A   -104.844495     2A   -104.843737     3A   -104.837995
       4A    -11.332003     5A    -11.315659     6A    -11.314157
       7A    -10.568881     8A    -10.568243     9A    -10.562428
      10A     -8.035722    11A     -8.035046    12A     -8.033910
      13A     -8.033844    14A     -8.033210    15A     -8.033153
      16A     -8.029288    17A     -8.027452    18A     -8.027381
      19A     -1.205945    20A     -1.141459    21A     -1.121769
      22A     -0.999621    23A     -0.935904    24A     -0.809212
      25A     -0.695998    26A     -0.670076    27A     -0.619518
      28A     -0.593885    29A     -0.580607    30A     -0.548540
      31A     -0.524500    32A     -0.470446    33A     -0.459791
      34A     -0.455552    35A     -0.452970    36A     -0.443199
      37A     -0.438694

  @DF-RHF Final Energy: -1495.11905483515284

   => Energetics <=

    Nuclear Repulsion Energy =            431.9170819562671682
    One-Electron Energy =               -2922.7836913473151981
    Two-Electron Energy =                 995.7475545558950216
    Total Energy =                      -1495.1190548351528378
  Basis Set: (AUG-CC-PVTZ AUX)
    Blend: AUG-CC-PVTZ-RI
    Molecular point group: c1

    Geometry (in Angstrom), charge = 0, multiplicity = 1:

       Center              X                  Y                   Z               Mass
    ------------   -----------------  -----------------  -----------------  -----------------
         CL          -1.570712389240    -1.537057146164    -0.053539532365    34.968852682000
         CL           2.477696910760    -0.000345146164     0.021834167635    34.968852682000
         CL          -1.053587089240     1.789805853836    -0.342171832365    34.968852682000
         C           -0.114026089240    -0.661429146164     0.505944167635    12.000000000000
         C            0.950488910760    -0.702272146164    -0.577915832365    12.000000000000
         C           -0.500442089240     0.730216853836     0.975896167635    12.000000000000
         H            0.239230910760    -1.212251146164     1.382722167635     1.007825032230
         H            0.633095910760    -0.133618146164    -1.451644832365     1.007825032230
         H            1.150524910760    -1.734133146164    -0.865120832365     1.007825032230
         H           -1.305810089240     0.662442853836     1.707846167635     1.007825032230
         H            0.368736910760     1.202616853836     1.435869167635     1.007825032230

  Basis Set: AUG-CC-PVTZ
    Blend: AUG-CC-PVTZ
  Basis Set: (AUG-CC-PVTZ AUX)
    Blend: AUG-CC-PVTZ-JKFIT
	 Reference Energy          =   -1495.1190548351528378 [Eh]
	 Singles Energy            =      -0.0000000000000000 [Eh]
	 Same-Spin Energy          =      -0.3133527334649144 [Eh]
	 Opposite-Spin Energy      =      -0.9646321171465996 [Eh]
	 Correlation Energy        =      -1.2779848506115141 [Eh]
	 Total Energy              =   -1496.3970396857644118 [Eh]

	 ================> DF-SCS-MP2 Energies <==================
	-----------------------------------------------------------
	 SCS Same-Spin Scale       =       0.3333333333333333 [-]
	 SCS Opposite-Spin Scale   =       1.2000000000000000 [-]
	 SCS Same-Spin Energy      =      -0.1044509111549715 [Eh]
	 SCS Opposite-Spin Energy  =      -1.1575585405759194 [Eh]
	 SCS Correlation Energy    =      -1.2620094517308909 [Eh]
	 SCS Total Energy          =   -1496.3810642868836567 [Eh]
	-----------------------------------------------------------

  Dipole Moment: [D]
     X:     0.4176      Y:    -0.7907      Z:     1.1550     Total:     1.4607

*** Psi4 exiting successfully. Buy a developer a beer!
