                               Psi4 1.3.2 release

  ==> Input File <==

--------------------------------------------------------------------------
#psi4
#
memory 32 gb

molecule  {
0 1
 Cl       -1.5564010    -1.5365640    -0.1122650
 Cl        2.4627330     0.0122270     0.0169400
 Cl       -1.0685510     1.8023780    -0.3470660
  C       -0.1289900    -0.6488570     0.5010500
  C        0.9355250    -0.6897000    -0.5828100
  C       -0.5154060     0.7427890     0.9710020
  H        0.2242670    -1.1996790     1.3778280
  H        0.6181320    -0.1210460    -1.4565390
  H        1.1355610    -1.7215610    -0.8700150
  H       -1.3207740     0.6750150     1.7029520
  H        0.3537730     1.2151890     1.4309750
units angstrom
no_reorient  #important for SAPT in psi4, default
symmetry c1  #important for SAPT in psi4, default
}

set PROPERTIES_ORIGIN ["COM"]
properties('MP2/aug-cc-pvtz', properties = ['dipole'])
--------------------------------------------------------------------------

    Molecular point group: c1
  Charge       = 0
  Multiplicity = 1
  Basis Set: AUG-CC-PVTZ
    Blend: AUG-CC-PVTZ
  Basis Set: (AUG-CC-PVTZ AUX)
    Blend: AUG-CC-PVTZ-JKFIT

    Orbital Energies [Eh]
    ---------------------

    Doubly Occupied:

       1A   -104.843950     2A   -104.843445     3A   -104.838234
       4A    -11.332236     5A    -11.314905     6A    -11.314863
       7A    -10.568463     8A    -10.567878     9A    -10.562663
      10A     -8.035264    11A     -8.034718    12A     -8.033430
      13A     -8.033374    14A     -8.032914    15A     -8.032849
      16A     -8.029523    17A     -8.027684    18A     -8.027615
      19A     -1.206176    20A     -1.140933    21A     -1.122037
      22A     -0.999614    23A     -0.935755    24A     -0.809396
      25A     -0.696141    26A     -0.669794    27A     -0.620110
      28A     -0.593647    29A     -0.580472    30A     -0.548668
      31A     -0.524718    32A     -0.469736    33A     -0.459933
      34A     -0.455375    35A     -0.452835    36A     -0.443224
      37A     -0.438862

  @DF-RHF Final Energy: -1495.11923173800687

   => Energetics <=

    Nuclear Repulsion Energy =            432.1715980501649597
    One-Electron Energy =               -2923.2987892410615132
    Two-Electron Energy =                 996.0079594528898497
    Total Energy =                      -1495.1192317380068744
  Basis Set: (AUG-CC-PVTZ AUX)
    Blend: AUG-CC-PVTZ-RI
    Molecular point group: c1

    Geometry (in Angstrom), charge = 0, multiplicity = 1:

       Center              X                  Y                   Z               Mass
    ------------   -----------------  -----------------  -----------------  -----------------
         CL          -1.548451504674    -1.546241995668    -0.094472754409    34.968852682000
         CL           2.470682495326     0.002549004332     0.034732245591    34.968852682000
         CL          -1.060601504674     1.792700004332    -0.329273754409    34.968852682000
         C           -0.121040504674    -0.658534995668     0.518842245591    12.000000000000
         C            0.943474495326    -0.699377995668    -0.565017754409    12.000000000000
         C           -0.507456504674     0.733111004332     0.988794245591    12.000000000000
         H            0.232216495326    -1.209356995668     1.395620245591     1.007825032230
         H            0.626081495326    -0.130723995668    -1.438746754409     1.007825032230
         H            1.143510495326    -1.731238995668    -0.852222754409     1.007825032230
         H           -1.312824504674     0.665337004332     1.720744245591     1.007825032230
         H            0.361722495326     1.205511004332     1.448767245591     1.007825032230

  Basis Set: AUG-CC-PVTZ
    Blend: AUG-CC-PVTZ
  Basis Set: (AUG-CC-PVTZ AUX)
    Blend: AUG-CC-PVTZ-JKFIT
	 Reference Energy          =   -1495.1192317380068744 [Eh]
	 Singles Energy            =      -0.0000000000000000 [Eh]
	 Same-Spin Energy          =      -0.3134160278054636 [Eh]
	 Opposite-Spin Energy      =      -0.9646650634241787 [Eh]
	 Correlation Energy        =      -1.2780810912296423 [Eh]
	 Total Energy              =   -1496.3973128292366255 [Eh]

	 ================> DF-SCS-MP2 Energies <==================
	-----------------------------------------------------------
	 SCS Same-Spin Scale       =       0.3333333333333333 [-]
	 SCS Opposite-Spin Scale   =       1.2000000000000000 [-]
	 SCS Same-Spin Energy      =      -0.1044720092684879 [Eh]
	 SCS Opposite-Spin Energy  =      -1.1575980761090143 [Eh]
	 SCS Correlation Energy    =      -1.2620700853775022 [Eh]
	 SCS Total Energy          =   -1496.3813018233843195 [Eh]
	-----------------------------------------------------------

  Dipole Moment: [D]
     X:     0.3666      Y:    -0.7835      Z:     1.1918     Total:     1.4726

*** Psi4 exiting successfully. Buy a developer a beer!
