                               Psi4 1.3.2 release

  ==> Input File <==

--------------------------------------------------------------------------
#psi4
#
memory 32 gb

molecule  {
0 1
 Cl       -1.5593587    -1.5154763    -0.1351085
 Cl        2.4627330     0.0122270     0.0169400
 Cl       -1.0685510     1.8023780    -0.3470660
  C       -0.1289900    -0.6488570     0.5010500
  C        0.9355250    -0.6897000    -0.5828100
  C       -0.5154060     0.7427890     0.9710020
  H        0.2242670    -1.1996790     1.3778280
  H        0.6181320    -0.1210460    -1.4565390
  H        1.1355610    -1.7215610    -0.8700150
  H       -1.3207740     0.6750150     1.7029520
  H        0.3537730     1.2151890     1.4309750
units angstrom
no_reorient  #important for SAPT in psi4, default
symmetry c1  #important for SAPT in psi4, default
}

set PROPERTIES_ORIGIN ["COM"]
properties('MP2/aug-cc-pvtz', properties = ['dipole'])
--------------------------------------------------------------------------

    Molecular point group: c1
  Charge       = 0
  Multiplicity = 1
  Basis Set: AUG-CC-PVTZ
    Blend: AUG-CC-PVTZ
  Basis Set: (AUG-CC-PVTZ AUX)
    Blend: AUG-CC-PVTZ-JKFIT

    Orbital Energies [Eh]
    ---------------------

    Doubly Occupied:

       1A   -104.843864     2A   -104.843225     3A   -104.838069
       4A    -11.332341     5A    -11.314767     6A    -11.314687
       7A    -10.568395     8A    -10.567669     9A    -10.562500
      10A     -8.035194    11A     -8.034508    12A     -8.033360
      13A     -8.033305    14A     -8.032706    15A     -8.032642
      16A     -8.029360    17A     -8.027521    18A     -8.027452
      19A     -1.206424    20A     -1.140840    21A     -1.121674
      22A     -0.999535    23A     -0.935697    24A     -0.809380
      25A     -0.696258    26A     -0.669752    27A     -0.620175
      28A     -0.593515    29A     -0.580417    30A     -0.548315
      31A     -0.524917    32A     -0.469491    33A     -0.459634
      34A     -0.455636    35A     -0.452810    36A     -0.442977
      37A     -0.438753

  @DF-RHF Final Energy: -1495.11908342783045

   => Energetics <=

    Nuclear Repulsion Energy =            432.6143856741210811
    One-Electron Energy =               -2924.1914109508434194
    Two-Electron Energy =                 996.4579418488918918
    Total Energy =                      -1495.1190834278304465
  Basis Set: (AUG-CC-PVTZ AUX)
    Blend: AUG-CC-PVTZ-RI
    Molecular point group: c1

    Geometry (in Angstrom), charge = 0, multiplicity = 1:

       Center              X                  Y                   Z               Mass
    ------------   -----------------  -----------------  -----------------  -----------------
         CL          -1.550700534344    -1.530206947164    -0.111842910020    34.968852682000
         CL           2.471391165656    -0.002503647164     0.040205589980    34.968852682000
         CL          -1.059892834344     1.787647352836    -0.323800410020    34.968852682000
         C           -0.120331834344    -0.663587647164     0.524315589980    12.000000000000
         C            0.944183165656    -0.704430647164    -0.559544410020    12.000000000000
         C           -0.506747834344     0.728058352836     0.994267589980    12.000000000000
         H            0.232925165656    -1.214409647164     1.401093589980     1.007825032230
         H            0.626790165656    -0.135776647164    -1.433273410020     1.007825032230
         H            1.144219165656    -1.736291647164    -0.846749410020     1.007825032230
         H           -1.312115834344     0.660284352836     1.726217589980     1.007825032230
         H            0.362431165656     1.200458352836     1.454240589980     1.007825032230

  Basis Set: AUG-CC-PVTZ
    Blend: AUG-CC-PVTZ
  Basis Set: (AUG-CC-PVTZ AUX)
    Blend: AUG-CC-PVTZ-JKFIT
	 Reference Energy          =   -1495.1190834278304465 [Eh]
	 Singles Energy            =      -0.0000000000000000 [Eh]
	 Same-Spin Energy          =      -0.3134965940407591 [Eh]
	 Opposite-Spin Energy      =      -0.9647516942241792 [Eh]
	 Correlation Energy        =      -1.2782482882649382 [Eh]
	 Total Energy              =   -1496.3973317160953229 [Eh]

	 ================> DF-SCS-MP2 Energies <==================
	-----------------------------------------------------------
	 SCS Same-Spin Scale       =       0.3333333333333333 [-]
	 SCS Opposite-Spin Scale   =       1.2000000000000000 [-]
	 SCS Same-Spin Energy      =      -0.1044988646802530 [Eh]
	 SCS Opposite-Spin Energy  =      -1.1577020330690149 [Eh]
	 SCS Correlation Energy    =      -1.2622008977492678 [Eh]
	 SCS Total Energy          =   -1496.3812843255798271 [Eh]
	-----------------------------------------------------------

  Dipole Moment: [D]
     X:     0.3584      Y:    -0.7991      Z:     1.2019     Total:     1.4872

*** Psi4 exiting successfully. Buy a developer a beer!
