                               Psi4 1.3.2 release

  ==> Input File <==

--------------------------------------------------------------------------
#psi4
#
memory 32 gb

molecule  {
0 1
 Cl       -1.5564010    -1.5365640    -0.1122650
 Cl        2.4627330     0.0122270     0.0169400
 Cl       -1.0685510     1.8023780    -0.3470660
  C       -0.1289900    -0.6488570     0.5010500
  C        0.7643701    -0.7683653    -0.6500243
  C       -0.5154060     0.7427890     0.9710020
  H        0.2242670    -1.1996790     1.3778280
  H        0.6181320    -0.1210460    -1.4565390
  H        1.1355610    -1.7215610    -0.8700150
  H       -1.3207740     0.6750150     1.7029520
  H        0.3537730     1.2151890     1.4309750
units angstrom
no_reorient  #important for SAPT in psi4, default
symmetry c1  #important for SAPT in psi4, default
}

set PROPERTIES_ORIGIN ["COM"]
properties('MP2/aug-cc-pvtz', properties = ['dipole'])
--------------------------------------------------------------------------

    Molecular point group: c1
  Charge       = 0
  Multiplicity = 1
  Basis Set: AUG-CC-PVTZ
    Blend: AUG-CC-PVTZ
  Basis Set: (AUG-CC-PVTZ AUX)
    Blend: AUG-CC-PVTZ-JKFIT

    Orbital Energies [Eh]
    ---------------------

    Doubly Occupied:

       1A   -104.849153     2A   -104.842522     3A   -104.819540
       4A    -11.339695     5A    -11.328958     6A    -11.320368
       7A    -10.574228     8A    -10.566912     9A    -10.543038
      10A     -8.040995    11A     -8.039135    12A     -8.039048
      13A     -8.033774    14A     -8.031929    15A     -8.031848
      16A     -8.009568    17A     -8.008155    18A     -8.008103
      19A     -1.216537    20A     -1.135724    21A     -1.099392
      22A     -1.003249    23A     -0.953988    24A     -0.823915
      25A     -0.720027    26A     -0.674273    27A     -0.645041
      28A     -0.601110    29A     -0.578591    30A     -0.550802
      31A     -0.499947    32A     -0.465953    33A     -0.455961
      34A     -0.454263    35A     -0.449325    36A     -0.441110
      37A     -0.438419

  @DF-RHF Final Energy: -1495.10119594828507

   => Energetics <=

    Nuclear Repulsion Energy =            431.4227069662952090
    One-Electron Energy =               -2921.7786155476551357
    Two-Electron Energy =                 995.2547126330748597
    Total Energy =                      -1495.1011959482850671
  Basis Set: (AUG-CC-PVTZ AUX)
    Blend: AUG-CC-PVTZ-RI
    Molecular point group: c1

    Geometry (in Angstrom), charge = 0, multiplicity = 1:

       Center              X                  Y                   Z               Mass
    ------------   -----------------  -----------------  -----------------  -----------------
         CL          -1.534378743118    -1.539773948246    -0.088946235349    34.968852682000
         CL           2.484755256882     0.009017051754     0.040258764651    34.968852682000
         CL          -1.046528743118     1.799168051754    -0.323747235349    34.968852682000
         C           -0.106967743118    -0.652066948246     0.524368764651    12.000000000000
         C            0.786392356882    -0.771575248246    -0.626705535349    12.000000000000
         C           -0.493383743118     0.739579051754     0.994320764651    12.000000000000
         H            0.246289256882    -1.202888948246     1.401146764651     1.007825032230
         H            0.640154256882    -0.124255948246    -1.433220235349     1.007825032230
         H            1.157583256882    -1.724770948246    -0.846696235349     1.007825032230
         H           -1.298751743118     0.671805051754     1.726270764651     1.007825032230
         H            0.375795256882     1.211979051754     1.454293764651     1.007825032230

  Basis Set: AUG-CC-PVTZ
    Blend: AUG-CC-PVTZ
  Basis Set: (AUG-CC-PVTZ AUX)
    Blend: AUG-CC-PVTZ-JKFIT
	 Reference Energy          =   -1495.1011959482850671 [Eh]
	 Singles Energy            =      -0.0000000000000000 [Eh]
	 Same-Spin Energy          =      -0.3131240227848429 [Eh]
	 Opposite-Spin Energy      =      -0.9643819689142294 [Eh]
	 Correlation Energy        =      -1.2775059916990723 [Eh]
	 Total Energy              =   -1496.3787019399842393 [Eh]

	 ================> DF-SCS-MP2 Energies <==================
	-----------------------------------------------------------
	 SCS Same-Spin Scale       =       0.3333333333333333 [-]
	 SCS Opposite-Spin Scale   =       1.2000000000000000 [-]
	 SCS Same-Spin Energy      =      -0.1043746742616143 [Eh]
	 SCS Opposite-Spin Energy  =      -1.1572583626970754 [Eh]
	 SCS Correlation Energy    =      -1.2616330369586897 [Eh]
	 SCS Total Energy          =   -1496.3628289852438229 [Eh]
	-----------------------------------------------------------

  Dipole Moment: [D]
     X:    -0.3977      Y:    -0.9912      Z:     1.0902     Total:     1.5262

*** Psi4 exiting successfully. Buy a developer a beer!
