                               Psi4 1.4a3.dev225

  ==> Input File <==

--------------------------------------------------------------------------
#psi4
#
memory 32 gb

molecule  {
0 1
 Cl       -1.5559190    -1.5368180    -0.1120840
 Cl        2.4627220     0.0125820     0.0169060
 Cl       -1.0692530     1.8020150    -0.3469870
  C       -0.1287990    -0.6488950     0.5009140
  C        0.8925640    -0.7089076    -0.5998854
  C       -0.5150540     0.7428180     0.9709430
  H        0.2250200    -1.1997290     1.3774140
  H        0.6176610    -0.1200850    -1.4563010
  H        1.1354520    -1.7209640    -0.8707770
  H       -1.3198770     0.6751280     1.7035260
  H        0.3543960     1.2153530     1.4302720
units angstrom
no_reorient  #important for SAPT in psi4, default
symmetry c1  #important for SAPT in psi4, default
}

set PROPERTIES_ORIGIN ["COM"]
properties('MP2/aug-cc-pvtz', properties = ['dipole'])
--------------------------------------------------------------------------

    Molecular point group: c1
  Charge       = 0
  Multiplicity = 1
  Basis Set: AUG-CC-PVTZ
    Blend: AUG-CC-PVTZ
  Basis Set: (AUG-CC-PVTZ AUX)
    Blend: AUG-CC-PVTZ-JKFIT

    Orbital Energies [Eh]
    ---------------------

    Doubly Occupied:

       1A   -104.844635     2A   -104.839231     3A   -104.838539
       4A    -11.333600     5A    -11.317101     6A    -11.316121
       7A    -10.569290     8A    -10.563651     9A    -10.562524
      10A     -8.036086    11A     -8.034245    12A     -8.034185
      13A     -8.030511    14A     -8.029265    15A     -8.028671
      16A     -8.028599    17A     -8.027584    18A     -8.027524
      19A     -1.207565    20A     -1.135054    21A     -1.119726
      22A     -1.000916    23A     -0.940824    24A     -0.812893
      25A     -0.701815    26A     -0.670623    27A     -0.624842
      28A     -0.591484    29A     -0.582750    30A     -0.548090
      31A     -0.518839    32A     -0.467398    33A     -0.460084
      34A     -0.456278    35A     -0.452350    36A     -0.444246
      37A     -0.440354

  @DF-RHF Final Energy: -1495.11862468259687

   => Energetics <=

    Nuclear Repulsion Energy =            431.9688991872441761
    One-Electron Energy =               -2922.9000619780945271
    Two-Electron Energy =                 995.8125381082536478
    Total Energy =                      -1495.1186246825968738
  Basis Set: (AUG-CC-PVTZ AUX)
    Blend: AUG-CC-PVTZ-RI
    Molecular point group: c1

    Geometry (in Angstrom), charge = 0, multiplicity = 1:

       Center              X                  Y                   Z               Mass
    ------------   -----------------  -----------------  -----------------  -----------------
         CL          -1.544438139129    -1.544865511870    -0.092918523052    34.968852682000
         CL           2.474202860871     0.004534488130     0.036071476948    34.968852682000
         CL          -1.057772139129     1.793967488130    -0.327821523052    34.968852682000
         C           -0.117318139129    -0.656942511870     0.520079476948    12.000000000000
         C            0.904044860871    -0.716955111870    -0.580719923052    12.000000000000
         C           -0.503573139129     0.734770488130     0.990108476948    12.000000000000
         H            0.236500860871    -1.207776511870     1.396579476948     1.007825032230
         H            0.629141860871    -0.128132511870    -1.437135523052     1.007825032230
         H            1.146932860871    -1.729011511870    -0.851611523052     1.007825032230
         H           -1.308396139129     0.667080488130     1.722691476948     1.007825032230
         H            0.365876860871     1.207305488130     1.449437476948     1.007825032230

  Basis Set: AUG-CC-PVTZ
    Blend: AUG-CC-PVTZ
  Basis Set: (AUG-CC-PVTZ AUX)
    Blend: AUG-CC-PVTZ-JKFIT
	 Reference Energy          =   -1495.1186246825968738 [Eh]
	 Singles Energy            =      -0.0000000000000000 [Eh]
	 Same-Spin Energy          =      -0.3131578869140971 [Eh]
	 Opposite-Spin Energy      =      -0.9643641901780136 [Eh]
	 Correlation Energy        =      -1.2775220770921107 [Eh]
	 Total Energy              =   -1496.3961467596889179 [Eh]

	 ================> DF-SCS-MP2 Energies <==================
	-----------------------------------------------------------
	 SCS Same-Spin Scale       =       0.3333333333333333 [-]
	 SCS Opposite-Spin Scale   =       1.2000000000000000 [-]
	 SCS Same-Spin Energy      =      -0.1043859623046990 [Eh]
	 SCS Opposite-Spin Energy  =      -1.1572370282136162 [Eh]
	 SCS Correlation Energy    =      -1.2616229905183152 [Eh]
	 SCS Total Energy          =   -1496.3802476731152638 [Eh]
	-----------------------------------------------------------

  Dipole Moment: [D]
     X:     0.1995      Y:    -0.8282      Z:     1.1632     Total:     1.4418

*** Psi4 exiting successfully. Buy a developer a beer!
