                               Psi4 1.3.2 release

  ==> Input File <==

--------------------------------------------------------------------------
#psi4
#
memory 32 gb

molecule  {
0 1
 Cl       -1.6131768    -1.5113391    -0.0039207
 Cl        2.4627330     0.0122270     0.0169400
 Cl       -1.0685510     1.8023780    -0.3470660
  C       -0.1289900    -0.6488570     0.5010500
  C        0.9355250    -0.6897000    -0.5828100
  C       -0.5154060     0.7427890     0.9710020
  H        0.2242670    -1.1996790     1.3778280
  H        0.6181320    -0.1210460    -1.4565390
  H        1.1355610    -1.7215610    -0.8700150
  H       -1.3207740     0.6750150     1.7029520
  H        0.3537730     1.2151890     1.4309750
units angstrom
no_reorient  #important for SAPT in psi4, default
symmetry c1  #important for SAPT in psi4, default
}

set PROPERTIES_ORIGIN ["COM"]
properties('MP2/aug-cc-pvtz', properties = ['dipole'])
--------------------------------------------------------------------------

    Molecular point group: c1
  Charge       = 0
  Multiplicity = 1
  Basis Set: AUG-CC-PVTZ
    Blend: AUG-CC-PVTZ
  Basis Set: (AUG-CC-PVTZ AUX)
    Blend: AUG-CC-PVTZ-JKFIT

    Orbital Energies [Eh]
    ---------------------

    Doubly Occupied:

       1A   -104.845487     2A   -104.843512     3A   -104.837765
       4A    -11.331764     5A    -11.316431     6A    -11.313443
       7A    -10.569828     8A    -10.568022     9A    -10.562201
      10A     -8.036671    11A     -8.034851    12A     -8.034825
      13A     -8.034785    14A     -8.032987    15A     -8.032928
      16A     -8.029061    17A     -8.027227    18A     -8.027156
      19A     -1.205807    20A     -1.142024    21A     -1.121479
      22A     -0.999613    23A     -0.936005    24A     -0.809072
      25A     -0.695889    26A     -0.670367    27A     -0.619024
      28A     -0.594096    29A     -0.580696    30A     -0.548437
      31A     -0.524268    32A     -0.471034    33A     -0.459733
      34A     -0.455871    35A     -0.452903    36A     -0.443165
      37A     -0.438345

  @DF-RHF Final Energy: -1495.11838269337431

   => Energetics <=

    Nuclear Repulsion Energy =            431.7020732063058972
    One-Electron Energy =               -2922.3473658472794341
    Two-Electron Energy =                 995.5269099475990515
    Total Energy =                      -1495.1183826933743148
  Basis Set: (AUG-CC-PVTZ AUX)
    Blend: AUG-CC-PVTZ-RI
    Molecular point group: c1

    Geometry (in Angstrom), charge = 0, multiplicity = 1:

       Center              X                  Y                   Z               Mass
    ------------   -----------------  -----------------  -----------------  -----------------
         CL          -1.591623719132    -1.527061027853    -0.012087946888    34.968852682000
         CL           2.484286080868    -0.003494927853     0.008772753112    34.968852682000
         CL          -1.046997919132     1.786656072147    -0.355233246888    34.968852682000
         C           -0.107436919132    -0.664578927853     0.492882753112    12.000000000000
         C            0.957078080868    -0.705421927853    -0.590977246888    12.000000000000
         C           -0.493852919132     0.727067072147     0.962834753112    12.000000000000
         H            0.245820080868    -1.215400927853     1.369660753112     1.007825032230
         H            0.639685080868    -0.136767927853    -1.464706246888     1.007825032230
         H            1.157114080868    -1.737282927853    -0.878182246888     1.007825032230
         H           -1.299220919132     0.659293072147     1.694784753112     1.007825032230
         H            0.375326080868     1.199467072147     1.422807753112     1.007825032230

  Basis Set: AUG-CC-PVTZ
    Blend: AUG-CC-PVTZ
  Basis Set: (AUG-CC-PVTZ AUX)
    Blend: AUG-CC-PVTZ-JKFIT
	 Reference Energy          =   -1495.1183826933743148 [Eh]
	 Singles Energy            =      -0.0000000000000000 [Eh]
	 Same-Spin Energy          =      -0.3133208369275731 [Eh]
	 Opposite-Spin Energy      =      -0.9646459869969097 [Eh]
	 Correlation Energy        =      -1.2779668239244828 [Eh]
	 Total Energy              =   -1496.3963495172988587 [Eh]

	 ================> DF-SCS-MP2 Energies <==================
	-----------------------------------------------------------
	 SCS Same-Spin Scale       =       0.3333333333333333 [-]
	 SCS Opposite-Spin Scale   =       1.2000000000000000 [-]
	 SCS Same-Spin Energy      =      -0.1044402789758577 [Eh]
	 SCS Opposite-Spin Energy  =      -1.1575751843962916 [Eh]
	 SCS Correlation Energy    =      -1.2620154633721492 [Eh]
	 SCS Total Energy          =   -1496.3803981567464234 [Eh]
	-----------------------------------------------------------

  Dipole Moment: [D]
     X:     0.4662      Y:    -0.7991      Z:     1.1171     Total:     1.4504

*** Psi4 exiting successfully. Buy a developer a beer!
