                               Psi4 1.4a3.dev225

  ==> Input File <==

--------------------------------------------------------------------------
#psi4
#
memory 32 gb

molecule  {
0 1
 Cl       -1.5559190    -1.5368180    -0.1120840
 Cl        2.4627220     0.0125820     0.0169060
 Cl       -1.0692530     1.8020150    -0.3469870
  C       -0.1287990    -0.6488950     0.5009140
  C        0.9524686    -0.6813814    -0.5763536
  C       -0.5150540     0.7428180     0.9709430
  H        0.2250200    -1.1997290     1.3774140
  H        0.6176610    -0.1200850    -1.4563010
  H        1.1354520    -1.7209640    -0.8707770
  H       -1.3198770     0.6751280     1.7035260
  H        0.3543960     1.2153530     1.4302720
units angstrom
no_reorient  #important for SAPT in psi4, default
symmetry c1  #important for SAPT in psi4, default
}

set PROPERTIES_ORIGIN ["COM"]
properties('MP2/aug-cc-pvtz', properties = ['dipole'])
--------------------------------------------------------------------------

    Molecular point group: c1
  Charge       = 0
  Multiplicity = 1
  Basis Set: AUG-CC-PVTZ
    Blend: AUG-CC-PVTZ
  Basis Set: (AUG-CC-PVTZ AUX)
    Blend: AUG-CC-PVTZ-JKFIT

    Orbital Energies [Eh]
    ---------------------

    Doubly Occupied:

       1A   -104.845193     2A   -104.843791     3A   -104.837861
       4A    -11.331714     5A    -11.314384     6A    -11.314246
       7A    -10.569853     8A    -10.568253     9A    -10.562294
      10A     -8.036737    11A     -8.035056    12A     -8.034877
      13A     -8.034810    14A     -8.033223    15A     -8.033168
      16A     -8.029154    17A     -8.027316    18A     -8.027247
      19A     -1.206041    20A     -1.144151    21A     -1.122238
      22A     -0.999065    23A     -0.933641    24A     -0.808051
      25A     -0.694057    26A     -0.669506    27A     -0.618960
      28A     -0.594981    29A     -0.579160    30A     -0.549272
      31A     -0.526534    32A     -0.470605    33A     -0.459893
      34A     -0.455006    35A     -0.452575    36A     -0.442791
      37A     -0.438036

  @DF-RHF Final Energy: -1495.11850093939938

   => Energetics <=

    Nuclear Repulsion Energy =            432.2845095017246422
    One-Electron Energy =               -2923.5185413728336243
    Two-Electron Energy =                 996.1155309317095998
    Total Energy =                      -1495.1185009393993823
  Basis Set: (AUG-CC-PVTZ AUX)
    Blend: AUG-CC-PVTZ-RI
    Molecular point group: c1

    Geometry (in Angstrom), charge = 0, multiplicity = 1:

       Center              X                  Y                   Z               Mass
    ------------   -----------------  -----------------  -----------------  -----------------
         CL          -1.549363637329    -1.547128781278    -0.094853363424    34.968852682000
         CL           2.469277362671     0.002271218722     0.034136636576    34.968852682000
         CL          -1.062697637329     1.791704218722    -0.329756363424    34.968852682000
         C           -0.122243637329    -0.659205781278     0.518144636576    12.000000000000
         C            0.959023962671    -0.691692181278    -0.559122963424    12.000000000000
         C           -0.508498637329     0.732507218722     0.988173636576    12.000000000000
         H            0.231575362671    -1.210039781278     1.394644636576     1.007825032230
         H            0.624216362671    -0.130395781278    -1.439070363424     1.007825032230
         H            1.142007362671    -1.731274781278    -0.853546363424     1.007825032230
         H           -1.313321637329     0.664817218722     1.720756636576     1.007825032230
         H            0.360951362671     1.205042218722     1.447502636576     1.007825032230

  Basis Set: AUG-CC-PVTZ
    Blend: AUG-CC-PVTZ
  Basis Set: (AUG-CC-PVTZ AUX)
    Blend: AUG-CC-PVTZ-JKFIT
	 Reference Energy          =   -1495.1185009393993823 [Eh]
	 Singles Energy            =      -0.0000000000000000 [Eh]
	 Same-Spin Energy          =      -0.3135692687785497 [Eh]
	 Opposite-Spin Energy      =      -0.9648478965340332 [Eh]
	 Correlation Energy        =      -1.2784171653125829 [Eh]
	 Total Energy              =   -1496.3969181047118582 [Eh]

	 ================> DF-SCS-MP2 Energies <==================
	-----------------------------------------------------------
	 SCS Same-Spin Scale       =       0.3333333333333333 [-]
	 SCS Opposite-Spin Scale   =       1.2000000000000000 [-]
	 SCS Same-Spin Energy      =      -0.1045230895928499 [Eh]
	 SCS Opposite-Spin Energy  =      -1.1578174758408399 [Eh]
	 SCS Correlation Energy    =      -1.2623405654336899 [Eh]
	 SCS Total Energy          =   -1496.3808415048331426 [Eh]
	-----------------------------------------------------------

  Dipole Moment: [D]
     X:     0.4294      Y:    -0.7660      Z:     1.2027     Total:     1.4891

*** Psi4 exiting successfully. Buy a developer a beer!
