                               Psi4 1.3.2 release

  ==> Input File <==

--------------------------------------------------------------------------
#psi4
#
memory 32 gb

molecule  {
0 1
 Cl       -1.5491823    -1.5779218    -0.0660246
 Cl        2.4627330     0.0122270     0.0169400
 Cl       -1.0685510     1.8023780    -0.3470660
  C       -0.1289900    -0.6488570     0.5010500
  C        0.9355250    -0.6897000    -0.5828100
  C       -0.5154060     0.7427890     0.9710020
  H        0.2242670    -1.1996790     1.3778280
  H        0.6181320    -0.1210460    -1.4565390
  H        1.1355610    -1.7215610    -0.8700150
  H       -1.3207740     0.6750150     1.7029520
  H        0.3537730     1.2151890     1.4309750
units angstrom
no_reorient  #important for SAPT in psi4, default
symmetry c1  #important for SAPT in psi4, default
}

set PROPERTIES_ORIGIN ["COM"]
properties('MP2/aug-cc-pvtz', properties = ['dipole'])
--------------------------------------------------------------------------

    Molecular point group: c1
  Charge       = 0
  Multiplicity = 1
  Basis Set: AUG-CC-PVTZ
    Blend: AUG-CC-PVTZ
  Basis Set: (AUG-CC-PVTZ AUX)
    Blend: AUG-CC-PVTZ-JKFIT

    Orbital Energies [Eh]
    ---------------------

    Doubly Occupied:

       1A   -104.844106     2A   -104.843866     3A   -104.838543
       4A    -11.332017     5A    -11.315224     6A    -11.315172
       7A    -10.568590     8A    -10.568278     9A    -10.562968
      10A     -8.035394    11A     -8.035119    12A     -8.033558
      13A     -8.033500    14A     -8.033311    15A     -8.033246
      16A     -8.029830    17A     -8.027991    18A     -8.027922
      19A     -1.205733    20A     -1.141115    21A     -1.122752
      22A     -0.999765    23A     -0.935867    24A     -0.809429
      25A     -0.695945    26A     -0.669863    27A     -0.619994
      28A     -0.593919    29A     -0.580580    30A     -0.549375
      31A     -0.524331    32A     -0.470220    33A     -0.460539
      34A     -0.454937    35A     -0.452684    36A     -0.443638
      37A     -0.439034

  @DF-RHF Final Energy: -1495.11919431065371

   => Energetics <=

    Nuclear Repulsion Energy =            431.3217747167612970
    One-Electron Energy =               -2921.5852255000168043
    Two-Electron Energy =                 995.1442564726016826
    Total Energy =                      -1495.1191943106537110
  Basis Set: (AUG-CC-PVTZ AUX)
    Blend: AUG-CC-PVTZ-RI
    Molecular point group: c1

    Geometry (in Angstrom), charge = 0, multiplicity = 1:

       Center              X                  Y                   Z               Mass
    ------------   -----------------  -----------------  -----------------  -----------------
         CL          -1.542962418400    -1.577690391130    -0.059311638839    34.968852682000
         CL           2.468952881600     0.012458408870     0.023652961161    34.968852682000
         CL          -1.062331118400     1.802609408870    -0.340353038839    34.968852682000
         C           -0.122770118400    -0.648625591130     0.507762961161    12.000000000000
         C            0.941744881600    -0.689468591130    -0.576097038839    12.000000000000
         C           -0.509186118400     0.743020408870     0.977714961161    12.000000000000
         H            0.230486881600    -1.199447591130     1.384540961161     1.007825032230
         H            0.624351881600    -0.120814591130    -1.449826038839     1.007825032230
         H            1.141780881600    -1.721329591130    -0.863302038839     1.007825032230
         H           -1.314554118400     0.675246408870     1.709664961161     1.007825032230
         H            0.359992881600     1.215420408870     1.437687961161     1.007825032230

  Basis Set: AUG-CC-PVTZ
    Blend: AUG-CC-PVTZ
  Basis Set: (AUG-CC-PVTZ AUX)
    Blend: AUG-CC-PVTZ-JKFIT
	 Reference Energy          =   -1495.1191943106537110 [Eh]
	 Singles Energy            =      -0.0000000000000000 [Eh]
	 Same-Spin Energy          =      -0.3132771502128487 [Eh]
	 Opposite-Spin Energy      =      -0.9645252655866536 [Eh]
	 Correlation Energy        =      -1.2778024157995023 [Eh]
	 Total Energy              =   -1496.3969967264531533 [Eh]

	 ================> DF-SCS-MP2 Energies <==================
	-----------------------------------------------------------
	 SCS Same-Spin Scale       =       0.3333333333333333 [-]
	 SCS Opposite-Spin Scale   =       1.2000000000000000 [-]
	 SCS Same-Spin Energy      =      -0.1044257167376162 [Eh]
	 SCS Opposite-Spin Energy  =      -1.1574303187039843 [Eh]
	 SCS Correlation Energy    =      -1.2618560354416006 [Eh]
	 SCS Total Energy          =   -1496.3810503460952077 [Eh]
	-----------------------------------------------------------

  Dipole Moment: [D]
     X:     0.3817      Y:    -0.7528      Z:     1.1707     Total:     1.4432

*** Psi4 exiting successfully. Buy a developer a beer!
