                               Psi4 1.3.2 release

  ==> Input File <==

--------------------------------------------------------------------------
#psi4
#
memory 32 gb

molecule  {
0 1
 Cl       -1.5564010    -1.5365640    -0.1122650
 Cl        2.3744124     0.0410727     0.1789905
 Cl       -1.0685510     1.8023780    -0.3470660
  C       -0.1289900    -0.6488570     0.5010500
  C        0.9355250    -0.6897000    -0.5828100
  C       -0.5154060     0.7427890     0.9710020
  H        0.2242670    -1.1996790     1.3778280
  H        0.6181320    -0.1210460    -1.4565390
  H        1.1355610    -1.7215610    -0.8700150
  H       -1.3207740     0.6750150     1.7029520
  H        0.3537730     1.2151890     1.4309750
units angstrom
no_reorient  #important for SAPT in psi4, default
symmetry c1  #important for SAPT in psi4, default
}

set PROPERTIES_ORIGIN ["COM"]
properties('MP2/aug-cc-pvtz', properties = ['dipole'])
--------------------------------------------------------------------------

    Molecular point group: c1
  Charge       = 0
  Multiplicity = 1
  Basis Set: AUG-CC-PVTZ
    Blend: AUG-CC-PVTZ
  Basis Set: (AUG-CC-PVTZ AUX)
    Blend: AUG-CC-PVTZ-JKFIT

    Orbital Energies [Eh]
    ---------------------

    Doubly Occupied:

       1A   -104.844252     2A   -104.841312     3A   -104.837447
       4A    -11.330435     5A    -11.316364     6A    -11.313067
       7A    -10.568926     8A    -10.565941     9A    -10.561882
      10A     -8.035747    11A     -8.033953    12A     -8.033888
      13A     -8.032738    14A     -8.030923    15A     -8.030869
      16A     -8.028742    17A     -8.026910    18A     -8.026839
      19A     -1.207945    20A     -1.140938    21A     -1.120941
      22A     -0.996664    23A     -0.937231    24A     -0.809361
      25A     -0.696215    26A     -0.670316    27A     -0.617793
      28A     -0.596910    29A     -0.580031    30A     -0.547601
      31A     -0.523809    32A     -0.470089    33A     -0.457691
      34A     -0.456425    35A     -0.454050    36A     -0.442161
      37A     -0.436779

  @DF-RHF Final Energy: -1495.11622085137788

   => Energetics <=

    Nuclear Repulsion Energy =            435.2123135278299628
    One-Electron Energy =               -2929.4106987976260825
    Two-Electron Energy =                 999.0821644184184152
    Total Energy =                      -1495.1162208513778751
  Basis Set: (AUG-CC-PVTZ AUX)
    Blend: AUG-CC-PVTZ-RI
    Molecular point group: c1

    Geometry (in Angstrom), charge = 0, multiplicity = 1:

       Center              X                  Y                   Z               Mass
    ------------   -----------------  -----------------  -----------------  -----------------
         CL          -1.527289727345    -1.553153478156    -0.133300350656    34.968852682000
         CL           2.403523672655     0.024483221844     0.157955149344    34.968852682000
         CL          -1.039439727345     1.785788521844    -0.368101350656    34.968852682000
         C           -0.099878727345    -0.665446478156     0.480014649344    12.000000000000
         C            0.964636272655    -0.706289478156    -0.603845350656    12.000000000000
         C           -0.486294727345     0.726199521844     0.949966649344    12.000000000000
         H            0.253378272655    -1.216268478156     1.356792649344     1.007825032230
         H            0.647243272655    -0.137635478156    -1.477574350656     1.007825032230
         H            1.164672272655    -1.738150478156    -0.891050350656     1.007825032230
         H           -1.291662727345     0.658425521844     1.681916649344     1.007825032230
         H            0.382884272655     1.198599521844     1.409939649344     1.007825032230

  Basis Set: AUG-CC-PVTZ
    Blend: AUG-CC-PVTZ
  Basis Set: (AUG-CC-PVTZ AUX)
    Blend: AUG-CC-PVTZ-JKFIT
	 Reference Energy          =   -1495.1162208513778751 [Eh]
	 Singles Energy            =      -0.0000000000000000 [Eh]
	 Same-Spin Energy          =      -0.3141232685487588 [Eh]
	 Opposite-Spin Energy      =      -0.9654546461300226 [Eh]
	 Correlation Energy        =      -1.2795779146787813 [Eh]
	 Total Energy              =   -1496.3957987660567142 [Eh]

	 ================> DF-SCS-MP2 Energies <==================
	-----------------------------------------------------------
	 SCS Same-Spin Scale       =       0.3333333333333333 [-]
	 SCS Opposite-Spin Scale   =       1.2000000000000000 [-]
	 SCS Same-Spin Energy      =      -0.1047077561829196 [Eh]
	 SCS Opposite-Spin Energy  =      -1.1585455753560272 [Eh]
	 SCS Correlation Energy    =      -1.2632533315389467 [Eh]
	 SCS Total Energy          =   -1496.3794741829167378 [Eh]
	-----------------------------------------------------------

  Dipole Moment: [D]
     X:     0.5153      Y:    -0.7852      Z:     1.0812     Total:     1.4321

*** Psi4 exiting successfully. Buy a developer a beer!
