                               Psi4 1.3.2 release

  ==> Input File <==

--------------------------------------------------------------------------
#psi4
#
memory 32 gb

molecule  {
0 1
 Cl       -1.5564010    -1.5365640    -0.1122650
 Cl        2.4498470     0.1351103    -0.1231550
 Cl       -1.0685510     1.8023780    -0.3470660
  C       -0.1289900    -0.6488570     0.5010500
  C        0.9355250    -0.6897000    -0.5828100
  C       -0.5154060     0.7427890     0.9710020
  H        0.2242670    -1.1996790     1.3778280
  H        0.6181320    -0.1210460    -1.4565390
  H        1.1355610    -1.7215610    -0.8700150
  H       -1.3207740     0.6750150     1.7029520
  H        0.3537730     1.2151890     1.4309750
units angstrom
no_reorient  #important for SAPT in psi4, default
symmetry c1  #important for SAPT in psi4, default
}

set PROPERTIES_ORIGIN ["COM"]
properties('MP2/aug-cc-pvtz', properties = ['dipole'])
--------------------------------------------------------------------------

    Molecular point group: c1
  Charge       = 0
  Multiplicity = 1
  Basis Set: AUG-CC-PVTZ
    Blend: AUG-CC-PVTZ
  Basis Set: (AUG-CC-PVTZ AUX)
    Blend: AUG-CC-PVTZ-JKFIT

    Orbital Energies [Eh]
    ---------------------

    Doubly Occupied:

       1A   -104.845223     2A   -104.842715     3A   -104.837930
       4A    -11.333198     5A    -11.314982     6A    -11.314099
       7A    -10.569676     8A    -10.567098     9A    -10.562348
      10A     -8.036478    11A     -8.034635    12A     -8.034576
      13A     -8.033940    14A     -8.032127    15A     -8.032055
      16A     -8.029210    17A     -8.027367    18A     -8.027298
      19A     -1.205700    20A     -1.140197    21A     -1.122667
      22A     -1.000556    23A     -0.935161    24A     -0.809027
      25A     -0.695863    26A     -0.669697    27A     -0.622770
      28A     -0.590797    29A     -0.579879    30A     -0.549431
      31A     -0.524154    32A     -0.469663    33A     -0.460808
      34A     -0.455139    35A     -0.450094    36A     -0.443699
      37A     -0.439007

  @DF-RHF Final Energy: -1495.11763044345821

   => Energetics <=

    Nuclear Repulsion Energy =            432.2084317920871968
    One-Electron Energy =               -2923.3735951843923431
    Two-Electron Energy =                 996.0475329488469924
    Total Energy =                      -1495.1176304434582107
  Basis Set: (AUG-CC-PVTZ AUX)
    Blend: AUG-CC-PVTZ-RI
    Molecular point group: c1

    Geometry (in Angstrom), charge = 0, multiplicity = 1:

       Center              X                  Y                   Z               Mass
    ------------   -----------------  -----------------  -----------------  -----------------
         CL          -1.545363995501    -1.575685059144    -0.060905736126    34.968852682000
         CL           2.460884004499     0.095989240856    -0.071795736126    34.968852682000
         CL          -1.057513995501     1.763256940856    -0.295706736126    34.968852682000
         C           -0.117952995501    -0.687978059144     0.552409263874    12.000000000000
         C            0.946562004499    -0.728821059144    -0.531450736126    12.000000000000
         C           -0.504368995501     0.703667940856     1.022361263874    12.000000000000
         H            0.235304004499    -1.238800059144     1.429187263874     1.007825032230
         H            0.629169004499    -0.160167059144    -1.405179736126     1.007825032230
         H            1.146598004499    -1.760682059144    -0.818655736126     1.007825032230
         H           -1.309736995501     0.635893940856     1.754311263874     1.007825032230
         H            0.364810004499     1.176067940856     1.482334263874     1.007825032230

  Basis Set: AUG-CC-PVTZ
    Blend: AUG-CC-PVTZ
  Basis Set: (AUG-CC-PVTZ AUX)
    Blend: AUG-CC-PVTZ-JKFIT
	 Reference Energy          =   -1495.1176304434582107 [Eh]
	 Singles Energy            =      -0.0000000000000000 [Eh]
	 Same-Spin Energy          =      -0.3134091281509264 [Eh]
	 Opposite-Spin Energy      =      -0.9647430137437043 [Eh]
	 Correlation Energy        =      -1.2781521418946307 [Eh]
	 Total Energy              =   -1496.3957825853528902 [Eh]

	 ================> DF-SCS-MP2 Energies <==================
	-----------------------------------------------------------
	 SCS Same-Spin Scale       =       0.3333333333333333 [-]
	 SCS Opposite-Spin Scale   =       1.2000000000000000 [-]
	 SCS Same-Spin Energy      =      -0.1044697093836421 [Eh]
	 SCS Opposite-Spin Energy  =      -1.1576916164924451 [Eh]
	 SCS Correlation Energy    =      -1.2621613258760873 [Eh]
	 SCS Total Energy          =   -1496.3797917693343607 [Eh]
	-----------------------------------------------------------

  Dipole Moment: [D]
     X:     0.3389      Y:    -0.8672      Z:     1.2846     Total:     1.5865

*** Psi4 exiting successfully. Buy a developer a beer!
