                               Psi4 1.3.2 release

  ==> Input File <==

--------------------------------------------------------------------------
#psi4
#
memory 32 gb

molecule  {
0 1
 Cl       -1.5712583    -1.5306588    -0.0854387
 Cl        2.4627330     0.0122270     0.0169400
 Cl       -1.0685510     1.8023780    -0.3470660
  C       -0.1289900    -0.6488570     0.5010500
  C        0.9355250    -0.6897000    -0.5828100
  C       -0.5154060     0.7427890     0.9710020
  H        0.2242670    -1.1996790     1.3778280
  H        0.6181320    -0.1210460    -1.4565390
  H        1.1355610    -1.7215610    -0.8700150
  H       -1.3207740     0.6750150     1.7029520
  H        0.3537730     1.2151890     1.4309750
units angstrom
no_reorient  #important for SAPT in psi4, default
symmetry c1  #important for SAPT in psi4, default
}

set PROPERTIES_ORIGIN ["COM"]
properties('MP2/aug-cc-pvtz', properties = ['dipole'])
--------------------------------------------------------------------------

    Molecular point group: c1
  Charge       = 0
  Multiplicity = 1
  Basis Set: AUG-CC-PVTZ
    Blend: AUG-CC-PVTZ
  Basis Set: (AUG-CC-PVTZ AUX)
    Blend: AUG-CC-PVTZ-JKFIT

    Orbital Energies [Eh]
    ---------------------

    Doubly Occupied:

       1A   -104.843978     2A   -104.843845     3A   -104.838114
       4A    -11.332120     5A    -11.315279     6A    -11.314512
       7A    -10.568387     8A    -10.568353     9A    -10.562544
      10A     -8.035227    11A     -8.035155    12A     -8.033419
      13A     -8.033354    14A     -8.033320    15A     -8.033264
      16A     -8.029404    17A     -8.027567    18A     -8.027497
      19A     -1.206048    20A     -1.141191    21A     -1.121906
      22A     -0.999619    23A     -0.935836    24A     -0.809299
      25A     -0.696065    26A     -0.669934    27A     -0.619802
      28A     -0.593769    29A     -0.580545    30A     -0.548601
      31A     -0.524610    32A     -0.470107    33A     -0.459850
      34A     -0.455445    35A     -0.452929    36A     -0.443212
      37A     -0.438802

  @DF-RHF Final Energy: -1495.11920595445213

   => Energetics <=

    Nuclear Repulsion Energy =            432.0393496491681731
    One-Electron Energy =               -2923.0312902318109991
    Two-Electron Energy =                 995.8727346281904147
    Total Energy =                      -1495.1192059544523545
  Basis Set: (AUG-CC-PVTZ AUX)
    Blend: AUG-CC-PVTZ-RI
    Molecular point group: c1

    Geometry (in Angstrom), charge = 0, multiplicity = 1:

       Center              X                  Y                   Z               Mass
    ------------   -----------------  -----------------  -----------------  -----------------
         CL          -1.559748968415    -1.541751692390    -0.074074084964    34.968852682000
         CL           2.474242331585     0.001134107610     0.028304615036    34.968852682000
         CL          -1.057041668415     1.791285107610    -0.335701384964    34.968852682000
         C           -0.117480668415    -0.659949892390     0.512414615036    12.000000000000
         C            0.947034331585    -0.700792892390    -0.571445384964    12.000000000000
         C           -0.503896668415     0.731696107610     0.982366615036    12.000000000000
         H            0.235776331585    -1.210771892390     1.389192615036     1.007825032230
         H            0.629641331585    -0.132138892390    -1.445174384964     1.007825032230
         H            1.147070331585    -1.732653892390    -0.858650384964     1.007825032230
         H           -1.309264668415     0.663922107610     1.714316615036     1.007825032230
         H            0.365282331585     1.204096107610     1.442339615036     1.007825032230

  Basis Set: AUG-CC-PVTZ
    Blend: AUG-CC-PVTZ
  Basis Set: (AUG-CC-PVTZ AUX)
    Blend: AUG-CC-PVTZ-JKFIT
	 Reference Energy          =   -1495.1192059544521271 [Eh]
	 Singles Energy            =      -0.0000000000000000 [Eh]
	 Same-Spin Energy          =      -0.3133803725626377 [Eh]
	 Opposite-Spin Energy      =      -0.9646426430352453 [Eh]
	 Correlation Energy        =      -1.2780230155978831 [Eh]
	 Total Energy              =   -1496.3972289700500369 [Eh]

	 ================> DF-SCS-MP2 Energies <==================
	-----------------------------------------------------------
	 SCS Same-Spin Scale       =       0.3333333333333333 [-]
	 SCS Opposite-Spin Scale   =       1.2000000000000000 [-]
	 SCS Same-Spin Energy      =      -0.1044601241875459 [Eh]
	 SCS Opposite-Spin Energy  =      -1.1575711716422943 [Eh]
	 SCS Correlation Energy    =      -1.2620312958298401 [Eh]
	 SCS Total Energy          =   -1496.3812372502818562 [Eh]
	-----------------------------------------------------------

  Dipole Moment: [D]
     X:     0.3924      Y:    -0.7869      Z:     1.1735     Total:     1.4664

*** Psi4 exiting successfully. Buy a developer a beer!
