                               Psi4 1.4a3.dev225

  ==> Input File <==

--------------------------------------------------------------------------
#psi4
#
memory 32 gb

molecule  {
0 1
 Cl       -1.5559190    -1.5368180    -0.1120840
 Cl        2.4627220     0.0125820     0.0169060
 Cl       -1.0692530     1.8020150    -0.3469870
  C       -0.1287990    -0.6488950     0.5009140
  C        0.9781420    -0.6695844    -0.5662686
  C       -0.5150540     0.7428180     0.9709430
  H        0.2250200    -1.1997290     1.3774140
  H        0.6176610    -0.1200850    -1.4563010
  H        1.1354520    -1.7209640    -0.8707770
  H       -1.3198770     0.6751280     1.7035260
  H        0.3543960     1.2153530     1.4302720
units angstrom
no_reorient  #important for SAPT in psi4, default
symmetry c1  #important for SAPT in psi4, default
}

set PROPERTIES_ORIGIN ["COM"]
properties('MP2/aug-cc-pvtz', properties = ['dipole'])
--------------------------------------------------------------------------

    Molecular point group: c1
  Charge       = 0
  Multiplicity = 1
  Basis Set: AUG-CC-PVTZ
    Blend: AUG-CC-PVTZ
  Basis Set: (AUG-CC-PVTZ AUX)
    Blend: AUG-CC-PVTZ-JKFIT

    Orbital Energies [Eh]
    ---------------------

    Doubly Occupied:

       1A   -104.847626     2A   -104.843613     3A   -104.837309
       4A    -11.331075     5A    -11.313693     6A    -11.313549
       7A    -10.572686     8A    -10.567993     9A    -10.561747
      10A     -8.039644    11A     -8.037689    12A     -8.037619
      13A     -8.034799    14A     -8.032969    15A     -8.032916
      16A     -8.028606    17A     -8.026769    18A     -8.026702
      19A     -1.206295    20A     -1.149467    21A     -1.122104
      22A     -0.998190    23A     -0.930362    24A     -0.806084
      25A     -0.691048    26A     -0.669128    27A     -0.618450
      28A     -0.596774    29A     -0.577252    30A     -0.550505
      31A     -0.528570    32A     -0.471796    33A     -0.459809
      34A     -0.454394    35A     -0.451690    36A     -0.442134
      37A     -0.436541

  @DF-RHF Final Energy: -1495.11624646791665

   => Energetics <=

    Nuclear Repulsion Energy =            432.4390495697049346
    One-Electron Energy =               -2923.8153915250745740
    Two-Electron Energy =                 996.2600954874530998
    Total Energy =                      -1495.1162464679166533
  Basis Set: (AUG-CC-PVTZ AUX)
    Blend: AUG-CC-PVTZ-RI
    Molecular point group: c1

    Geometry (in Angstrom), charge = 0, multiplicity = 1:

       Center              X                  Y                   Z               Mass
    ------------   -----------------  -----------------  -----------------  -----------------
         CL          -1.551474565129    -1.548098758580    -0.095682576028    34.968852682000
         CL           2.467166434871     0.001301241420     0.033307423972    34.968852682000
         CL          -1.064808565129     1.790734241420    -0.330585576028    34.968852682000
         C           -0.124354565129    -0.660175758580     0.517315423972    12.000000000000
         C            0.982586434871    -0.680865158580    -0.549867176028    12.000000000000
         C           -0.510609565129     0.731537241420     0.987344423972    12.000000000000
         H            0.229464434871    -1.211009758580     1.393815423972     1.007825032230
         H            0.622105434871    -0.131365758580    -1.439899576028     1.007825032230
         H            1.139896434871    -1.732244758580    -0.854375576028     1.007825032230
         H           -1.315432565129     0.663847241420     1.719927423972     1.007825032230
         H            0.358840434871     1.204072241420     1.446673423972     1.007825032230

  Basis Set: AUG-CC-PVTZ
    Blend: AUG-CC-PVTZ
  Basis Set: (AUG-CC-PVTZ AUX)
    Blend: AUG-CC-PVTZ-JKFIT
	 Reference Energy          =   -1495.1162464679166533 [Eh]
	 Singles Energy            =      -0.0000000000000000 [Eh]
	 Same-Spin Energy          =      -0.3138410794024293 [Eh]
	 Opposite-Spin Energy      =      -0.9651832283890828 [Eh]
	 Correlation Energy        =      -1.2790243077915120 [Eh]
	 Total Energy              =   -1496.3952707757082408 [Eh]

	 ================> DF-SCS-MP2 Energies <==================
	-----------------------------------------------------------
	 SCS Same-Spin Scale       =       0.3333333333333333 [-]
	 SCS Opposite-Spin Scale   =       1.2000000000000000 [-]
	 SCS Same-Spin Energy      =      -0.1046136931341431 [Eh]
	 SCS Opposite-Spin Energy  =      -1.1582198740668992 [Eh]
	 SCS Correlation Energy    =      -1.2628335672010422 [Eh]
	 SCS Total Energy          =   -1496.3790800351177950 [Eh]
	-----------------------------------------------------------

  Dipole Moment: [D]
     X:     0.5205      Y:    -0.7410      Z:     1.2206     Total:     1.5198

*** Psi4 exiting successfully. Buy a developer a beer!
