                               Psi4 1.4a3.dev225

  ==> Input File <==

--------------------------------------------------------------------------
#psi4
#
memory 32 gb

molecule  {
0 1
 Cl       -1.5559190    -1.5368180    -0.1120840
 Cl        2.4627220     0.0125820     0.0169060
 Cl       -1.0692530     1.8020150    -0.3469870
  C       -0.1447526    -0.6588210     0.4940614
  C        0.9353530    -0.6892460    -0.5830770
  C       -0.5150540     0.7428180     0.9709430
  H        0.2250200    -1.1997290     1.3774140
  H        0.6176610    -0.1200850    -1.4563010
  H        1.1354520    -1.7209640    -0.8707770
  H       -1.3198770     0.6751280     1.7035260
  H        0.3543960     1.2153530     1.4302720
units angstrom
no_reorient  #important for SAPT in psi4, default
symmetry c1  #important for SAPT in psi4, default
}

set PROPERTIES_ORIGIN ["COM"]
properties('MP2/aug-cc-pvtz', properties = ['dipole'])
--------------------------------------------------------------------------

    Molecular point group: c1
  Charge       = 0
  Multiplicity = 1
  Basis Set: AUG-CC-PVTZ
    Blend: AUG-CC-PVTZ
  Basis Set: (AUG-CC-PVTZ AUX)
    Blend: AUG-CC-PVTZ-JKFIT

    Orbital Energies [Eh]
    ---------------------

    Doubly Occupied:

       1A   -104.846002     2A   -104.843290     3A   -104.837609
       4A    -11.331466     5A    -11.314519     6A    -11.314316
       7A    -10.570725     8A    -10.567667     9A    -10.562061
      10A     -8.037571    11A     -8.035679    12A     -8.035623
      13A     -8.034507    14A     -8.032706    15A     -8.032642
      16A     -8.028921    17A     -8.027087    18A     -8.027018
      19A     -1.206905    20A     -1.140227    21A     -1.124745
      22A     -0.998092    23A     -0.934238    24A     -0.808276
      25A     -0.694250    26A     -0.669496    27A     -0.619927
      28A     -0.594061    29A     -0.577842    30A     -0.548872
      31A     -0.528155    32A     -0.470949    33A     -0.460499
      34A     -0.454750    35A     -0.452180    36A     -0.442855
      37A     -0.437885

  @DF-RHF Final Energy: -1495.11863545859933

   => Energetics <=

    Nuclear Repulsion Energy =            432.2622691137800075
    One-Electron Energy =               -2923.4745797592254348
    Two-Electron Energy =                 996.0936751868462125
    Total Energy =                      -1495.1186354585993286
  Basis Set: (AUG-CC-PVTZ AUX)
    Blend: AUG-CC-PVTZ-RI
    Molecular point group: c1

    Geometry (in Angstrom), charge = 0, multiplicity = 1:

       Center              X                  Y                   Z               Mass
    ------------   -----------------  -----------------  -----------------  -----------------
         CL          -1.546644609323    -1.545665995978    -0.093737112525    34.968852682000
         CL           2.471996390677     0.003734004022     0.035252887475    34.968852682000
         CL          -1.059978609323     1.793167004022    -0.328640112525    34.968852682000
         C           -0.135478209323    -0.667668995978     0.512408287475    12.000000000000
         C            0.944627390677    -0.698093995978    -0.564730112525    12.000000000000
         C           -0.505779609323     0.733970004022     0.989289887475    12.000000000000
         H            0.234294390677    -1.208576995978     1.395760887475     1.007825032230
         H            0.626935390677    -0.128932995978    -1.437954112525     1.007825032230
         H            1.144726390677    -1.729811995978    -0.852430112525     1.007825032230
         H           -1.310602609323     0.666280004022     1.721872887475     1.007825032230
         H            0.363670390677     1.206505004022     1.448618887475     1.007825032230

  Basis Set: AUG-CC-PVTZ
    Blend: AUG-CC-PVTZ
  Basis Set: (AUG-CC-PVTZ AUX)
    Blend: AUG-CC-PVTZ-JKFIT
	 Reference Energy          =   -1495.1186354585993286 [Eh]
	 Singles Energy            =      -0.0000000000000000 [Eh]
	 Same-Spin Energy          =      -0.3135141166705701 [Eh]
	 Opposite-Spin Energy      =      -0.9647838956151126 [Eh]
	 Correlation Energy        =      -1.2782980122856826 [Eh]
	 Total Energy              =   -1496.3969334708849601 [Eh]

	 ================> DF-SCS-MP2 Energies <==================
	-----------------------------------------------------------
	 SCS Same-Spin Scale       =       0.3333333333333333 [-]
	 SCS Opposite-Spin Scale   =       1.2000000000000000 [-]
	 SCS Same-Spin Energy      =      -0.1045047055568567 [Eh]
	 SCS Opposite-Spin Energy  =      -1.1577406747381351 [Eh]
	 SCS Correlation Energy    =      -1.2622453802949918 [Eh]
	 SCS Total Energy          =   -1496.3808808388944271 [Eh]
	-----------------------------------------------------------

  Dipole Moment: [D]
     X:     0.3167      Y:    -0.8283      Z:     1.1794     Total:     1.4756

*** Psi4 exiting successfully. Buy a developer a beer!
