                               Psi4 1.3.2 release

  ==> Input File <==

--------------------------------------------------------------------------
#psi4
#
memory 32 gb

molecule  {
0 1
 Cl       -1.5402333    -1.6181478    -0.0190933
 Cl        2.4627330     0.0122270     0.0169400
 Cl       -1.0685510     1.8023780    -0.3470660
  C       -0.1289900    -0.6488570     0.5010500
  C        0.9355250    -0.6897000    -0.5828100
  C       -0.5154060     0.7427890     0.9710020
  H        0.2242670    -1.1996790     1.3778280
  H        0.6181320    -0.1210460    -1.4565390
  H        1.1355610    -1.7215610    -0.8700150
  H       -1.3207740     0.6750150     1.7029520
  H        0.3537730     1.2151890     1.4309750
units angstrom
no_reorient  #important for SAPT in psi4, default
symmetry c1  #important for SAPT in psi4, default
}

set PROPERTIES_ORIGIN ["COM"]
properties('MP2/aug-cc-pvtz', properties = ['dipole'])
--------------------------------------------------------------------------

    Molecular point group: c1
  Charge       = 0
  Multiplicity = 1
  Basis Set: AUG-CC-PVTZ
    Blend: AUG-CC-PVTZ
  Basis Set: (AUG-CC-PVTZ AUX)
    Blend: AUG-CC-PVTZ-JKFIT

    Orbital Energies [Eh]
    ---------------------

    Doubly Occupied:

       1A   -104.844260     2A   -104.844247     3A   -104.838824
       4A    -11.331781     5A    -11.315576     6A    -11.315447
       7A    -10.568708     8A    -10.568652     9A    -10.563249
      10A     -8.035515    11A     -8.035494    12A     -8.033682
      13A     -8.033676    14A     -8.033616    15A     -8.033616
      16A     -8.030110    17A     -8.028272    18A     -8.028203
      19A     -1.205355    20A     -1.141291    21A     -1.123455
      22A     -0.999902    23A     -0.935976    24A     -0.809466
      25A     -0.695801    26A     -0.669911    27A     -0.619903
      28A     -0.594196    29A     -0.580686    30A     -0.550078
      31A     -0.523960    32A     -0.470695    33A     -0.461112
      34A     -0.454736    35A     -0.452194    36A     -0.443928
      37A     -0.439159

  @DF-RHF Final Energy: -1495.11872010462844

   => Energetics <=

    Nuclear Repulsion Energy =            430.5187427320880147
    One-Electron Energy =               -2919.9654604760430630
    Two-Electron Energy =                 994.3279976393265542
    Total Energy =                      -1495.1187201046286646
  Basis Set: (AUG-CC-PVTZ AUX)
    Blend: AUG-CC-PVTZ-RI
    Molecular point group: c1

    Geometry (in Angstrom), charge = 0, multiplicity = 1:

       Center              X                  Y                   Z               Mass
    ------------   -----------------  -----------------  -----------------  -----------------
         CL          -1.536157615171    -1.608278167942    -0.023625164172    34.968852682000
         CL           2.466808684829     0.022096632058     0.012408135828    34.968852682000
         CL          -1.064475315171     1.812247632058    -0.351597864172    34.968852682000
         C           -0.124914315171    -0.638987367942     0.496518135828    12.000000000000
         C            0.939600684829    -0.679830367942    -0.587341864172    12.000000000000
         C           -0.511330315171     0.752658632058     0.966470135828    12.000000000000
         H            0.228342684829    -1.189809367942     1.373296135828     1.007825032230
         H            0.622207684829    -0.111176367942    -1.461070864172     1.007825032230
         H            1.139636684829    -1.711691367942    -0.874546864172     1.007825032230
         H           -1.316698315171     0.684884632058     1.698420135828     1.007825032230
         H            0.357848684829     1.225058632058     1.426443135828     1.007825032230

  Basis Set: AUG-CC-PVTZ
    Blend: AUG-CC-PVTZ
  Basis Set: (AUG-CC-PVTZ AUX)
    Blend: AUG-CC-PVTZ-JKFIT
	 Reference Energy          =   -1495.1187201046284372 [Eh]
	 Singles Energy            =      -0.0000000000000000 [Eh]
	 Same-Spin Energy          =      -0.3131672319896527 [Eh]
	 Opposite-Spin Energy      =      -0.9644291534173468 [Eh]
	 Correlation Energy        =      -1.2775963854069996 [Eh]
	 Total Energy              =   -1496.3963164900353604 [Eh]

	 ================> DF-SCS-MP2 Energies <==================
	-----------------------------------------------------------
	 SCS Same-Spin Scale       =       0.3333333333333333 [-]
	 SCS Opposite-Spin Scale   =       1.2000000000000000 [-]
	 SCS Same-Spin Energy      =      -0.1043890773298842 [Eh]
	 SCS Opposite-Spin Energy  =      -1.1573149841008161 [Eh]
	 SCS Correlation Energy    =      -1.2617040614307005 [Eh]
	 SCS Total Energy          =   -1496.3804241660591288 [Eh]
	-----------------------------------------------------------

  Dipole Moment: [D]
     X:     0.3949      Y:    -0.7228      Z:     1.1486     Total:     1.4134

*** Psi4 exiting successfully. Buy a developer a beer!
