                               Psi4 1.3.2 release

  ==> Input File <==

--------------------------------------------------------------------------
#psi4
#
memory 32 gb

molecule  {
0 1
 Cl       -1.5564010    -1.5365640    -0.1122650
 Cl        2.4627330     0.0122270     0.0169400
 Cl       -1.0685510     1.8023780    -0.3470660
  C       -0.2885375    -0.7480796     0.4324973
  C        0.9355250    -0.6897000    -0.5828100
  C       -0.5154060     0.7427890     0.9710020
  H        0.2242670    -1.1996790     1.3778280
  H        0.6181320    -0.1210460    -1.4565390
  H        1.1355610    -1.7215610    -0.8700150
  H       -1.3207740     0.6750150     1.7029520
  H        0.3537730     1.2151890     1.4309750
units angstrom
no_reorient  #important for SAPT in psi4, default
symmetry c1  #important for SAPT in psi4, default
}

set PROPERTIES_ORIGIN ["COM"]
properties('MP2/aug-cc-pvtz', properties = ['dipole'])
--------------------------------------------------------------------------

    Molecular point group: c1
  Charge       = 0
  Multiplicity = 1
  Basis Set: AUG-CC-PVTZ
    Blend: AUG-CC-PVTZ
  Basis Set: (AUG-CC-PVTZ AUX)
    Blend: AUG-CC-PVTZ-JKFIT

    Orbital Energies [Eh]
    ---------------------

    Doubly Occupied:

       1A   -104.859673     2A   -104.843133     3A   -104.832573
       4A    -11.330044     5A    -11.312908     6A    -11.310943
       7A    -10.587887     8A    -10.567067     9A    -10.557192
      10A     -8.055304    11A     -8.052602    12A     -8.052543
      13A     -8.033909    14A     -8.032117    15A     -8.032053
      16A     -8.024043    17A     -8.022251    18A     -8.022188
      19A     -1.234621    20A     -1.143186    21A     -1.132901
      22A     -0.981241    23A     -0.921319    24A     -0.800261
      25A     -0.682656    26A     -0.666367    27A     -0.631288
      28A     -0.599620    29A     -0.569711    30A     -0.552420
      31A     -0.541792    32A     -0.479503    33A     -0.463072
      34A     -0.449938    35A     -0.442454    36A     -0.433570
      37A     -0.420909

  @DF-RHF Final Energy: -1495.08052730997838

   => Energetics <=

    Nuclear Repulsion Energy =            433.1525960537786659
    One-Electron Energy =               -2925.1157285968688484
    Two-Electron Energy =                 996.8826052331116898
    Total Energy =                      -1495.0805273099783790
  Basis Set: (AUG-CC-PVTZ AUX)
    Blend: AUG-CC-PVTZ-RI
    Molecular point group: c1

    Geometry (in Angstrom), charge = 0, multiplicity = 1:

       Center              X                  Y                   Z               Mass
    ------------   -----------------  -----------------  -----------------  -----------------
         CL          -1.535333131058    -1.538083678314    -0.088836188928    34.968852682000
         CL           2.483800868942     0.010707321686     0.040368811072    34.968852682000
         CL          -1.047483131058     1.800858321686    -0.323637188928    34.968852682000
         C           -0.267469631058    -0.749599278314     0.455926111072    12.000000000000
         C            0.956592868942    -0.691219678314    -0.559381188928    12.000000000000
         C           -0.494338131058     0.741269321686     0.994430811072    12.000000000000
         H            0.245334868942    -1.201198678314     1.401256811072     1.007825032230
         H            0.639199868942    -0.122565678314    -1.433110188928     1.007825032230
         H            1.156628868942    -1.723080678314    -0.846586188928     1.007825032230
         H           -1.299706131058     0.673495321686     1.726380811072     1.007825032230
         H            0.374840868942     1.213669321686     1.454403811072     1.007825032230

  Basis Set: AUG-CC-PVTZ
    Blend: AUG-CC-PVTZ
  Basis Set: (AUG-CC-PVTZ AUX)
    Blend: AUG-CC-PVTZ-JKFIT
	 Reference Energy          =   -1495.0805273099783790 [Eh]
	 Singles Energy            =      -0.0000000000000000 [Eh]
	 Same-Spin Energy          =      -0.3158064817506235 [Eh]
	 Opposite-Spin Energy      =      -0.9679069078113414 [Eh]
	 Correlation Energy        =      -1.2837133895619650 [Eh]
	 Total Energy              =   -1496.3642406995402325 [Eh]

	 ================> DF-SCS-MP2 Energies <==================
	-----------------------------------------------------------
	 SCS Same-Spin Scale       =       0.3333333333333333 [-]
	 SCS Opposite-Spin Scale   =       1.2000000000000000 [-]
	 SCS Same-Spin Energy      =      -0.1052688272502078 [Eh]
	 SCS Opposite-Spin Energy  =      -1.1614882893736096 [Eh]
	 SCS Correlation Energy    =      -1.2667571166238174 [Eh]
	 SCS Total Energy          =   -1496.3472844266023003 [Eh]
	-----------------------------------------------------------

  Dipole Moment: [D]
     X:    -0.0979      Y:    -1.1987      Z:     1.0625     Total:     1.6049

*** Psi4 exiting successfully. Buy a developer a beer!
