                               Psi4 1.3.2 release

  ==> Input File <==

--------------------------------------------------------------------------
#psi4
#
memory 32 gb

molecule  {
0 1
 Cl       -1.6388690    -1.4971424     0.0512075
 Cl        2.4627330     0.0122270     0.0169400
 Cl       -1.0685510     1.8023780    -0.3470660
  C       -0.1289900    -0.6488570     0.5010500
  C        0.9355250    -0.6897000    -0.5828100
  C       -0.5154060     0.7427890     0.9710020
  H        0.2242670    -1.1996790     1.3778280
  H        0.6181320    -0.1210460    -1.4565390
  H        1.1355610    -1.7215610    -0.8700150
  H       -1.3207740     0.6750150     1.7029520
  H        0.3537730     1.2151890     1.4309750
units angstrom
no_reorient  #important for SAPT in psi4, default
symmetry c1  #important for SAPT in psi4, default
}

set PROPERTIES_ORIGIN ["COM"]
properties('MP2/aug-cc-pvtz', properties = ['dipole'])
--------------------------------------------------------------------------

    Molecular point group: c1
  Charge       = 0
  Multiplicity = 1
  Basis Set: AUG-CC-PVTZ
    Blend: AUG-CC-PVTZ
  Basis Set: (AUG-CC-PVTZ AUX)
    Blend: AUG-CC-PVTZ-JKFIT

    Orbital Energies [Eh]
    ---------------------

    Doubly Occupied:

       1A   -104.846426     2A   -104.843275     3A   -104.837543
       4A    -11.331522     5A    -11.317214     6A    -11.312724
       7A    -10.570725     8A    -10.567800     9A    -10.561983
      10A     -8.037569    11A     -8.035741    12A     -8.035675
      13A     -8.034601    14A     -8.032761    15A     -8.032699
      16A     -8.028842    17A     -8.027011    18A     -8.026939
      19A     -1.205759    20A     -1.142620    21A     -1.121175
      22A     -0.999591    23A     -0.936059    24A     -0.808972
      25A     -0.695808    26A     -0.670667    27A     -0.618631
      28A     -0.594281    29A     -0.580740    30A     -0.548360
      31A     -0.524008    32A     -0.471509    33A     -0.459743
      34A     -0.456289    35A     -0.452685    36A     -0.443111
      37A     -0.437836

  @DF-RHF Final Energy: -1495.11722421444574

   => Energetics <=

    Nuclear Repulsion Energy =            431.5257750439226925
    One-Electron Energy =               -2921.9882167437581302
    Two-Electron Energy =                 995.3452174853895258
    Total Energy =                      -1495.1172242144457414
  Basis Set: (AUG-CC-PVTZ AUX)
    Blend: AUG-CC-PVTZ-RI
    Molecular point group: c1

    Geometry (in Angstrom), charge = 0, multiplicity = 1:

       Center              X                  Y                   Z               Mass
    ------------   -----------------  -----------------  -----------------  -----------------
         CL          -1.611160021012    -1.516265883143     0.029831435543    34.968852682000
         CL           2.490441978988    -0.006896483143    -0.004436064457    34.968852682000
         CL          -1.040842021012     1.783254516857    -0.368442064457    34.968852682000
         C           -0.101281021012    -0.667980483143     0.479673935543    12.000000000000
         C            0.963233978988    -0.708823483143    -0.604186064457    12.000000000000
         C           -0.487697021012     0.723665516857     0.949625935543    12.000000000000
         H            0.251975978988    -1.218802483143     1.356451935543     1.007825032230
         H            0.645840978988    -0.140169483143    -1.477915064457     1.007825032230
         H            1.163269978988    -1.740684483143    -0.891391064457     1.007825032230
         H           -1.293065021012     0.655891516857     1.681575935543     1.007825032230
         H            0.381481978988     1.196065516857     1.409598935543     1.007825032230

  Basis Set: AUG-CC-PVTZ
    Blend: AUG-CC-PVTZ
  Basis Set: (AUG-CC-PVTZ AUX)
    Blend: AUG-CC-PVTZ-JKFIT
	 Reference Energy          =   -1495.1172242144457414 [Eh]
	 Singles Energy            =      -0.0000000000000000 [Eh]
	 Same-Spin Energy          =      -0.3133192205048174 [Eh]
	 Opposite-Spin Energy      =      -0.9647055645647646 [Eh]
	 Correlation Energy        =      -1.2780247850695821 [Eh]
	 Total Energy              =   -1496.3952489995153883 [Eh]

	 ================> DF-SCS-MP2 Energies <==================
	-----------------------------------------------------------
	 SCS Same-Spin Scale       =       0.3333333333333333 [-]
	 SCS Opposite-Spin Scale   =       1.2000000000000000 [-]
	 SCS Same-Spin Energy      =      -0.1044397401682725 [Eh]
	 SCS Opposite-Spin Energy  =      -1.1576466774777174 [Eh]
	 SCS Correlation Energy    =      -1.2620864176459898 [Eh]
	 SCS Total Energy          =   -1496.3793106320918014 [Eh]
	-----------------------------------------------------------

  Dipole Moment: [D]
     X:     0.5126      Y:    -0.8086      Z:     1.0783     Total:     1.4420

*** Psi4 exiting successfully. Buy a developer a beer!
