                               Psi4 1.3.2 release

  ==> Input File <==

--------------------------------------------------------------------------
#psi4
#
memory 32 gb

molecule  {
0 1
 Cl       -1.5564010    -1.5365640    -0.1122650
 Cl        2.4491510     0.0175783     0.0444537
 Cl       -1.0685510     1.8023780    -0.3470660
  C       -0.1289900    -0.6488570     0.5010500
  C        0.9355250    -0.6897000    -0.5828100
  C       -0.5154060     0.7427890     0.9710020
  H        0.2242670    -1.1996790     1.3778280
  H        0.6181320    -0.1210460    -1.4565390
  H        1.1355610    -1.7215610    -0.8700150
  H       -1.3207740     0.6750150     1.7029520
  H        0.3537730     1.2151890     1.4309750
units angstrom
no_reorient  #important for SAPT in psi4, default
symmetry c1  #important for SAPT in psi4, default
}

set PROPERTIES_ORIGIN ["COM"]
properties('MP2/aug-cc-pvtz', properties = ['dipole'])
--------------------------------------------------------------------------

    Molecular point group: c1
  Charge       = 0
  Multiplicity = 1
  Basis Set: AUG-CC-PVTZ
    Blend: AUG-CC-PVTZ
  Basis Set: (AUG-CC-PVTZ AUX)
    Blend: AUG-CC-PVTZ-JKFIT

    Orbital Energies [Eh]
    ---------------------

    Doubly Occupied:

       1A   -104.843596     2A   -104.843539     3A   -104.838107
       4A    -11.331924     5A    -11.315144     6A    -11.314588
       7A    -10.568070     8A    -10.568060     9A    -10.562537
      10A     -8.034897    11A     -8.034871    12A     -8.033096
      13A     -8.033039    14A     -8.033031    15A     -8.032984
      16A     -8.029397    17A     -8.027559    18A     -8.027490
      19A     -1.206401    20A     -1.140928    21A     -1.121863
      22A     -0.999166    23A     -0.935973    24A     -0.809379
      25A     -0.696130    26A     -0.669852    27A     -0.619738
      28A     -0.594099    29A     -0.580453    30A     -0.548492
      31A     -0.524583    32A     -0.469835    33A     -0.459582
      34A     -0.455254    35A     -0.453365    36A     -0.443072
      37A     -0.438587

  @DF-RHF Final Energy: -1495.11906560956913

   => Energetics <=

    Nuclear Repulsion Energy =            432.6470813077714865
    One-Electron Energy =               -2924.2549280316525255
    Two-Electron Energy =                 996.4887811143121326
    Total Energy =                      -1495.1190656095691338
  Basis Set: (AUG-CC-PVTZ AUX)
    Blend: AUG-CC-PVTZ-RI
    Molecular point group: c1

    Geometry (in Angstrom), charge = 0, multiplicity = 1:

       Center              X                  Y                   Z               Mass
    ------------   -----------------  -----------------  -----------------  -----------------
         CL          -1.545197232628    -1.547524176937    -0.101065087261    34.968852682000
         CL           2.460354767372     0.006618123063     0.055653612739    34.968852682000
         CL          -1.057347232628     1.791417823063    -0.335866087261    34.968852682000
         C           -0.117786232628    -0.659817176937     0.512249912739    12.000000000000
         C            0.946728767372    -0.700660176937    -0.571610087261    12.000000000000
         C           -0.504202232628     0.731828823063     0.982201912739    12.000000000000
         H            0.235470767372    -1.210639176937     1.389027912739     1.007825032230
         H            0.629335767372    -0.132006176937    -1.445339087261     1.007825032230
         H            1.146764767372    -1.732521176937    -0.858815087261     1.007825032230
         H           -1.309570232628     0.664054823063     1.714151912739     1.007825032230
         H            0.364976767372     1.204228823063     1.442174912739     1.007825032230

  Basis Set: AUG-CC-PVTZ
    Blend: AUG-CC-PVTZ
  Basis Set: (AUG-CC-PVTZ AUX)
    Blend: AUG-CC-PVTZ-JKFIT
	 Reference Energy          =   -1495.1190656095691338 [Eh]
	 Singles Energy            =      -0.0000000000000000 [Eh]
	 Same-Spin Energy          =      -0.3135106522241163 [Eh]
	 Opposite-Spin Energy      =      -0.9647628130376457 [Eh]
	 Correlation Energy        =      -1.2782734652617620 [Eh]
	 Total Energy              =   -1496.3973390748308248 [Eh]

	 ================> DF-SCS-MP2 Energies <==================
	-----------------------------------------------------------
	 SCS Same-Spin Scale       =       0.3333333333333333 [-]
	 SCS Opposite-Spin Scale   =       1.2000000000000000 [-]
	 SCS Same-Spin Energy      =      -0.1045035507413721 [Eh]
	 SCS Opposite-Spin Energy  =      -1.1577153756451748 [Eh]
	 SCS Correlation Energy    =      -1.2622189263865469 [Eh]
	 SCS Total Energy          =   -1496.3812845359557286 [Eh]
	-----------------------------------------------------------

  Dipole Moment: [D]
     X:     0.3901      Y:    -0.7844      Z:     1.1724     Total:     1.4635

*** Psi4 exiting successfully. Buy a developer a beer!
