                               Psi4 1.4a3.dev225

  ==> Input File <==

--------------------------------------------------------------------------
#psi4
#
memory 32 gb

molecule  {
0 1
 Cl       -1.5559190    -1.5368180    -0.1120840
 Cl        2.4627220     0.0125820     0.0169060
 Cl       -1.0692530     1.8020150    -0.3469870
  C       -0.0889151    -0.6240801     0.5180456
  C        0.9353530    -0.6892460    -0.5830770
  C       -0.5150540     0.7428180     0.9709430
  H        0.2250200    -1.1997290     1.3774140
  H        0.6176610    -0.1200850    -1.4563010
  H        1.1354520    -1.7209640    -0.8707770
  H       -1.3198770     0.6751280     1.7035260
  H        0.3543960     1.2153530     1.4302720
units angstrom
no_reorient  #important for SAPT in psi4, default
symmetry c1  #important for SAPT in psi4, default
}

set PROPERTIES_ORIGIN ["COM"]
properties('MP2/aug-cc-pvtz', properties = ['dipole'])
--------------------------------------------------------------------------

    Molecular point group: c1
  Charge       = 0
  Multiplicity = 1
  Basis Set: AUG-CC-PVTZ
    Blend: AUG-CC-PVTZ
  Basis Set: (AUG-CC-PVTZ AUX)
    Blend: AUG-CC-PVTZ-JKFIT

    Orbital Energies [Eh]
    ---------------------

    Doubly Occupied:

       1A   -104.843969     2A   -104.839893     3A   -104.838333
       4A    -11.334584     5A    -11.316517     6A    -11.315923
       7A    -10.568539     8A    -10.564259     9A    -10.562460
      10A     -8.035375    11A     -8.033567    12A     -8.033499
      13A     -8.031121    14A     -8.029270    15A     -8.029197
      16A     -8.029163    17A     -8.027451    18A     -8.027397
      19A     -1.205908    20A     -1.142856    21A     -1.115004
      22A     -1.003084    23A     -0.939618    24A     -0.812370
      25A     -0.701347    26A     -0.670578    27A     -0.621752
      28A     -0.592770    29A     -0.587158    30A     -0.549288
      31A     -0.514956    32A     -0.466848    33A     -0.458727
      34A     -0.455974    35A     -0.454432    36A     -0.444002
      37A     -0.440274

  @DF-RHF Final Energy: -1495.11822970861340

   => Energetics <=

    Nuclear Repulsion Energy =            432.0186793965820584
    One-Electron Energy =               -2922.9988960615260112
    Two-Electron Energy =                 995.8619869563303837
    Total Energy =                      -1495.1182297086133985
  Basis Set: (AUG-CC-PVTZ AUX)
    Blend: AUG-CC-PVTZ-RI
    Molecular point group: c1

    Geometry (in Angstrom), charge = 0, multiplicity = 1:

       Center              X                  Y                   Z               Mass
    ------------   -----------------  -----------------  -----------------  -----------------
         CL          -1.551235700922    -1.548522475121    -0.095709150298    34.968852682000
         CL           2.467405299078     0.000877524879     0.033280849702    34.968852682000
         CL          -1.064569700922     1.790310524879    -0.330612150298    34.968852682000
         C           -0.084231800922    -0.635784575121     0.534420449702    12.000000000000
         C            0.940036299078    -0.700950475121    -0.566702150298    12.000000000000
         C           -0.510370700922     0.731113524879     0.987317849702    12.000000000000
         H            0.229703299078    -1.211433475121     1.393788849702     1.007825032230
         H            0.622344299078    -0.131789475121    -1.439926150298     1.007825032230
         H            1.140135299078    -1.732668475121    -0.854402150298     1.007825032230
         H           -1.315193700922     0.663423524879     1.719900849702     1.007825032230
         H            0.359079299078     1.203648524879     1.446646849702     1.007825032230

  Basis Set: AUG-CC-PVTZ
    Blend: AUG-CC-PVTZ
  Basis Set: (AUG-CC-PVTZ AUX)
    Blend: AUG-CC-PVTZ-JKFIT
	 Reference Energy          =   -1495.1182297086133985 [Eh]
	 Singles Energy            =      -0.0000000000000000 [Eh]
	 Same-Spin Energy          =      -0.3133057233040104 [Eh]
	 Opposite-Spin Energy      =      -0.9645372976030798 [Eh]
	 Correlation Energy        =      -1.2778430209070901 [Eh]
	 Total Energy              =   -1496.3960727295204833 [Eh]

	 ================> DF-SCS-MP2 Energies <==================
	-----------------------------------------------------------
	 SCS Same-Spin Scale       =       0.3333333333333333 [-]
	 SCS Opposite-Spin Scale   =       1.2000000000000000 [-]
	 SCS Same-Spin Energy      =      -0.1044352411013368 [Eh]
	 SCS Opposite-Spin Energy  =      -1.1574447571236957 [Eh]
	 SCS Correlation Energy    =      -1.2618799982250324 [Eh]
	 SCS Total Energy          =   -1496.3801097068385388 [Eh]
	-----------------------------------------------------------

  Dipole Moment: [D]
     X:     0.4969      Y:    -0.6651      Z:     1.2201     Total:     1.4758

*** Psi4 exiting successfully. Buy a developer a beer!
