                               Psi4 1.3.2 release

  ==> Input File <==

--------------------------------------------------------------------------
#psi4
#
memory 32 gb

molecule  {
0 1
 Cl       -1.5564010    -1.5365640    -0.1122650
 Cl        2.4627330     0.0122270     0.0169400
 Cl       -1.0685510     1.8023780    -0.3470660
  C        0.0305575    -0.5496344     0.5696027
  C        0.9355250    -0.6897000    -0.5828100
  C       -0.5154060     0.7427890     0.9710020
  H        0.2242670    -1.1996790     1.3778280
  H        0.6181320    -0.1210460    -1.4565390
  H        1.1355610    -1.7215610    -0.8700150
  H       -1.3207740     0.6750150     1.7029520
  H        0.3537730     1.2151890     1.4309750
units angstrom
no_reorient  #important for SAPT in psi4, default
symmetry c1  #important for SAPT in psi4, default
}

set PROPERTIES_ORIGIN ["COM"]
properties('MP2/aug-cc-pvtz', properties = ['dipole'])
--------------------------------------------------------------------------

    Molecular point group: c1
  Charge       = 0
  Multiplicity = 1
  Basis Set: AUG-CC-PVTZ
    Blend: AUG-CC-PVTZ
  Basis Set: (AUG-CC-PVTZ AUX)
    Blend: AUG-CC-PVTZ-JKFIT

    Orbital Energies [Eh]
    ---------------------

    Doubly Occupied:

       1A   -104.847542     2A   -104.845409     3A   -104.816538
       4A    -11.346723     5A    -11.323322     6A    -11.321031
       7A    -10.572551     8A    -10.569557     9A    -10.540364
      10A     -8.039368    11A     -8.037543    12A     -8.037455
      13A     -8.036424    14A     -8.034530    15A     -8.034450
      16A     -8.006853    17A     -8.005423    18A     -8.005374
      19A     -1.212846    20A     -1.150458    21A     -1.094911
      22A     -1.009288    23A     -0.951254    24A     -0.822178
      25A     -0.718539    26A     -0.673658    27A     -0.634955
      28A     -0.605892    29A     -0.590991    30A     -0.554902
      31A     -0.489454    32A     -0.462061    33A     -0.460027
      34A     -0.458057    35A     -0.447991    36A     -0.438038
      37A     -0.435436

  @DF-RHF Final Energy: -1495.09848882616689

   => Energetics <=

    Nuclear Repulsion Energy =            431.5691559714329060
    One-Electron Energy =               -2922.0725026873783463
    Two-Electron Energy =                 995.4048578897786683
    Total Energy =                      -1495.0984888261668857
  Basis Set: (AUG-CC-PVTZ AUX)
    Blend: AUG-CC-PVTZ-RI
    Molecular point group: c1

    Geometry (in Angstrom), charge = 0, multiplicity = 1:

       Center              X                  Y                   Z               Mass
    ------------   -----------------  -----------------  -----------------  -----------------
         CL          -1.561569878291    -1.554400313021    -0.100109319889    34.968852682000
         CL           2.457564121709    -0.005609313021     0.029095680111    34.968852682000
         CL          -1.073719878291     1.784541686979    -0.334910319889    34.968852682000
         C            0.025388621709    -0.567470713021     0.581758380111    12.000000000000
         C            0.930356121709    -0.707536313021    -0.570654319889    12.000000000000
         C           -0.520574878291     0.724952686979     0.983157680111    12.000000000000
         H            0.219098121709    -1.217515313021     1.389983680111     1.007825032230
         H            0.612963121709    -0.138882313021    -1.444383319889     1.007825032230
         H            1.130392121709    -1.739397313021    -0.857859319889     1.007825032230
         H           -1.325942878291     0.657178686979     1.715107680111     1.007825032230
         H            0.348604121709     1.197352686979     1.443130680111     1.007825032230

  Basis Set: AUG-CC-PVTZ
    Blend: AUG-CC-PVTZ
  Basis Set: (AUG-CC-PVTZ AUX)
    Blend: AUG-CC-PVTZ-JKFIT
	 Reference Energy          =   -1495.0984888261668857 [Eh]
	 Singles Energy            =      -0.0000000000000000 [Eh]
	 Same-Spin Energy          =      -0.3137551364192633 [Eh]
	 Opposite-Spin Energy      =      -0.9650608213422196 [Eh]
	 Correlation Energy        =      -1.2788159577614828 [Eh]
	 Total Energy              =   -1496.3773047839283663 [Eh]

	 ================> DF-SCS-MP2 Energies <==================
	-----------------------------------------------------------
	 SCS Same-Spin Scale       =       0.3333333333333333 [-]
	 SCS Opposite-Spin Scale   =       1.2000000000000000 [-]
	 SCS Same-Spin Energy      =      -0.1045850454730878 [Eh]
	 SCS Opposite-Spin Energy  =      -1.1580729856106635 [Eh]
	 SCS Correlation Energy    =      -1.2626580310837512 [Eh]
	 SCS Total Energy          =   -1496.3611468572505601 [Eh]
	-----------------------------------------------------------

  Dipole Moment: [D]
     X:     0.9645      Y:    -0.2591      Z:     1.3106     Total:     1.6477

*** Psi4 exiting successfully. Buy a developer a beer!
