                               Psi4 1.3.2 release

  ==> Input File <==

--------------------------------------------------------------------------
#psi4
#
memory 32 gb

molecule  {
0 1
 Cl       -1.5564010    -1.5365640    -0.1122650
 Cl        2.4627330     0.0122270     0.0169400
 Cl       -1.0685510     1.8023780    -0.3470660
  C       -0.1289900    -0.6488570     0.5010500
  C        0.8499475    -0.7290326    -0.6164171
  C       -0.5154060     0.7427890     0.9710020
  H        0.2242670    -1.1996790     1.3778280
  H        0.6181320    -0.1210460    -1.4565390
  H        1.1355610    -1.7215610    -0.8700150
  H       -1.3207740     0.6750150     1.7029520
  H        0.3537730     1.2151890     1.4309750
units angstrom
no_reorient  #important for SAPT in psi4, default
symmetry c1  #important for SAPT in psi4, default
}

set PROPERTIES_ORIGIN ["COM"]
properties('MP2/aug-cc-pvtz', properties = ['dipole'])
--------------------------------------------------------------------------

    Molecular point group: c1
  Charge       = 0
  Multiplicity = 1
  Basis Set: AUG-CC-PVTZ
    Blend: AUG-CC-PVTZ
  Basis Set: (AUG-CC-PVTZ AUX)
    Blend: AUG-CC-PVTZ-JKFIT

    Orbital Energies [Eh]
    ---------------------

    Doubly Occupied:

       1A   -104.845662     2A   -104.840271     3A   -104.832930
       4A    -11.335353     5A    -11.320222     6A    -11.317470
       7A    -10.570456     8A    -10.564681     9A    -10.556628
      10A     -8.037244    11A     -8.035397    12A     -8.035331
      13A     -8.031543    14A     -8.029701    15A     -8.029626
      16A     -8.023286    17A     -8.021707    18A     -8.021650
      19A     -1.209825    20A     -1.133398    21A     -1.113944
      22A     -1.001995    23A     -0.945550    24A     -0.816513
      25A     -0.707769    26A     -0.671632    27A     -0.631048
      28A     -0.593229    29A     -0.582089    30A     -0.548455
      31A     -0.511791    32A     -0.465023    33A     -0.460456
      34A     -0.456423    35A     -0.450712    36A     -0.444940
      37A     -0.441016

  @DF-RHF Final Energy: -1495.11506062140234

   => Energetics <=

    Nuclear Repulsion Energy =            431.7575185107280049
    One-Electron Energy =               -2922.4752228697275314
    Two-Electron Energy =                 995.6026437375970772
    Total Energy =                      -1495.1150606214023355
  Basis Set: (AUG-CC-PVTZ AUX)
    Blend: AUG-CC-PVTZ-RI
    Molecular point group: c1

    Geometry (in Angstrom), charge = 0, multiplicity = 1:

       Center              X                  Y                   Z               Mass
    ------------   -----------------  -----------------  -----------------  -----------------
         CL          -1.541415119785    -1.543007976068    -0.091709498990    34.968852682000
         CL           2.477718880215     0.005783023932     0.037495501010    34.968852682000
         CL          -1.053565119785     1.795934023932    -0.326510498990    34.968852682000
         C           -0.114004119785    -0.655300976068     0.521605501010    12.000000000000
         C            0.864933380215    -0.735476576068    -0.595861598990    12.000000000000
         C           -0.500420119785     0.736345023932     0.991557501010    12.000000000000
         H            0.239252880215    -1.206122976068     1.398383501010     1.007825032230
         H            0.633117880215    -0.127489976068    -1.435983498990     1.007825032230
         H            1.150546880215    -1.728004976068    -0.849459498990     1.007825032230
         H           -1.305788119785     0.668571023932     1.723507501010     1.007825032230
         H            0.368758880215     1.208745023932     1.451530501010     1.007825032230

  Basis Set: AUG-CC-PVTZ
    Blend: AUG-CC-PVTZ
  Basis Set: (AUG-CC-PVTZ AUX)
    Blend: AUG-CC-PVTZ-JKFIT
	 Reference Energy          =   -1495.1150606214023355 [Eh]
	 Singles Energy            =      -0.0000000000000000 [Eh]
	 Same-Spin Energy          =      -0.3130277935052157 [Eh]
	 Opposite-Spin Energy      =      -0.9642342434590223 [Eh]
	 Correlation Energy        =      -1.2772620369642380 [Eh]
	 Total Energy              =   -1496.3923226583665382 [Eh]

	 ================> DF-SCS-MP2 Energies <==================
	-----------------------------------------------------------
	 SCS Same-Spin Scale       =       0.3333333333333333 [-]
	 SCS Opposite-Spin Scale   =       1.2000000000000000 [-]
	 SCS Same-Spin Energy      =      -0.1043425978350719 [Eh]
	 SCS Opposite-Spin Energy  =      -1.1570810921508268 [Eh]
	 SCS Correlation Energy    =      -1.2614236899858986 [Eh]
	 SCS Total Energy          =   -1496.3764843113881398 [Eh]
	-----------------------------------------------------------

  Dipole Moment: [D]
     X:     0.0181      Y:    -0.8775      Z:     1.1375     Total:     1.4368

*** Psi4 exiting successfully. Buy a developer a beer!
