                               Psi4 1.3.2 release

  ==> Input File <==

--------------------------------------------------------------------------
#psi4
#
memory 32 gb

molecule  {
0 1
 Cl       -1.5564010    -1.5365640    -0.1122650
 Cl        2.4627330     0.0122270     0.0169400
 Cl       -1.0685510     1.8023780    -0.3470660
  C       -0.0492163    -0.5992457     0.5353263
  C        0.9355250    -0.6897000    -0.5828100
  C       -0.5154060     0.7427890     0.9710020
  H        0.2242670    -1.1996790     1.3778280
  H        0.6181320    -0.1210460    -1.4565390
  H        1.1355610    -1.7215610    -0.8700150
  H       -1.3207740     0.6750150     1.7029520
  H        0.3537730     1.2151890     1.4309750
units angstrom
no_reorient  #important for SAPT in psi4, default
symmetry c1  #important for SAPT in psi4, default
}

set PROPERTIES_ORIGIN ["COM"]
properties('MP2/aug-cc-pvtz', properties = ['dipole'])
--------------------------------------------------------------------------

    Molecular point group: c1
  Charge       = 0
  Multiplicity = 1
  Basis Set: AUG-CC-PVTZ
    Blend: AUG-CC-PVTZ
  Basis Set: (AUG-CC-PVTZ AUX)
    Blend: AUG-CC-PVTZ-JKFIT

    Orbital Energies [Eh]
    ---------------------

    Doubly Occupied:

       1A   -104.844807     2A   -104.841637     3A   -104.831865
       4A    -11.337851     5A    -11.318482     6A    -11.317303
       7A    -10.569522     8A    -10.565935     9A    -10.555762
      10A     -8.036353    11A     -8.034540    12A     -8.034467
      13A     -8.032799    14A     -8.030934    15A     -8.030860
      16A     -8.022381    17A     -8.020775    18A     -8.020722
      19A     -1.207137    20A     -1.145148    21A     -1.107842
      22A     -1.005925    23A     -0.943515    24A     -0.815525
      25A     -0.706867    26A     -0.671467    27A     -0.624888
      28A     -0.594493    29A     -0.591475    30A     -0.550802
      31A     -0.504718    32A     -0.464462    33A     -0.458317
      34A     -0.456280    35A     -0.454398    36A     -0.443973
      37A     -0.440185

  @DF-RHF Final Energy: -1495.11410736859580

   => Energetics <=

    Nuclear Repulsion Energy =            431.8488553404789627
    One-Electron Energy =               -2922.6570992593824485
    Two-Electron Energy =                 995.6941365503075758
    Total Energy =                      -1495.1141073685957963
  Basis Set: (AUG-CC-PVTZ AUX)
    Blend: AUG-CC-PVTZ-RI
    Molecular point group: c1

    Geometry (in Angstrom), charge = 0, multiplicity = 1:

       Center              X                  Y                   Z               Mass
    ------------   -----------------  -----------------  -----------------  -----------------
         CL          -1.555010687371    -1.550321154344    -0.097291033038    34.968852682000
         CL           2.464123312629    -0.001530154344     0.031913966962    34.968852682000
         CL          -1.067160687371     1.788620845656    -0.332092033038    34.968852682000
         C           -0.047825987371    -0.613002854344     0.550300266962    12.000000000000
         C            0.936915312629    -0.703457154344    -0.567836033038    12.000000000000
         C           -0.514015687371     0.729031845656     0.985975966962    12.000000000000
         H            0.225657312629    -1.213436154344     1.392801966962     1.007825032230
         H            0.619522312629    -0.134803154344    -1.441565033038     1.007825032230
         H            1.136951312629    -1.735318154344    -0.855041033038     1.007825032230
         H           -1.319383687371     0.661257845656     1.717925966962     1.007825032230
         H            0.355163312629     1.201431845656     1.445948966962     1.007825032230

  Basis Set: AUG-CC-PVTZ
    Blend: AUG-CC-PVTZ
  Basis Set: (AUG-CC-PVTZ AUX)
    Blend: AUG-CC-PVTZ-JKFIT
	 Reference Energy          =   -1495.1141073685957963 [Eh]
	 Singles Energy            =      -0.0000000000000000 [Eh]
	 Same-Spin Energy          =      -0.3133346032647010 [Eh]
	 Opposite-Spin Energy      =      -0.9645887186490882 [Eh]
	 Correlation Energy        =      -1.2779233219137893 [Eh]
	 Total Energy              =   -1496.3920306905095003 [Eh]

	 ================> DF-SCS-MP2 Energies <==================
	-----------------------------------------------------------
	 SCS Same-Spin Scale       =       0.3333333333333333 [-]
	 SCS Opposite-Spin Scale   =       1.2000000000000000 [-]
	 SCS Same-Spin Energy      =      -0.1044448677549003 [Eh]
	 SCS Opposite-Spin Energy  =      -1.1575064623789058 [Eh]
	 SCS Correlation Energy    =      -1.2619513301338061 [Eh]
	 SCS Total Energy          =   -1496.3760586987295937 [Eh]
	-----------------------------------------------------------

  Dipole Moment: [D]
     X:     0.6391      Y:    -0.5391      Z:     1.2501     Total:     1.5040

*** Psi4 exiting successfully. Buy a developer a beer!
