                               Psi4 1.3.2 release

  ==> Input File <==

--------------------------------------------------------------------------
#psi4
#
memory 32 gb

molecule  {
0 1
 Cl       -1.5564010    -1.5365640    -0.1122650
 Cl        2.4602936     0.0541109    -0.0291027
 Cl       -1.0685510     1.8023780    -0.3470660
  C       -0.1289900    -0.6488570     0.5010500
  C        0.9355250    -0.6897000    -0.5828100
  C       -0.5154060     0.7427890     0.9710020
  H        0.2242670    -1.1996790     1.3778280
  H        0.6181320    -0.1210460    -1.4565390
  H        1.1355610    -1.7215610    -0.8700150
  H       -1.3207740     0.6750150     1.7029520
  H        0.3537730     1.2151890     1.4309750
units angstrom
no_reorient  #important for SAPT in psi4, default
symmetry c1  #important for SAPT in psi4, default
}

set PROPERTIES_ORIGIN ["COM"]
properties('MP2/aug-cc-pvtz', properties = ['dipole'])
--------------------------------------------------------------------------

    Molecular point group: c1
  Charge       = 0
  Multiplicity = 1
  Basis Set: AUG-CC-PVTZ
    Blend: AUG-CC-PVTZ
  Basis Set: (AUG-CC-PVTZ AUX)
    Blend: AUG-CC-PVTZ-JKFIT

    Orbital Energies [Eh]
    ---------------------

    Doubly Occupied:

       1A   -104.844405     2A   -104.843198     3A   -104.838135
       4A    -11.332566     5A    -11.314900     6A    -11.314652
       7A    -10.568897     8A    -10.567611     9A    -10.562560
      10A     -8.035699    11A     -8.034452    12A     -8.033861
      13A     -8.033804    14A     -8.032647    15A     -8.032580
      16A     -8.029421    17A     -8.027581    18A     -8.027511
      19A     -1.205991    20A     -1.140645    21A     -1.122258
      22A     -0.999948    23A     -0.935571    24A     -0.809261
      25A     -0.696027    26A     -0.669751    27A     -0.620993
      28A     -0.592666    29A     -0.580274    30A     -0.548969
      31A     -0.524529    32A     -0.469699    33A     -0.460232
      34A     -0.455300    35A     -0.452080    36A     -0.443424
      37A     -0.438947

  @DF-RHF Final Energy: -1495.11908147963004

   => Energetics <=

    Nuclear Repulsion Energy =            432.1556654768312455
    One-Electron Energy =               -2923.2674055848806347
    Two-Electron Energy =                 995.9926586284192354
    Total Energy =                      -1495.1190814796300401
  Basis Set: (AUG-CC-PVTZ AUX)
    Blend: AUG-CC-PVTZ-RI
    Molecular point group: c1

    Geometry (in Angstrom), charge = 0, multiplicity = 1:

       Center              X                  Y                   Z               Mass
    ------------   -----------------  -----------------  -----------------  -----------------
         CL          -1.547867019972    -1.556277454728    -0.083440839261    34.968852682000
         CL           2.468827580028     0.034397445272    -0.000278539261    34.968852682000
         CL          -1.060017019972     1.782664545272    -0.318241839261    34.968852682000
         C           -0.120456019972    -0.668570454728     0.529874160739    12.000000000000
         C            0.944058980028    -0.709413454728    -0.553985839261    12.000000000000
         C           -0.506872019972     0.723075545272     0.999826160739    12.000000000000
         H            0.232800980028    -1.219392454728     1.406652160739     1.007825032230
         H            0.626665980028    -0.140759454728    -1.427714839261     1.007825032230
         H            1.144094980028    -1.741274454728    -0.841190839261     1.007825032230
         H           -1.312240019972     0.655301545272     1.731776160739     1.007825032230
         H            0.362306980028     1.195475545272     1.459799160739     1.007825032230

  Basis Set: AUG-CC-PVTZ
    Blend: AUG-CC-PVTZ
  Basis Set: (AUG-CC-PVTZ AUX)
    Blend: AUG-CC-PVTZ-JKFIT
	 Reference Energy          =   -1495.1190814796300401 [Eh]
	 Singles Energy            =      -0.0000000000000000 [Eh]
	 Same-Spin Energy          =      -0.3133936953437336 [Eh]
	 Opposite-Spin Energy      =      -0.9646577640198426 [Eh]
	 Correlation Energy        =      -1.2780514593635761 [Eh]
	 Total Energy              =   -1496.3971329389935363 [Eh]

	 ================> DF-SCS-MP2 Energies <==================
	-----------------------------------------------------------
	 SCS Same-Spin Scale       =       0.3333333333333333 [-]
	 SCS Opposite-Spin Scale   =       1.2000000000000000 [-]
	 SCS Same-Spin Energy      =      -0.1044645651145779 [Eh]
	 SCS Opposite-Spin Energy  =      -1.1575893168238112 [Eh]
	 SCS Correlation Energy    =      -1.2620538819383891 [Eh]
	 SCS Total Energy          =   -1496.3811353615683402 [Eh]
	-----------------------------------------------------------

  Dipole Moment: [D]
     X:     0.3557      Y:    -0.8123      Z:     1.2223     Total:     1.5101

*** Psi4 exiting successfully. Buy a developer a beer!
