                               Psi4 1.3.2 release

  ==> Input File <==

--------------------------------------------------------------------------
#psi4
#
memory 32 gb

molecule  {
0 1
 Cl       -1.5564010    -1.5365640    -0.1122650
 Cl        2.4633117    -0.0305121     0.0622520
 Cl       -1.0685510     1.8023780    -0.3470660
  C       -0.1289900    -0.6488570     0.5010500
  C        0.9355250    -0.6897000    -0.5828100
  C       -0.5154060     0.7427890     0.9710020
  H        0.2242670    -1.1996790     1.3778280
  H        0.6181320    -0.1210460    -1.4565390
  H        1.1355610    -1.7215610    -0.8700150
  H       -1.3207740     0.6750150     1.7029520
  H        0.3537730     1.2151890     1.4309750
units angstrom
no_reorient  #important for SAPT in psi4, default
symmetry c1  #important for SAPT in psi4, default
}

set PROPERTIES_ORIGIN ["COM"]
properties('MP2/aug-cc-pvtz', properties = ['dipole'])
--------------------------------------------------------------------------

    Molecular point group: c1
  Charge       = 0
  Multiplicity = 1
  Basis Set: AUG-CC-PVTZ
    Blend: AUG-CC-PVTZ
  Basis Set: (AUG-CC-PVTZ AUX)
    Blend: AUG-CC-PVTZ-JKFIT

    Orbital Energies [Eh]
    ---------------------

    Doubly Occupied:

       1A   -104.843691     2A   -104.843465     3A   -104.838332
       4A    -11.331896     5A    -11.315136     6A    -11.314839
       7A    -10.568148     8A    -10.568001     9A    -10.562764
      10A     -8.034986    11A     -8.034801    12A     -8.033182
      13A     -8.033119    14A     -8.032970    15A     -8.032915
      16A     -8.029624    17A     -8.027786    18A     -8.027717
      19A     -1.206391    20A     -1.141257    21A     -1.121806
      22A     -0.999260    23A     -0.935925    24A     -0.809545
      25A     -0.696276    26A     -0.669848    27A     -0.619236
      28A     -0.594638    29A     -0.580679    30A     -0.548322
      31A     -0.524914    32A     -0.469777    33A     -0.459631
      34A     -0.455465    35A     -0.453412    36A     -0.442984
      37A     -0.438741

  @DF-RHF Final Energy: -1495.11899776457244

   => Energetics <=

    Nuclear Repulsion Energy =            432.2159317479819265
    One-Electron Energy =               -2923.3869037409681368
    Two-Electron Energy =                 996.0519742284138829
    Total Energy =                      -1495.1189977645724412
  Basis Set: (AUG-CC-PVTZ AUX)
    Blend: AUG-CC-PVTZ-RI
    Molecular point group: c1

    Geometry (in Angstrom), charge = 0, multiplicity = 1:

       Center              X                  Y                   Z               Mass
    ------------   -----------------  -----------------  -----------------  -----------------
         CL          -1.548590162253    -1.536001629123    -0.105329592500    34.968852682000
         CL           2.471122537747    -0.029949729123     0.069187407500    34.968852682000
         CL          -1.060740162253     1.802940370877    -0.340130592500    34.968852682000
         C           -0.121179162253    -0.648294629123     0.507985407500    12.000000000000
         C            0.943335837747    -0.689137629123    -0.575874592500    12.000000000000
         C           -0.507595162253     0.743351370877     0.977937407500    12.000000000000
         H            0.232077837747    -1.199116629123     1.384763407500     1.007825032230
         H            0.625942837747    -0.120483629123    -1.449603592500     1.007825032230
         H            1.143371837747    -1.720998629123    -0.863079592500     1.007825032230
         H           -1.312963162253     0.675577370877     1.709887407500     1.007825032230
         H            0.361583837747     1.215751370877     1.437910407500     1.007825032230

  Basis Set: AUG-CC-PVTZ
    Blend: AUG-CC-PVTZ
  Basis Set: (AUG-CC-PVTZ AUX)
    Blend: AUG-CC-PVTZ-JKFIT
	 Reference Energy          =   -1495.1189977645724412 [Eh]
	 Singles Energy            =      -0.0000000000000000 [Eh]
	 Same-Spin Energy          =      -0.3134583258169878 [Eh]
	 Opposite-Spin Energy      =      -0.9647058566931240 [Eh]
	 Correlation Energy        =      -1.2781641825101118 [Eh]
	 Total Energy              =   -1496.3971619470826226 [Eh]

	 ================> DF-SCS-MP2 Energies <==================
	-----------------------------------------------------------
	 SCS Same-Spin Scale       =       0.3333333333333333 [-]
	 SCS Opposite-Spin Scale   =       1.2000000000000000 [-]
	 SCS Same-Spin Energy      =      -0.1044861086056626 [Eh]
	 SCS Opposite-Spin Energy  =      -1.1576470280317488 [Eh]
	 SCS Correlation Energy    =      -1.2621331366374113 [Eh]
	 SCS Total Energy          =   -1496.3811309012098718 [Eh]
	-----------------------------------------------------------

  Dipole Moment: [D]
     X:     0.3790      Y:    -0.7538      Z:     1.1617     Total:     1.4358

*** Psi4 exiting successfully. Buy a developer a beer!
