                               Psi4 1.3.2 release

  ==> Input File <==

--------------------------------------------------------------------------
#psi4
#
memory 32 gb

molecule  {
0 1
 Cl       -1.5564010    -1.5365640    -0.1122650
 Cl        2.4632550    -0.0090389     0.0396908
 Cl       -1.0685510     1.8023780    -0.3470660
  C       -0.1289900    -0.6488570     0.5010500
  C        0.9355250    -0.6897000    -0.5828100
  C       -0.5154060     0.7427890     0.9710020
  H        0.2242670    -1.1996790     1.3778280
  H        0.6181320    -0.1210460    -1.4565390
  H        1.1355610    -1.7215610    -0.8700150
  H       -1.3207740     0.6750150     1.7029520
  H        0.3537730     1.2151890     1.4309750
units angstrom
no_reorient  #important for SAPT in psi4, default
symmetry c1  #important for SAPT in psi4, default
}

set PROPERTIES_ORIGIN ["COM"]
properties('MP2/aug-cc-pvtz', properties = ['dipole'])
--------------------------------------------------------------------------

    Molecular point group: c1
  Charge       = 0
  Multiplicity = 1
  Basis Set: AUG-CC-PVTZ
    Blend: AUG-CC-PVTZ
  Basis Set: (AUG-CC-PVTZ AUX)
    Blend: AUG-CC-PVTZ-JKFIT

    Orbital Energies [Eh]
    ---------------------

    Doubly Occupied:

       1A   -104.843711     2A   -104.843569     3A   -104.838283
       4A    -11.332068     5A    -11.315021     6A    -11.314851
       7A    -10.568235     8A    -10.568013     9A    -10.562713
      10A     -8.035036    11A     -8.034852    12A     -8.033203
      13A     -8.033148    14A     -8.033048    15A     -8.032984
      16A     -8.029574    17A     -8.027736    18A     -8.027666
      19A     -1.206280    20A     -1.141090    21A     -1.121923
      22A     -0.999440    23A     -0.935841    24A     -0.809468
      25A     -0.696205    26A     -0.669820    27A     -0.619672
      28A     -0.594142    29A     -0.580574    30A     -0.548501
      31A     -0.524814    32A     -0.469757    33A     -0.459782
      34A     -0.455416    35A     -0.453147    36A     -0.443109
      37A     -0.438806

  @DF-RHF Final Energy: -1495.11916289921078

   => Energetics <=

    Nuclear Repulsion Energy =            432.1902064572815334
    One-Electron Energy =               -2923.3357374303705001
    Two-Electron Energy =                 996.0263680738783023
    Total Energy =                      -1495.1191628992107781
  Basis Set: (AUG-CC-PVTZ AUX)
    Blend: AUG-CC-PVTZ-RI
    Molecular point group: c1

    Geometry (in Angstrom), charge = 0, multiplicity = 1:

       Center              X                  Y                   Z               Mass
    ------------   -----------------  -----------------  -----------------  -----------------
         CL          -1.548576576829    -1.541146647125    -0.099923887708    34.968852682000
         CL           2.471079423171    -0.013621547125     0.052031912292    34.968852682000
         CL          -1.060726576829     1.797795352875    -0.334724887708    34.968852682000
         C           -0.121165576829    -0.653439647125     0.513391112292    12.000000000000
         C            0.943349423171    -0.694282647125    -0.570468887708    12.000000000000
         C           -0.507581576829     0.738206352875     0.983343112292    12.000000000000
         H            0.232091423171    -1.204261647125     1.390169112292     1.007825032230
         H            0.625956423171    -0.125628647125    -1.444197887708     1.007825032230
         H            1.143385423171    -1.726143647125    -0.857673887708     1.007825032230
         H           -1.312949576829     0.670432352875     1.715293112292     1.007825032230
         H            0.361597423171     1.210606352875     1.443316112292     1.007825032230

  Basis Set: AUG-CC-PVTZ
    Blend: AUG-CC-PVTZ
  Basis Set: (AUG-CC-PVTZ AUX)
    Blend: AUG-CC-PVTZ-JKFIT
	 Reference Energy          =   -1495.1191628992107781 [Eh]
	 Singles Energy            =      -0.0000000000000000 [Eh]
	 Same-Spin Energy          =      -0.3134346794002149 [Eh]
	 Opposite-Spin Energy      =      -0.9646812570978123 [Eh]
	 Correlation Energy        =      -1.2781159364980272 [Eh]
	 Total Energy              =   -1496.3972788357089030 [Eh]

	 ================> DF-SCS-MP2 Energies <==================
	-----------------------------------------------------------
	 SCS Same-Spin Scale       =       0.3333333333333333 [-]
	 SCS Opposite-Spin Scale   =       1.2000000000000000 [-]
	 SCS Same-Spin Energy      =      -0.1044782264667383 [Eh]
	 SCS Opposite-Spin Energy  =      -1.1576175085173748 [Eh]
	 SCS Correlation Energy    =      -1.2620957349841131 [Eh]
	 SCS Total Energy          =   -1496.3812586341948645 [Eh]
	-----------------------------------------------------------

  Dipole Moment: [D]
     X:     0.3726      Y:    -0.7687      Z:     1.1767     Total:     1.4541

*** Psi4 exiting successfully. Buy a developer a beer!
