                               Psi4 1.3.2 release

  ==> Input File <==

--------------------------------------------------------------------------
#psi4
#
memory 32 gb

molecule  {
0 1
 Cl       -1.4582939    -1.5662597    -0.2690179
 Cl        2.4627330     0.0122270     0.0169400
 Cl       -1.0685510     1.8023780    -0.3470660
  C       -0.1289900    -0.6488570     0.5010500
  C        0.9355250    -0.6897000    -0.5828100
  C       -0.5154060     0.7427890     0.9710020
  H        0.2242670    -1.1996790     1.3778280
  H        0.6181320    -0.1210460    -1.4565390
  H        1.1355610    -1.7215610    -0.8700150
  H       -1.3207740     0.6750150     1.7029520
  H        0.3537730     1.2151890     1.4309750
units angstrom
no_reorient  #important for SAPT in psi4, default
symmetry c1  #important for SAPT in psi4, default
}

set PROPERTIES_ORIGIN ["COM"]
properties('MP2/aug-cc-pvtz', properties = ['dipole'])
--------------------------------------------------------------------------

    Molecular point group: c1
  Charge       = 0
  Multiplicity = 1
  Basis Set: AUG-CC-PVTZ
    Blend: AUG-CC-PVTZ
  Basis Set: (AUG-CC-PVTZ AUX)
    Blend: AUG-CC-PVTZ-JKFIT

    Orbital Energies [Eh]
    ---------------------

    Doubly Occupied:

       1A   -104.844520     2A   -104.839897     3A   -104.839003
       4A    -11.332912     5A    -11.316979     6A    -11.312737
       7A    -10.569129     8A    -10.564493     9A    -10.563419
      10A     -8.035919    11A     -8.034081    12A     -8.034024
      13A     -8.031326    14A     -8.030281    15A     -8.029549
      16A     -8.029486    17A     -8.028434    18A     -8.028367
      19A     -1.207517    20A     -1.139697    21A     -1.122591
      22A     -0.999532    23A     -0.934979    24A     -0.810236
      25A     -0.696814    26A     -0.669000    27A     -0.622422
      28A     -0.592782    29A     -0.579807    30A     -0.549194
      31A     -0.525446    32A     -0.466849    33A     -0.460938
      34A     -0.455293    35A     -0.451588    36A     -0.443208
      37A     -0.438097

  @DF-RHF Final Energy: -1495.11661807342830

   => Energetics <=

    Nuclear Repulsion Energy =            433.1814655033959411
    One-Electron Energy =               -2925.3350740283144660
    Two-Electron Energy =                 997.0369904514903965
    Total Energy =                      -1495.1166180734280715
  Basis Set: (AUG-CC-PVTZ AUX)
    Blend: AUG-CC-PVTZ-RI
    Molecular point group: c1

    Geometry (in Angstrom), charge = 0, multiplicity = 1:

       Center              X                  Y                   Z               Mass
    ------------   -----------------  -----------------  -----------------  -----------------
         CL          -1.473851045306    -1.568822551624    -0.213667372813    34.968852682000
         CL           2.447175854694     0.009664148376     0.072290527187    34.968852682000
         CL          -1.084108145306     1.799815148376    -0.291715472813    34.968852682000
         C           -0.144547145306    -0.651419851624     0.556400527187    12.000000000000
         C            0.919967854694    -0.692262851624    -0.527459472813    12.000000000000
         C           -0.530963145306     0.740226148376     1.026352527187    12.000000000000
         H            0.208709854694    -1.202241851624     1.433178527187     1.007825032230
         H            0.602574854694    -0.123608851624    -1.401188472813     1.007825032230
         H            1.120003854694    -1.724123851624    -0.814664472813     1.007825032230
         H           -1.336331145306     0.672452148376     1.758302527187     1.007825032230
         H            0.338215854694     1.212626148376     1.486325527187     1.007825032230

  Basis Set: AUG-CC-PVTZ
    Blend: AUG-CC-PVTZ
  Basis Set: (AUG-CC-PVTZ AUX)
    Blend: AUG-CC-PVTZ-JKFIT
	 Reference Energy          =   -1495.1166180734282989 [Eh]
	 Singles Energy            =      -0.0000000000000000 [Eh]
	 Same-Spin Energy          =      -0.3138108849940296 [Eh]
	 Opposite-Spin Energy      =      -0.9650658050639180 [Eh]
	 Correlation Energy        =      -1.2788766900579476 [Eh]
	 Total Energy              =   -1496.3954947634863402 [Eh]

	 ================> DF-SCS-MP2 Energies <==================
	-----------------------------------------------------------
	 SCS Same-Spin Scale       =       0.3333333333333333 [-]
	 SCS Opposite-Spin Scale   =       1.2000000000000000 [-]
	 SCS Same-Spin Energy      =      -0.1046036283313432 [Eh]
	 SCS Opposite-Spin Energy  =      -1.1580789660767017 [Eh]
	 SCS Correlation Energy    =      -1.2626825944080449 [Eh]
	 SCS Total Energy          =   -1496.3793006678363327 [Eh]
	-----------------------------------------------------------

  Dipole Moment: [D]
     X:     0.1983      Y:    -0.7706      Z:     1.2940     Total:     1.5191

*** Psi4 exiting successfully. Buy a developer a beer!
