                               Psi4 1.3.2 release

  ==> Input File <==

--------------------------------------------------------------------------
#psi4
#
memory 32 gb

molecule  {
0 1
 Cl       -1.5564010    -1.5365640    -0.1122650
 Cl        2.4559966     0.0950887    -0.0758200
 Cl       -1.0685510     1.8023780    -0.3470660
  C       -0.1289900    -0.6488570     0.5010500
  C        0.9355250    -0.6897000    -0.5828100
  C       -0.5154060     0.7427890     0.9710020
  H        0.2242670    -1.1996790     1.3778280
  H        0.6181320    -0.1210460    -1.4565390
  H        1.1355610    -1.7215610    -0.8700150
  H       -1.3207740     0.6750150     1.7029520
  H        0.3537730     1.2151890     1.4309750
units angstrom
no_reorient  #important for SAPT in psi4, default
symmetry c1  #important for SAPT in psi4, default
}

set PROPERTIES_ORIGIN ["COM"]
properties('MP2/aug-cc-pvtz', properties = ['dipole'])
--------------------------------------------------------------------------

    Molecular point group: c1
  Charge       = 0
  Multiplicity = 1
  Basis Set: AUG-CC-PVTZ
    Blend: AUG-CC-PVTZ
  Basis Set: (AUG-CC-PVTZ AUX)
    Blend: AUG-CC-PVTZ-JKFIT

    Orbital Energies [Eh]
    ---------------------

    Doubly Occupied:

       1A   -104.844829     2A   -104.842954     3A   -104.838034
       4A    -11.332887     5A    -11.314938     6A    -11.314386
       7A    -10.569301     8A    -10.567350     9A    -10.562455
      10A     -8.036104    11A     -8.034263    12A     -8.034205
      13A     -8.034192    14A     -8.032383    15A     -8.032314
      16A     -8.029316    17A     -8.027475    18A     -8.027405
      19A     -1.205833    20A     -1.140399    21A     -1.122467
      22A     -1.000262    23A     -0.935373    24A     -0.809139
      25A     -0.695935    26A     -0.669718    27A     -0.621881
      28A     -0.591711    29A     -0.580078    30A     -0.549223
      31A     -0.524342    32A     -0.469673    33A     -0.460525
      34A     -0.455223    35A     -0.451163    36A     -0.443582
      37A     -0.438997

  @DF-RHF Final Energy: -1495.11854790708662

   => Energetics <=

    Nuclear Repulsion Energy =            432.1679803387382321
    One-Electron Energy =               -2923.2924239596341067
    Two-Electron Energy =                 996.0058957138093092
    Total Energy =                      -1495.1185479070863948
  Basis Set: (AUG-CC-PVTZ AUX)
    Blend: AUG-CC-PVTZ-RI
    Molecular point group: c1

    Geometry (in Angstrom), charge = 0, multiplicity = 1:

       Center              X                  Y                   Z               Mass
    ------------   -----------------  -----------------  -----------------  -----------------
         CL          -1.546837450911    -1.566095810570    -0.072247288718    34.968852682000
         CL           2.465560149089     0.065556889430    -0.035802288718    34.968852682000
         CL          -1.058987450911     1.772846189430    -0.307048288718    34.968852682000
         C           -0.119426450911    -0.678388810570     0.541067711282    12.000000000000
         C            0.945088549089    -0.719231810570    -0.542792288718    12.000000000000
         C           -0.505842450911     0.713257189430     1.011019711282    12.000000000000
         H            0.233830549089    -1.229210810570     1.417845711282     1.007825032230
         H            0.627695549089    -0.150577810570    -1.416521288718     1.007825032230
         H            1.145124549089    -1.751092810570    -0.829997288718     1.007825032230
         H           -1.311210450911     0.645483189430     1.742969711282     1.007825032230
         H            0.363336549089     1.185657189430     1.470992711282     1.007825032230

  Basis Set: AUG-CC-PVTZ
    Blend: AUG-CC-PVTZ
  Basis Set: (AUG-CC-PVTZ AUX)
    Blend: AUG-CC-PVTZ-JKFIT
	 Reference Energy          =   -1495.1185479070866222 [Eh]
	 Singles Energy            =      -0.0000000000000000 [Eh]
	 Same-Spin Energy          =      -0.3133913538122000 [Eh]
	 Opposite-Spin Energy      =      -0.9646837689764554 [Eh]
	 Correlation Energy        =      -1.2780751227886553 [Eh]
	 Total Energy              =   -1496.3966230298751725 [Eh]

	 ================> DF-SCS-MP2 Energies <==================
	-----------------------------------------------------------
	 SCS Same-Spin Scale       =       0.3333333333333333 [-]
	 SCS Opposite-Spin Scale   =       1.2000000000000000 [-]
	 SCS Same-Spin Energy      =      -0.1044637846040666 [Eh]
	 SCS Opposite-Spin Energy  =      -1.1576205227717464 [Eh]
	 SCS Correlation Energy    =      -1.2620843073758130 [Eh]
	 SCS Total Energy          =   -1496.3806322144623664 [Eh]
	-----------------------------------------------------------

  Dipole Moment: [D]
     X:     0.3464      Y:    -0.8403      Z:     1.2533     Total:     1.5482

*** Psi4 exiting successfully. Buy a developer a beer!
