                               Psi4 1.3.2 release

  ==> Input File <==

--------------------------------------------------------------------------
#psi4
#
memory 32 gb

molecule  {
0 1
 Cl       -1.5564010    -1.5365640    -0.1122650
 Cl        2.4627330     0.0122270     0.0169400
 Cl       -1.0685510     1.8023780    -0.3470660
  C       -0.2087637    -0.6984683     0.4667737
  C        0.9355250    -0.6897000    -0.5828100
  C       -0.5154060     0.7427890     0.9710020
  H        0.2242670    -1.1996790     1.3778280
  H        0.6181320    -0.1210460    -1.4565390
  H        1.1355610    -1.7215610    -0.8700150
  H       -1.3207740     0.6750150     1.7029520
  H        0.3537730     1.2151890     1.4309750
units angstrom
no_reorient  #important for SAPT in psi4, default
symmetry c1  #important for SAPT in psi4, default
}

set PROPERTIES_ORIGIN ["COM"]
properties('MP2/aug-cc-pvtz', properties = ['dipole'])
--------------------------------------------------------------------------

    Molecular point group: c1
  Charge       = 0
  Multiplicity = 1
  Basis Set: AUG-CC-PVTZ
    Blend: AUG-CC-PVTZ
  Basis Set: (AUG-CC-PVTZ AUX)
    Blend: AUG-CC-PVTZ-JKFIT

    Orbital Energies [Eh]
    ---------------------

    Doubly Occupied:

       1A   -104.852993     2A   -104.843030     3A   -104.835229
       4A    -11.329804     5A    -11.313538     6A    -11.312490
       7A    -10.578871     8A    -10.567201     9A    -10.559766
      10A     -8.045928    11A     -8.043756    12A     -8.043698
      13A     -8.034044    14A     -8.032247    15A     -8.032185
      16A     -8.026622    17A     -8.024807    18A     -8.024742
      19A     -1.213841    20A     -1.139067    21A     -1.132826
      22A     -0.991215    23A     -0.928309    24A     -0.804203
      25A     -0.687579    26A     -0.668311    27A     -0.622118
      28A     -0.596054    29A     -0.569426    30A     -0.552390
      31A     -0.537014    32A     -0.475496    33A     -0.462251
      34A     -0.451911    35A     -0.448239    36A     -0.441002
      37A     -0.432066

  @DF-RHF Final Energy: -1495.10969567294592

   => Energetics <=

    Nuclear Repulsion Energy =            432.5869258691238315
    One-Electron Energy =               -2924.0847045107916529
    Two-Electron Energy =                 996.3880829687219602
    Total Energy =                      -1495.1096956729461454
  Basis Set: (AUG-CC-PVTZ AUX)
    Blend: AUG-CC-PVTZ-RI
    Molecular point group: c1

    Geometry (in Angstrom), charge = 0, multiplicity = 1:

       Center              X                  Y                   Z               Mass
    ------------   -----------------  -----------------  -----------------  -----------------
         CL          -1.541892321977    -1.542162836991    -0.091654475780    34.968852682000
         CL           2.477241678023     0.006628163009     0.037550524220    34.968852682000
         CL          -1.054042321977     1.796779163009    -0.326455475780    34.968852682000
         C           -0.194255021977    -0.704067136991     0.487384224220    12.000000000000
         C            0.950033678023    -0.695298836991    -0.562199475780    12.000000000000
         C           -0.500897321977     0.737190163009     0.991612524220    12.000000000000
         H            0.238775678023    -1.205277836991     1.398438524220     1.007825032230
         H            0.632640678023    -0.126644836991    -1.435928475780     1.007825032230
         H            1.150069678023    -1.727159836991    -0.849404475780     1.007825032230
         H           -1.306265321977     0.669416163009     1.723562524220     1.007825032230
         H            0.368281678023     1.209590163009     1.451585524220     1.007825032230

  Basis Set: AUG-CC-PVTZ
    Blend: AUG-CC-PVTZ
  Basis Set: (AUG-CC-PVTZ AUX)
    Blend: AUG-CC-PVTZ-JKFIT
	 Reference Energy          =   -1495.1096956729459180 [Eh]
	 Singles Energy            =      -0.0000000000000000 [Eh]
	 Same-Spin Energy          =      -0.3141827649516414 [Eh]
	 Opposite-Spin Energy      =      -0.9656596612466670 [Eh]
	 Correlation Energy        =      -1.2798424261983083 [Eh]
	 Total Energy              =   -1496.3895380991441471 [Eh]

	 ================> DF-SCS-MP2 Energies <==================
	-----------------------------------------------------------
	 SCS Same-Spin Scale       =       0.3333333333333333 [-]
	 SCS Opposite-Spin Scale   =       1.2000000000000000 [-]
	 SCS Same-Spin Energy      =      -0.1047275883172138 [Eh]
	 SCS Opposite-Spin Energy  =      -1.1587915934960005 [Eh]
	 SCS Correlation Energy    =      -1.2635191818132143 [Eh]
	 SCS Total Energy          =   -1496.3732148547592260 [Eh]
	-----------------------------------------------------------

  Dipole Moment: [D]
     X:     0.1288      Y:    -0.9991      Z:     1.1318     Total:     1.5152

*** Psi4 exiting successfully. Buy a developer a beer!
