                               Psi4 1.3.2 release

  ==> Input File <==

--------------------------------------------------------------------------
#psi4
#
memory 32 gb

molecule  {
0 1
 Cl       -1.5253867    -1.5475615    -0.1653491
 Cl        2.4627330     0.0122270     0.0169400
 Cl       -1.0685510     1.8023780    -0.3470660
  C       -0.1289900    -0.6488570     0.5010500
  C        0.9355250    -0.6897000    -0.5828100
  C       -0.5154060     0.7427890     0.9710020
  H        0.2242670    -1.1996790     1.3778280
  H        0.6181320    -0.1210460    -1.4565390
  H        1.1355610    -1.7215610    -0.8700150
  H       -1.3207740     0.6750150     1.7029520
  H        0.3537730     1.2151890     1.4309750
units angstrom
no_reorient  #important for SAPT in psi4, default
symmetry c1  #important for SAPT in psi4, default
}

set PROPERTIES_ORIGIN ["COM"]
properties('MP2/aug-cc-pvtz', properties = ['dipole'])
--------------------------------------------------------------------------

    Molecular point group: c1
  Charge       = 0
  Multiplicity = 1
  Basis Set: AUG-CC-PVTZ
    Blend: AUG-CC-PVTZ
  Basis Set: (AUG-CC-PVTZ AUX)
    Blend: AUG-CC-PVTZ-JKFIT

    Orbital Energies [Eh]
    ---------------------

    Doubly Occupied:

       1A   -104.844150     2A   -104.842333     3A   -104.838481
       4A    -11.332466     5A    -11.315573     6A    -11.314160
       7A    -10.568683     8A    -10.566817     9A    -10.562906
      10A     -8.035482    11A     -8.033654    12A     -8.033647
      13A     -8.033592    14A     -8.031859    15A     -8.031795
      16A     -8.029767    17A     -8.027926    18A     -8.027857
      19A     -1.206509    20A     -1.140454    21A     -1.122273
      22A     -0.999596    23A     -0.935553    24A     -0.809625
      25A     -0.696320    26A     -0.669521    27A     -0.620795
      28A     -0.593381    29A     -0.580292    30A     -0.548821
      31A     -0.524937    32A     -0.468897    33A     -0.460175
      34A     -0.455317    35A     -0.452511    36A     -0.443245
      37A     -0.438827

  @DF-RHF Final Energy: -1495.11889913572190

   => Energetics <=

    Nuclear Repulsion Energy =            432.4664949579589006
    One-Electron Energy =               -2923.8943953790135311
    Two-Electron Energy =                 996.3090012853328972
    Total Energy =                      -1495.1188991357219038
  Basis Set: (AUG-CC-PVTZ AUX)
    Blend: AUG-CC-PVTZ-RI
    Molecular point group: c1

    Geometry (in Angstrom), charge = 0, multiplicity = 1:

       Center              X                  Y                   Z               Mass
    ------------   -----------------  -----------------  -----------------  -----------------
         CL          -1.524868287690    -1.554604474549    -0.134837806940    34.968852682000
         CL           2.463251412310     0.005184025451     0.047451293060    34.968852682000
         CL          -1.068032587690     1.795335025451    -0.316554706940    34.968852682000
         C           -0.128471587690    -0.655899974549     0.531561293060    12.000000000000
         C            0.936043412310    -0.696742974549    -0.552298706940    12.000000000000
         C           -0.514887587690     0.735746025451     1.001513293060    12.000000000000
         H            0.224785412310    -1.206721974549     1.408339293060     1.007825032230
         H            0.618650412310    -0.128088974549    -1.426027706940     1.007825032230
         H            1.136079412310    -1.728603974549    -0.839503706940     1.007825032230
         H           -1.320255587690     0.667972025451     1.733463293060     1.007825032230
         H            0.354291412310     1.208146025451     1.461486293060     1.007825032230

  Basis Set: AUG-CC-PVTZ
    Blend: AUG-CC-PVTZ
  Basis Set: (AUG-CC-PVTZ AUX)
    Blend: AUG-CC-PVTZ-JKFIT
	 Reference Energy          =   -1495.1188991357219038 [Eh]
	 Singles Energy            =      -0.0000000000000000 [Eh]
	 Same-Spin Energy          =      -0.3135121916133397 [Eh]
	 Opposite-Spin Energy      =      -0.9647466016547066 [Eh]
	 Correlation Energy        =      -1.2782587932680463 [Eh]
	 Total Energy              =   -1496.3971579289900546 [Eh]

	 ================> DF-SCS-MP2 Energies <==================
	-----------------------------------------------------------
	 SCS Same-Spin Scale       =       0.3333333333333333 [-]
	 SCS Opposite-Spin Scale   =       1.2000000000000000 [-]
	 SCS Same-Spin Energy      =      -0.1045040638711132 [Eh]
	 SCS Opposite-Spin Energy  =      -1.1576959219856480 [Eh]
	 SCS Correlation Energy    =      -1.2621999858567612 [Eh]
	 SCS Total Energy          =   -1496.3810991215786999 [Eh]
	-----------------------------------------------------------

  Dipole Moment: [D]
     X:     0.3131      Y:    -0.7777      Z:     1.2273     Total:     1.4863

*** Psi4 exiting successfully. Buy a developer a beer!
