                               Psi4 1.3.2 release

  ==> Input File <==

--------------------------------------------------------------------------
#psi4
#
memory 32 gb

molecule  {
0 1
 Cl       -1.5656145    -1.4506554    -0.2024487
 Cl        2.4627330     0.0122270     0.0169400
 Cl       -1.0685510     1.8023780    -0.3470660
  C       -0.1289900    -0.6488570     0.5010500
  C        0.9355250    -0.6897000    -0.5828100
  C       -0.5154060     0.7427890     0.9710020
  H        0.2242670    -1.1996790     1.3778280
  H        0.6181320    -0.1210460    -1.4565390
  H        1.1355610    -1.7215610    -0.8700150
  H       -1.3207740     0.6750150     1.7029520
  H        0.3537730     1.2151890     1.4309750
units angstrom
no_reorient  #important for SAPT in psi4, default
symmetry c1  #important for SAPT in psi4, default
}

set PROPERTIES_ORIGIN ["COM"]
properties('MP2/aug-cc-pvtz', properties = ['dipole'])
--------------------------------------------------------------------------

    Molecular point group: c1
  Charge       = 0
  Multiplicity = 1
  Basis Set: AUG-CC-PVTZ
    Blend: AUG-CC-PVTZ
  Basis Set: (AUG-CC-PVTZ AUX)
    Blend: AUG-CC-PVTZ-JKFIT

    Orbital Energies [Eh]
    ---------------------

    Doubly Occupied:

       1A   -104.843564     2A   -104.842527     3A   -104.837528
       4A    -11.332638     5A    -11.314356     6A    -11.314155
       7A    -10.568162     8A    -10.567004     9A    -10.561974
      10A     -8.034954    11A     -8.033842    12A     -8.033117
      13A     -8.033066    14A     -8.032046    15A     -8.031982
      16A     -8.028831    17A     -8.026993    18A     -8.026922
      19A     -1.207275    20A     -1.140558    21A     -1.120551
      22A     -0.999283    23A     -0.935520    24A     -0.809340
      25A     -0.696692    26A     -0.669593    27A     -0.620392
      28A     -0.593157    29A     -0.580249    30A     -0.547259
      31A     -0.525539    32A     -0.468738    33A     -0.458957
      34A     -0.456214    35A     -0.452506    36A     -0.442104
      37A     -0.438290

  @DF-RHF Final Energy: -1495.11794979696128

   => Energetics <=

    Nuclear Repulsion Energy =            434.0159393132835248
    One-Electron Energy =               -2927.0160280766858705
    Two-Electron Energy =                 997.8821389664411754
    Total Energy =                      -1495.1179497969610566
  Basis Set: (AUG-CC-PVTZ AUX)
    Blend: AUG-CC-PVTZ-RI
    Molecular point group: c1

    Geometry (in Angstrom), charge = 0, multiplicity = 1:

       Center              X                  Y                   Z               Mass
    ------------   -----------------  -----------------  -----------------  -----------------
         CL          -1.555457433220    -1.480917253384    -0.163048274911    34.968852682000
         CL           2.472890066780    -0.018034853384     0.056340425089    34.968852682000
         CL          -1.058393933220     1.772116146616    -0.307665574911    34.968852682000
         C           -0.118832933220    -0.679118853384     0.540450425089    12.000000000000
         C            0.945682066780    -0.719961853384    -0.543409574911    12.000000000000
         C           -0.505248933220     0.712527146616     1.010402425089    12.000000000000
         H            0.234424066780    -1.229940853384     1.417228425089     1.007825032230
         H            0.628289066780    -0.151307853384    -1.417138574911     1.007825032230
         H            1.145718066780    -1.751822853384    -0.830614574911     1.007825032230
         H           -1.310616933220     0.644753146616     1.742352425089     1.007825032230
         H            0.363930066780     1.184927146616     1.470375425089     1.007825032230

  Basis Set: AUG-CC-PVTZ
    Blend: AUG-CC-PVTZ
  Basis Set: (AUG-CC-PVTZ AUX)
    Blend: AUG-CC-PVTZ-JKFIT
	 Reference Energy          =   -1495.1179497969612839 [Eh]
	 Singles Energy            =      -0.0000000000000000 [Eh]
	 Same-Spin Energy          =      -0.3137844248849252 [Eh]
	 Opposite-Spin Energy      =      -0.9650806072927265 [Eh]
	 Correlation Energy        =      -1.2788650321776518 [Eh]
	 Total Energy              =   -1496.3968148291389753 [Eh]

	 ================> DF-SCS-MP2 Energies <==================
	-----------------------------------------------------------
	 SCS Same-Spin Scale       =       0.3333333333333333 [-]
	 SCS Opposite-Spin Scale   =       1.2000000000000000 [-]
	 SCS Same-Spin Energy      =      -0.1045948082949751 [Eh]
	 SCS Opposite-Spin Energy  =      -1.1580967287512718 [Eh]
	 SCS Correlation Energy    =      -1.2626915370462468 [Eh]
	 SCS Total Energy          =   -1496.3806413340075778 [Eh]
	-----------------------------------------------------------

  Dipole Moment: [D]
     X:     0.3311      Y:    -0.8468      Z:     1.2308     Total:     1.5302

*** Psi4 exiting successfully. Buy a developer a beer!
