                               Psi4 1.3.2 release

  ==> Input File <==

--------------------------------------------------------------------------
#psi4
#
memory 32 gb

molecule  {
0 1
 Cl       -1.5564010    -1.5365640    -0.1122650
 Cl        2.4351079     0.0227141     0.0717763
 Cl       -1.0685510     1.8023780    -0.3470660
  C       -0.1289900    -0.6488570     0.5010500
  C        0.9355250    -0.6897000    -0.5828100
  C       -0.5154060     0.7427890     0.9710020
  H        0.2242670    -1.1996790     1.3778280
  H        0.6181320    -0.1210460    -1.4565390
  H        1.1355610    -1.7215610    -0.8700150
  H       -1.3207740     0.6750150     1.7029520
  H        0.3537730     1.2151890     1.4309750
units angstrom
no_reorient  #important for SAPT in psi4, default
symmetry c1  #important for SAPT in psi4, default
}

set PROPERTIES_ORIGIN ["COM"]
properties('MP2/aug-cc-pvtz', properties = ['dipole'])
--------------------------------------------------------------------------

    Molecular point group: c1
  Charge       = 0
  Multiplicity = 1
  Basis Set: AUG-CC-PVTZ
    Blend: AUG-CC-PVTZ
  Basis Set: (AUG-CC-PVTZ AUX)
    Blend: AUG-CC-PVTZ-JKFIT

    Orbital Energies [Eh]
    ---------------------

    Doubly Occupied:

       1A   -104.843741     2A   -104.843117     3A   -104.837978
       4A    -11.331616     5A    -11.315387     6A    -11.314302
       7A    -10.568239     8A    -10.567666     9A    -10.562409
      10A     -8.035074    11A     -8.034466    12A     -8.033274
      13A     -8.033210    14A     -8.032638    15A     -8.032583
      16A     -8.029269    17A     -8.027433    18A     -8.027363
      19A     -1.206651    20A     -1.140926    21A     -1.121685
      22A     -0.998701    23A     -0.936201    24A     -0.809366
      25A     -0.696128    26A     -0.669922    27A     -0.619361
      28A     -0.594588    29A     -0.580410    30A     -0.548314
      31A     -0.524439    32A     -0.469921    33A     -0.459221
      34A     -0.455161    35A     -0.453859    36A     -0.442910
      37A     -0.438284

  @DF-RHF Final Energy: -1495.11877204795110

   => Energetics <=

    Nuclear Repulsion Energy =            433.1348235099850967
    One-Electron Energy =               -2925.2355612687238136
    Two-Electron Energy =                 996.9819657107876765
    Total Energy =                      -1495.1187720479510972
  Basis Set: (AUG-CC-PVTZ AUX)
    Blend: AUG-CC-PVTZ-RI
    Molecular point group: c1

    Geometry (in Angstrom), charge = 0, multiplicity = 1:

       Center              X                  Y                   Z               Mass
    ------------   -----------------  -----------------  -----------------  -----------------
         CL          -1.541832480178    -1.548754724012    -0.107611632204    34.968852682000
         CL           2.449676419822     0.010523375988     0.076429667796    34.968852682000
         CL          -1.053982480178     1.790187275988    -0.342412632204    34.968852682000
         C           -0.114421480178    -0.661047724012     0.505703367796    12.000000000000
         C            0.950093519822    -0.701890724012    -0.578156632204    12.000000000000
         C           -0.500837480178     0.730598275988     0.975655367796    12.000000000000
         H            0.238835519822    -1.211869724012     1.382481367796     1.007825032230
         H            0.632700519822    -0.133236724012    -1.451885632204     1.007825032230
         H            1.150129519822    -1.733751724012    -0.865361632204     1.007825032230
         H           -1.306205480178     0.662824275988     1.707605367796     1.007825032230
         H            0.368341519822     1.202998275988     1.435628367796     1.007825032230

  Basis Set: AUG-CC-PVTZ
    Blend: AUG-CC-PVTZ
  Basis Set: (AUG-CC-PVTZ AUX)
    Blend: AUG-CC-PVTZ-JKFIT
	 Reference Energy          =   -1495.1187720479510972 [Eh]
	 Singles Energy            =      -0.0000000000000000 [Eh]
	 Same-Spin Energy          =      -0.3136140945739364 [Eh]
	 Opposite-Spin Energy      =      -0.9648734134752019 [Eh]
	 Correlation Energy        =      -1.2784875080491382 [Eh]
	 Total Energy              =   -1496.3972595560003356 [Eh]

	 ================> DF-SCS-MP2 Energies <==================
	-----------------------------------------------------------
	 SCS Same-Spin Scale       =       0.3333333333333333 [-]
	 SCS Opposite-Spin Scale   =       1.2000000000000000 [-]
	 SCS Same-Spin Energy      =      -0.1045380315246454 [Eh]
	 SCS Opposite-Spin Energy  =      -1.1578480961702422 [Eh]
	 SCS Correlation Energy    =      -1.2623861276948876 [Eh]
	 SCS Total Energy          =   -1496.3811581756460782 [Eh]
	-----------------------------------------------------------

  Dipole Moment: [D]
     X:     0.4141      Y:    -0.7850      Z:     1.1534     Total:     1.4554

*** Psi4 exiting successfully. Buy a developer a beer!
