                               Psi4 1.4a3.dev225

  ==> Input File <==

--------------------------------------------------------------------------
#psi4
#
memory 32 gb

molecule  {
0 1
 Cl       -1.5559190    -1.5368180    -0.1120840
 Cl        2.4627220     0.0125820     0.0169060
 Cl       -1.0692530     1.8020150    -0.3469870
  C       -0.1287990    -0.6488950     0.5009140
  C        0.9182374    -0.6971106    -0.5898004
  C       -0.5150540     0.7428180     0.9709430
  H        0.2250200    -1.1997290     1.3774140
  H        0.6176610    -0.1200850    -1.4563010
  H        1.1354520    -1.7209640    -0.8707770
  H       -1.3198770     0.6751280     1.7035260
  H        0.3543960     1.2153530     1.4302720
units angstrom
no_reorient  #important for SAPT in psi4, default
symmetry c1  #important for SAPT in psi4, default
}

set PROPERTIES_ORIGIN ["COM"]
properties('MP2/aug-cc-pvtz', properties = ['dipole'])
--------------------------------------------------------------------------

    Molecular point group: c1
  Charge       = 0
  Multiplicity = 1
  Basis Set: AUG-CC-PVTZ
    Blend: AUG-CC-PVTZ
  Basis Set: (AUG-CC-PVTZ AUX)
    Blend: AUG-CC-PVTZ-JKFIT

    Orbital Energies [Eh]
    ---------------------

    Doubly Occupied:

       1A   -104.844193     2A   -104.841563     3A   -104.838630
       4A    -11.332721     5A    -11.315665     6A    -11.315355
       7A    -10.568764     8A    -10.565795     9A    -10.563055
      10A     -8.035564    11A     -8.033726    12A     -8.033669
      13A     -8.032593    14A     -8.030842    15A     -8.030779
      16A     -8.029916    17A     -8.028076    18A     -8.028006
      19A     -1.206619    20A     -1.138080    21A     -1.121537
      22A     -1.000162    23A     -0.937826    24A     -0.810778
      25A     -0.698379    26A     -0.670104    27A     -0.621752
      28A     -0.592436    29A     -0.581619    30A     -0.548306
      31A     -0.522592    32A     -0.468829    33A     -0.459976
      34A     -0.455783    35A     -0.452837    36A     -0.443645
      37A     -0.439553

  @DF-RHF Final Energy: -1495.11938213687245

   => Energetics <=

    Nuclear Repulsion Energy =            432.0971564218779690
    One-Electron Energy =               -2923.1536284794283347
    Two-Electron Energy =                 995.9370899206777494
    Total Energy =                      -1495.1193821368724457
  Basis Set: (AUG-CC-PVTZ AUX)
    Blend: AUG-CC-PVTZ-RI
    Molecular point group: c1

    Geometry (in Angstrom), charge = 0, multiplicity = 1:

       Center              X                  Y                   Z               Mass
    ------------   -----------------  -----------------  -----------------  -----------------
         CL          -1.546549066929    -1.545835489172    -0.093747735656    34.968852682000
         CL           2.472091933071     0.003564510828     0.035242264344    34.968852682000
         CL          -1.059883066929     1.792997510828    -0.328650735656    34.968852682000
         C           -0.119429066929    -0.657912489172     0.519250264344    12.000000000000
         C            0.927607333071    -0.706128089172    -0.571464135656    12.000000000000
         C           -0.505684066929     0.733800510828     0.989279264344    12.000000000000
         H            0.234389933071    -1.208746489172     1.395750264344     1.007825032230
         H            0.627030933071    -0.129102489172    -1.437964735656     1.007825032230
         H            1.144821933071    -1.729981489172    -0.852440735656     1.007825032230
         H           -1.310507066929     0.666110510828     1.721862264344     1.007825032230
         H            0.363765933071     1.206335510828     1.448608264344     1.007825032230

  Basis Set: AUG-CC-PVTZ
    Blend: AUG-CC-PVTZ
  Basis Set: (AUG-CC-PVTZ AUX)
    Blend: AUG-CC-PVTZ-JKFIT
	 Reference Energy          =   -1495.1193821368724457 [Eh]
	 Singles Energy            =      -0.0000000000000000 [Eh]
	 Same-Spin Energy          =      -0.3132980549091563 [Eh]
	 Opposite-Spin Energy      =      -0.9645236218468694 [Eh]
	 Correlation Energy        =      -1.2778216767560258 [Eh]
	 Total Energy              =   -1496.3972038136284937 [Eh]

	 ================> DF-SCS-MP2 Energies <==================
	-----------------------------------------------------------
	 SCS Same-Spin Scale       =       0.3333333333333333 [-]
	 SCS Opposite-Spin Scale   =       1.2000000000000000 [-]
	 SCS Same-Spin Energy      =      -0.1044326849697188 [Eh]
	 SCS Opposite-Spin Energy  =      -1.1574283462162431 [Eh]
	 SCS Correlation Energy    =      -1.2618610311859619 [Eh]
	 SCS Total Energy          =   -1496.3812431680585178 [Eh]
	-----------------------------------------------------------

  Dipole Moment: [D]
     X:     0.3012      Y:    -0.8008      Z:     1.1797     Total:     1.4573

*** Psi4 exiting successfully. Buy a developer a beer!
