                               Psi4 1.3.2 release

  ==> Input File <==

--------------------------------------------------------------------------
#psi4
#
memory 32 gb

molecule  {
0 1
 Cl       -1.4926710    -1.5574641    -0.2176213
 Cl        2.4627330     0.0122270     0.0169400
 Cl       -1.0685510     1.8023780    -0.3470660
  C       -0.1289900    -0.6488570     0.5010500
  C        0.9355250    -0.6897000    -0.5828100
  C       -0.5154060     0.7427890     0.9710020
  H        0.2242670    -1.1996790     1.3778280
  H        0.6181320    -0.1210460    -1.4565390
  H        1.1355610    -1.7215610    -0.8700150
  H       -1.3207740     0.6750150     1.7029520
  H        0.3537730     1.2151890     1.4309750
units angstrom
no_reorient  #important for SAPT in psi4, default
symmetry c1  #important for SAPT in psi4, default
}

set PROPERTIES_ORIGIN ["COM"]
properties('MP2/aug-cc-pvtz', properties = ['dipole'])
--------------------------------------------------------------------------

    Molecular point group: c1
  Charge       = 0
  Multiplicity = 1
  Basis Set: AUG-CC-PVTZ
    Blend: AUG-CC-PVTZ
  Basis Set: (AUG-CC-PVTZ AUX)
    Blend: AUG-CC-PVTZ-JKFIT

    Orbital Energies [Eh]
    ---------------------

    Doubly Occupied:

       1A   -104.844340     2A   -104.841153     3A   -104.838738
       4A    -11.332691     5A    -11.316276     6A    -11.313438
       7A    -10.568904     8A    -10.565690     9A    -10.563158
      10A     -8.035699    11A     -8.033863    12A     -8.033808
      13A     -8.032526    14A     -8.030740    15A     -8.030676
      16A     -8.030019    17A     -8.028175    18A     -8.028108
      19A     -1.206952    20A     -1.140037    21A     -1.122464
      22A     -0.999568    23A     -0.935296    24A     -0.809903
      25A     -0.696542    26A     -0.669256    27A     -0.621568
      28A     -0.593091    29A     -0.580069    30A     -0.548997
      31A     -0.525174    32A     -0.467927    33A     -0.460518
      34A     -0.455310    35A     -0.452070    36A     -0.443250
      37A     -0.438574

  @DF-RHF Final Energy: -1495.11803684143320

   => Energetics <=

    Nuclear Repulsion Energy =            432.8027583155721345
    One-Electron Energy =               -2924.5724540771889224
    Two-Electron Energy =                 996.6516589201835359
    Total Energy =                      -1495.1180368414331951
  Basis Set: (AUG-CC-PVTZ AUX)
    Blend: AUG-CC-PVTZ-RI
    Molecular point group: c1

    Geometry (in Angstrom), charge = 0, multiplicity = 1:

       Center              X                  Y                   Z               Mass
    ------------   -----------------  -----------------  -----------------  -----------------
         CL          -1.499991329259    -1.562134393474    -0.174585492195    34.968852682000
         CL           2.455412670741     0.007556706526     0.059975807805    34.968852682000
         CL          -1.075871329259     1.797707706526    -0.304030192195    34.968852682000
         C           -0.136310329259    -0.653527293474     0.544085807805    12.000000000000
         C            0.928204670741    -0.694370293474    -0.539774192195    12.000000000000
         C           -0.522726329259     0.738118706526     1.014037807805    12.000000000000
         H            0.216946670741    -1.204349293474     1.420863807805     1.007825032230
         H            0.610811670741    -0.125716293474    -1.413503192195     1.007825032230
         H            1.128240670741    -1.726231293474    -0.826979192195     1.007825032230
         H           -1.328094329259     0.670344706526     1.745987807805     1.007825032230
         H            0.346452670741     1.210518706526     1.474010807805     1.007825032230

  Basis Set: AUG-CC-PVTZ
    Blend: AUG-CC-PVTZ
  Basis Set: (AUG-CC-PVTZ AUX)
    Blend: AUG-CC-PVTZ-JKFIT
	 Reference Energy          =   -1495.1180368414331951 [Eh]
	 Singles Energy            =      -0.0000000000000000 [Eh]
	 Same-Spin Energy          =      -0.3136430700648409 [Eh]
	 Opposite-Spin Energy      =      -0.9648791662816245 [Eh]
	 Correlation Energy        =      -1.2785222363464654 [Eh]
	 Total Energy              =   -1496.3965590777795569 [Eh]

	 ================> DF-SCS-MP2 Energies <==================
	-----------------------------------------------------------
	 SCS Same-Spin Scale       =       0.3333333333333333 [-]
	 SCS Opposite-Spin Scale   =       1.2000000000000000 [-]
	 SCS Same-Spin Energy      =      -0.1045476900216136 [Eh]
	 SCS Opposite-Spin Energy  =      -1.1578549995379495 [Eh]
	 SCS Correlation Energy    =      -1.2624026895595630 [Eh]
	 SCS Total Energy          =   -1496.3804395309928168 [Eh]
	-----------------------------------------------------------

  Dipole Moment: [D]
     X:     0.2571      Y:    -0.7733      Z:     1.2615     Total:     1.5018

*** Psi4 exiting successfully. Buy a developer a beer!
