                               Psi4 1.3.2 release

  ==> Input File <==

--------------------------------------------------------------------------
#psi4
#
memory 32 gb

molecule  {
0 1
 Cl       -1.5564010    -1.5365640    -0.1122650
 Cl        2.4627330     0.0122270     0.0169400
 Cl       -1.0685510     1.8023780    -0.3470660
  C       -0.1289900    -0.6488570     0.5010500
  C        1.0211025    -0.6503674    -0.5492029
  C       -0.5154060     0.7427890     0.9710020
  H        0.2242670    -1.1996790     1.3778280
  H        0.6181320    -0.1210460    -1.4565390
  H        1.1355610    -1.7215610    -0.8700150
  H       -1.3207740     0.6750150     1.7029520
  H        0.3537730     1.2151890     1.4309750
units angstrom
no_reorient  #important for SAPT in psi4, default
symmetry c1  #important for SAPT in psi4, default
}

set PROPERTIES_ORIGIN ["COM"]
properties('MP2/aug-cc-pvtz', properties = ['dipole'])
--------------------------------------------------------------------------

    Molecular point group: c1
  Charge       = 0
  Multiplicity = 1
  Basis Set: AUG-CC-PVTZ
    Blend: AUG-CC-PVTZ
  Basis Set: (AUG-CC-PVTZ AUX)
    Blend: AUG-CC-PVTZ-JKFIT

    Orbital Energies [Eh]
    ---------------------

    Doubly Occupied:

       1A   -104.851175     2A   -104.843493     3A   -104.836424
       4A    -11.330246     5A    -11.313072     6A    -11.312616
       7A    -10.577079     8A    -10.567739     9A    -10.560871
      10A     -8.044178    11A     -8.042033    12A     -8.041956
      13A     -8.034548    14A     -8.032723    15A     -8.032671
      16A     -8.027729    17A     -8.025894    18A     -8.025829
      19A     -1.208658    20A     -1.158445    21A     -1.121389
      22A     -0.996651    23A     -0.924618    24A     -0.802977
      25A     -0.686514    26A     -0.668636    27A     -0.621691
      28A     -0.598036    29A     -0.574653    30A     -0.553173
      31A     -0.530449    32A     -0.473442    33A     -0.459594
      34A     -0.453047    35A     -0.449241    36A     -0.440932
      37A     -0.433279

  @DF-RHF Final Energy: -1495.10901399344925

   => Energetics <=

    Nuclear Repulsion Energy =            432.7114001284900837
    One-Electron Energy =               -2924.3294289080181443
    Two-Electron Energy =                 996.5090147860789784
    Total Energy =                      -1495.1090139934492527
  Basis Set: (AUG-CC-PVTZ AUX)
    Blend: AUG-CC-PVTZ-RI
    Molecular point group: c1

    Geometry (in Angstrom), charge = 0, multiplicity = 1:

       Center              X                  Y                   Z               Mass
    ------------   -----------------  -----------------  -----------------  -----------------
         CL          -1.555487889564    -1.549476015267    -0.097236009828    34.968852682000
         CL           2.463646110436    -0.000685015267     0.031968990172    34.968852682000
         CL          -1.067637889564     1.789465984733    -0.332037009828    34.968852682000
         C           -0.128076889564    -0.661769015267     0.516078990172    12.000000000000
         C            1.022015610436    -0.663279415267    -0.534173909828    12.000000000000
         C           -0.514492889564     0.729876984733     0.986030990172    12.000000000000
         H            0.225180110436    -1.212591015267     1.392856990172     1.007825032230
         H            0.619045110436    -0.133958015267    -1.441510009828     1.007825032230
         H            1.136474110436    -1.734473015267    -0.854986009828     1.007825032230
         H           -1.319860889564     0.662102984733     1.717980990172     1.007825032230
         H            0.354686110436     1.202276984733     1.446003990172     1.007825032230

  Basis Set: AUG-CC-PVTZ
    Blend: AUG-CC-PVTZ
  Basis Set: (AUG-CC-PVTZ AUX)
    Blend: AUG-CC-PVTZ-JKFIT
	 Reference Energy          =   -1495.1090139934492527 [Eh]
	 Singles Energy            =      -0.0000000000000000 [Eh]
	 Same-Spin Energy          =      -0.3144316373970464 [Eh]
	 Opposite-Spin Energy      =      -0.9659339494329928 [Eh]
	 Correlation Energy        =      -1.2803655868300392 [Eh]
	 Total Energy              =   -1496.3893795802791828 [Eh]

	 ================> DF-SCS-MP2 Energies <==================
	-----------------------------------------------------------
	 SCS Same-Spin Scale       =       0.3333333333333333 [-]
	 SCS Opposite-Spin Scale   =       1.2000000000000000 [-]
	 SCS Same-Spin Energy      =      -0.1048105457990155 [Eh]
	 SCS Opposite-Spin Energy  =      -1.1591207393195913 [Eh]
	 SCS Correlation Energy    =      -1.2639312851186066 [Eh]
	 SCS Total Energy          =   -1496.3729452785678404 [Eh]
	-----------------------------------------------------------

  Dipole Moment: [D]
     X:     0.6653      Y:    -0.7008      Z:     1.2528     Total:     1.5821

*** Psi4 exiting successfully. Buy a developer a beer!
