                               Psi4 1.3.2 release

  ==> Input File <==

--------------------------------------------------------------------------
#psi4
#
memory 32 gb

molecule  {
0 1
 Cl       -1.5564010    -1.5365640    -0.1122650
 Cl        2.4588866    -0.1183467     0.1504640
 Cl       -1.0685510     1.8023780    -0.3470660
  C       -0.1289900    -0.6488570     0.5010500
  C        0.9355250    -0.6897000    -0.5828100
  C       -0.5154060     0.7427890     0.9710020
  H        0.2242670    -1.1996790     1.3778280
  H        0.6181320    -0.1210460    -1.4565390
  H        1.1355610    -1.7215610    -0.8700150
  H       -1.3207740     0.6750150     1.7029520
  H        0.3537730     1.2151890     1.4309750
units angstrom
no_reorient  #important for SAPT in psi4, default
symmetry c1  #important for SAPT in psi4, default
}

set PROPERTIES_ORIGIN ["COM"]
properties('MP2/aug-cc-pvtz', properties = ['dipole'])
--------------------------------------------------------------------------

    Molecular point group: c1
  Charge       = 0
  Multiplicity = 1
  Basis Set: AUG-CC-PVTZ
    Blend: AUG-CC-PVTZ
  Basis Set: (AUG-CC-PVTZ AUX)
    Blend: AUG-CC-PVTZ-JKFIT

    Orbital Energies [Eh]
    ---------------------

    Doubly Occupied:

       1A   -104.844167     2A   -104.842406     3A   -104.838523
       4A    -11.331187     5A    -11.315561     6A    -11.314808
       7A    -10.568683     8A    -10.566991     9A    -10.562962
      10A     -8.035516    11A     -8.033789    12A     -8.033708
      13A     -8.033647    14A     -8.031964    15A     -8.031911
      16A     -8.029822    17A     -8.027986    18A     -8.027917
      19A     -1.206919    20A     -1.142008    21A     -1.121306
      22A     -0.998492    23A     -0.936229    24A     -0.809894
      25A     -0.696614    26A     -0.669988    27A     -0.617543
      28A     -0.596590    29A     -0.581140    30A     -0.547497
      31A     -0.525349    32A     -0.469838    33A     -0.459034
      34A     -0.455788    35A     -0.453938    36A     -0.442401
      37A     -0.438363

  @DF-RHF Final Energy: -1495.11736536647345

   => Energetics <=

    Nuclear Repulsion Energy =            432.3905052705625280
    One-Electron Energy =               -2923.7347850444493815
    Two-Electron Energy =                 996.2269144074133465
    Total Energy =                      -1495.1173653664732228
  Basis Set: (AUG-CC-PVTZ AUX)
    Blend: AUG-CC-PVTZ-RI
    Molecular point group: c1

    Geometry (in Angstrom), charge = 0, multiplicity = 1:

       Center              X                  Y                   Z               Mass
    ------------   -----------------  -----------------  -----------------  -----------------
         CL          -1.547529900198    -1.514956298283    -0.126465349071    34.968852682000
         CL           2.467757699802    -0.096738998283     0.136263650929    34.968852682000
         CL          -1.059679900198     1.823985701717    -0.361266349071    34.968852682000
         C           -0.120118900198    -0.627249298283     0.486849650929    12.000000000000
         C            0.944396099802    -0.668092298283    -0.597010349071    12.000000000000
         C           -0.506534900198     0.764396701717     0.956801650929    12.000000000000
         H            0.233138099802    -1.178071298283     1.363627650929     1.007825032230
         H            0.627003099802    -0.099438298283    -1.470739349071     1.007825032230
         H            1.144432099802    -1.699953298283    -0.884215349071     1.007825032230
         H           -1.311902900198     0.696622701717     1.688751650929     1.007825032230
         H            0.362644099802     1.236796701717     1.416774650929     1.007825032230

  Basis Set: AUG-CC-PVTZ
    Blend: AUG-CC-PVTZ
  Basis Set: (AUG-CC-PVTZ AUX)
    Blend: AUG-CC-PVTZ-JKFIT
	 Reference Energy          =   -1495.1173653664734502 [Eh]
	 Singles Energy            =      -0.0000000000000000 [Eh]
	 Same-Spin Energy          =      -0.3136032176880688 [Eh]
	 Opposite-Spin Energy      =      -0.9648892600556516 [Eh]
	 Correlation Energy        =      -1.2784924777437203 [Eh]
	 Total Energy              =   -1496.3958578442170619 [Eh]

	 ================> DF-SCS-MP2 Energies <==================
	-----------------------------------------------------------
	 SCS Same-Spin Scale       =       0.3333333333333333 [-]
	 SCS Opposite-Spin Scale   =       1.2000000000000000 [-]
	 SCS Same-Spin Energy      =      -0.1045344058960229 [Eh]
	 SCS Opposite-Spin Energy  =      -1.1578671120667818 [Eh]
	 SCS Correlation Energy    =      -1.2624015179628048 [Eh]
	 SCS Total Energy          =   -1496.3797668844363216 [Eh]
	-----------------------------------------------------------

  Dipole Moment: [D]
     X:     0.4083      Y:    -0.6921      Z:     1.1033     Total:     1.3649

*** Psi4 exiting successfully. Buy a developer a beer!
