                               Psi4 1.3.2 release

  ==> Input File <==

--------------------------------------------------------------------------
#psi4
#
memory 32 gb

molecule  {
0 1
 Cl       -1.5295649    -1.6571927     0.0284717
 Cl        2.4627330     0.0122270     0.0169400
 Cl       -1.0685510     1.8023780    -0.3470660
  C       -0.1289900    -0.6488570     0.5010500
  C        0.9355250    -0.6897000    -0.5828100
  C       -0.5154060     0.7427890     0.9710020
  H        0.2242670    -1.1996790     1.3778280
  H        0.6181320    -0.1210460    -1.4565390
  H        1.1355610    -1.7215610    -0.8700150
  H       -1.3207740     0.6750150     1.7029520
  H        0.3537730     1.2151890     1.4309750
units angstrom
no_reorient  #important for SAPT in psi4, default
symmetry c1  #important for SAPT in psi4, default
}

set PROPERTIES_ORIGIN ["COM"]
properties('MP2/aug-cc-pvtz', properties = ['dipole'])
--------------------------------------------------------------------------

    Molecular point group: c1
  Charge       = 0
  Multiplicity = 1
  Basis Set: AUG-CC-PVTZ
    Blend: AUG-CC-PVTZ
  Basis Set: (AUG-CC-PVTZ AUX)
    Blend: AUG-CC-PVTZ-JKFIT

    Orbital Energies [Eh]
    ---------------------

    Doubly Occupied:

       1A   -104.844626     2A   -104.844381     3A   -104.839076
       4A    -11.331526     5A    -11.315925     6A    -11.315719
       7A    -10.569000     8A    -10.568826     9A    -10.563503
      10A     -8.035842    11A     -8.035634    12A     -8.034026
      13A     -8.033960    14A     -8.033791    15A     -8.033729
      16A     -8.030365    17A     -8.028527    18A     -8.028459
      19A     -1.205040    20A     -1.141459    21A     -1.124154
      22A     -1.000024    23A     -0.936079    24A     -0.809505
      25A     -0.695706    26A     -0.669938    27A     -0.619841
      28A     -0.594467    29A     -0.580789    30A     -0.550775
      31A     -0.523607    32A     -0.471166    33A     -0.461628
      34A     -0.454735    35A     -0.451452    36A     -0.444056
      37A     -0.439250

  @DF-RHF Final Energy: -1495.11781683242111

   => Energetics <=

    Nuclear Repulsion Energy =            429.7615192268580699
    One-Electron Energy =               -2918.4374992850621311
    Two-Electron Energy =                 993.5581632257828915
    Total Energy =                      -1495.1178168324211128
  Basis Set: (AUG-CC-PVTZ AUX)
    Blend: AUG-CC-PVTZ-RI
    Molecular point group: c1

    Geometry (in Angstrom), charge = 0, multiplicity = 1:

       Center              X                  Y                   Z               Mass
    ------------   -----------------  -----------------  -----------------  -----------------
         CL          -1.528045383327    -1.637967838476     0.012543174815    34.968852682000
         CL           2.464252516673     0.031451861524     0.001011474815    34.968852682000
         CL          -1.067031483327     1.821602861524    -0.362994525185    34.968852682000
         C           -0.127470483327    -0.629632138476     0.485121474815    12.000000000000
         C            0.937044516673    -0.670475138476    -0.598738525185    12.000000000000
         C           -0.513886483327     0.762013861524     0.955073474815    12.000000000000
         H            0.225786516673    -1.180454138476     1.361899474815     1.007825032230
         H            0.619651516673    -0.101821138476    -1.472467525185     1.007825032230
         H            1.137080516673    -1.702336138476    -0.885943525185     1.007825032230
         H           -1.319254483327     0.694239861524     1.687023474815     1.007825032230
         H            0.355292516673     1.234413861524     1.415046474815     1.007825032230

  Basis Set: AUG-CC-PVTZ
    Blend: AUG-CC-PVTZ
  Basis Set: (AUG-CC-PVTZ AUX)
    Blend: AUG-CC-PVTZ-JKFIT
	 Reference Energy          =   -1495.1178168324211128 [Eh]
	 Singles Energy            =      -0.0000000000000000 [Eh]
	 Same-Spin Energy          =      -0.3130856380092771 [Eh]
	 Opposite-Spin Energy      =      -0.9643759259185912 [Eh]
	 Correlation Energy        =      -1.2774615639278684 [Eh]
	 Total Energy              =   -1496.3952783963488855 [Eh]

	 ================> DF-SCS-MP2 Energies <==================
	-----------------------------------------------------------
	 SCS Same-Spin Scale       =       0.3333333333333333 [-]
	 SCS Opposite-Spin Scale   =       1.2000000000000000 [-]
	 SCS Same-Spin Energy      =      -0.1043618793364257 [Eh]
	 SCS Opposite-Spin Energy  =      -1.1572511111023094 [Eh]
	 SCS Correlation Energy    =      -1.2616129904387350 [Eh]
	 SCS Total Energy          =   -1496.3794298228599473 [Eh]
	-----------------------------------------------------------

  Dipole Moment: [D]
     X:     0.4062      Y:    -0.6938      Z:     1.1256     Total:     1.3832

*** Psi4 exiting successfully. Buy a developer a beer!
