                               Psi4 1.3.2 release

  ==> Input File <==

--------------------------------------------------------------------------
#psi4
#
memory 32 gb

molecule  {
0 1
 Cl       -1.5564010    -1.5365640    -0.1122650
 Cl        2.4758498     0.0066619    -0.0107564
 Cl       -1.0685510     1.8023780    -0.3470660
  C       -0.1289900    -0.6488570     0.5010500
  C        0.9355250    -0.6897000    -0.5828100
  C       -0.5154060     0.7427890     0.9710020
  H        0.2242670    -1.1996790     1.3778280
  H        0.6181320    -0.1210460    -1.4565390
  H        1.1355610    -1.7215610    -0.8700150
  H       -1.3207740     0.6750150     1.7029520
  H        0.3537730     1.2151890     1.4309750
units angstrom
no_reorient  #important for SAPT in psi4, default
symmetry c1  #important for SAPT in psi4, default
}

set PROPERTIES_ORIGIN ["COM"]
properties('MP2/aug-cc-pvtz', properties = ['dipole'])
--------------------------------------------------------------------------

    Molecular point group: c1
  Charge       = 0
  Multiplicity = 1
  Basis Set: AUG-CC-PVTZ
    Blend: AUG-CC-PVTZ
  Basis Set: (AUG-CC-PVTZ AUX)
    Blend: AUG-CC-PVTZ-JKFIT

    Orbital Energies [Eh]
    ---------------------

    Doubly Occupied:

       1A   -104.844350     2A   -104.843289     3A   -104.838359
       4A    -11.332552     5A    -11.315136     6A    -11.314660
       7A    -10.568846     8A    -10.567695     9A    -10.562787
      10A     -8.035648    11A     -8.034536    12A     -8.033810
      13A     -8.033754    14A     -8.032730    15A     -8.032664
      16A     -8.029647    17A     -8.027808    18A     -8.027738
      19A     -1.205975    20A     -1.140940    21A     -1.122209
      22A     -1.000047    23A     -0.935545    24A     -0.809415
      25A     -0.696158    26A     -0.669747    27A     -0.620476
      28A     -0.593234    29A     -0.580466    30A     -0.548843
      31A     -0.524842    32A     -0.469627    33A     -0.460274
      34A     -0.455497    35A     -0.452293    36A     -0.443368
      37A     -0.439109

  @DF-RHF Final Energy: -1495.11927480753934

   => Energetics <=

    Nuclear Repulsion Energy =            431.7081842915691823
    One-Electron Energy =               -2922.3667735769568026
    Two-Electron Energy =                 995.5393144778485066
    Total Energy =                      -1495.1192748075391137
  Basis Set: (AUG-CC-PVTZ AUX)
    Blend: AUG-CC-PVTZ-RI
    Molecular point group: c1

    Geometry (in Angstrom), charge = 0, multiplicity = 1:

       Center              X                  Y                   Z               Mass
    ------------   -----------------  -----------------  -----------------  -----------------
         CL          -1.551594313949    -1.544908587527    -0.087836646302    34.968852682000
         CL           2.480656486051    -0.001682687527     0.013671953698    34.968852682000
         CL          -1.063744313949     1.794033412473    -0.322637646302    34.968852682000
         C           -0.124183313949    -0.657201587527     0.525478353698    12.000000000000
         C            0.940331686051    -0.698044587527    -0.558381646302    12.000000000000
         C           -0.510599313949     0.734444412473     0.995430353698    12.000000000000
         H            0.229073686051    -1.208023587527     1.402256353698     1.007825032230
         H            0.622938686051    -0.129390587527    -1.432110646302     1.007825032230
         H            1.140367686051    -1.729905587527    -0.845586646302     1.007825032230
         H           -1.315967313949     0.666670412473     1.727380353698     1.007825032230
         H            0.358579686051     1.206844412473     1.455403353698     1.007825032230

  Basis Set: AUG-CC-PVTZ
    Blend: AUG-CC-PVTZ
  Basis Set: (AUG-CC-PVTZ AUX)
    Blend: AUG-CC-PVTZ-JKFIT
	 Reference Energy          =   -1495.1192748075393411 [Eh]
	 Singles Energy            =      -0.0000000000000000 [Eh]
	 Same-Spin Energy          =      -0.3133298973289099 [Eh]
	 Opposite-Spin Energy      =      -0.9645797156179914 [Eh]
	 Correlation Energy        =      -1.2779096129469014 [Eh]
	 Total Energy              =   -1496.3971844204861554 [Eh]

	 ================> DF-SCS-MP2 Energies <==================
	-----------------------------------------------------------
	 SCS Same-Spin Scale       =       0.3333333333333333 [-]
	 SCS Opposite-Spin Scale   =       1.2000000000000000 [-]
	 SCS Same-Spin Energy      =      -0.1044432991096366 [Eh]
	 SCS Opposite-Spin Energy  =      -1.1574956587415897 [Eh]
	 SCS Correlation Energy    =      -1.2619389578512263 [Eh]
	 SCS Total Energy          =   -1496.3812137653906120 [Eh]
	-----------------------------------------------------------

  Dipole Moment: [D]
     X:     0.3436      Y:    -0.7824      Z:     1.2115     Total:     1.4825

*** Psi4 exiting successfully. Buy a developer a beer!
