                               Psi4 1.3.2 release

  ==> Input File <==

--------------------------------------------------------------------------
#psi4
#
memory 32 gb

molecule  {
0 1
 Cl       -1.5564010    -1.5365640    -0.1122650
 Cl        2.4884975     0.0008847    -0.0386270
 Cl       -1.0685510     1.8023780    -0.3470660
  C       -0.1289900    -0.6488570     0.5010500
  C        0.9355250    -0.6897000    -0.5828100
  C       -0.5154060     0.7427890     0.9710020
  H        0.2242670    -1.1996790     1.3778280
  H        0.6181320    -0.1210460    -1.4565390
  H        1.1355610    -1.7215610    -0.8700150
  H       -1.3207740     0.6750150     1.7029520
  H        0.3537730     1.2151890     1.4309750
units angstrom
no_reorient  #important for SAPT in psi4, default
symmetry c1  #important for SAPT in psi4, default
}

set PROPERTIES_ORIGIN ["COM"]
properties('MP2/aug-cc-pvtz', properties = ['dipole'])
--------------------------------------------------------------------------

    Molecular point group: c1
  Charge       = 0
  Multiplicity = 1
  Basis Set: AUG-CC-PVTZ
    Blend: AUG-CC-PVTZ
  Basis Set: (AUG-CC-PVTZ AUX)
    Blend: AUG-CC-PVTZ-JKFIT

    Orbital Energies [Eh]
    ---------------------

    Doubly Occupied:

       1A   -104.844740     2A   -104.843128     3A   -104.838483
       4A    -11.332872     5A    -11.315398     6A    -11.314418
       7A    -10.569219     8A    -10.567509     9A    -10.562909
      10A     -8.036021    11A     -8.034352    12A     -8.034181
      13A     -8.034124    14A     -8.032544    15A     -8.032477
      16A     -8.029769    17A     -8.027929    18A     -8.027860
      19A     -1.205795    20A     -1.140951    21A     -1.122378
      22A     -1.000465    23A     -0.935343    24A     -0.809436
      25A     -0.696183    26A     -0.669710    27A     -0.620836
      28A     -0.592861    29A     -0.580433    30A     -0.549014
      31A     -0.524954    32A     -0.469508    33A     -0.460603
      34A     -0.455614    35A     -0.451748    36A     -0.443504
      37A     -0.439326

  @DF-RHF Final Energy: -1495.11919880199275

   => Energetics <=

    Nuclear Repulsion Energy =            431.2566539683145947
    One-Electron Energy =               -2921.4585152322019894
    Two-Electron Energy =                 995.0826624618947562
    Total Energy =                      -1495.1191988019927521
  Basis Set: (AUG-CC-PVTZ AUX)
    Blend: AUG-CC-PVTZ-RI
    Molecular point group: c1

    Geometry (in Angstrom), charge = 0, multiplicity = 1:

       Center              X                  Y                   Z               Mass
    ------------   -----------------  -----------------  -----------------  -----------------
         CL          -1.554624726007    -1.543524359839    -0.081158799557    34.968852682000
         CL           2.490273773993    -0.006075659839    -0.007520799557    34.968852682000
         CL          -1.066774726007     1.795417640161    -0.315959799557    34.968852682000
         C           -0.127213726007    -0.655817359839     0.532156200443    12.000000000000
         C            0.937301273993    -0.696660359839    -0.551703799557    12.000000000000
         C           -0.513629726007     0.735828640161     1.002108200443    12.000000000000
         H            0.226043273993    -1.206639359839     1.408934200443     1.007825032230
         H            0.619908273993    -0.128006359839    -1.425432799557     1.007825032230
         H            1.137337273993    -1.728521359839    -0.838908799557     1.007825032230
         H           -1.318997726007     0.668054640161     1.734058200443     1.007825032230
         H            0.355549273993     1.208228640161     1.462081200443     1.007825032230

  Basis Set: AUG-CC-PVTZ
    Blend: AUG-CC-PVTZ
  Basis Set: (AUG-CC-PVTZ AUX)
    Blend: AUG-CC-PVTZ-JKFIT
	 Reference Energy          =   -1495.1191988019927521 [Eh]
	 Singles Energy            =      -0.0000000000000000 [Eh]
	 Same-Spin Energy          =      -0.3132519564807079 [Eh]
	 Opposite-Spin Energy      =      -0.9645063591772585 [Eh]
	 Correlation Energy        =      -1.2777583156579664 [Eh]
	 Total Energy              =   -1496.3969571176507998 [Eh]

	 ================> DF-SCS-MP2 Energies <==================
	-----------------------------------------------------------
	 SCS Same-Spin Scale       =       0.3333333333333333 [-]
	 SCS Opposite-Spin Scale   =       1.2000000000000000 [-]
	 SCS Same-Spin Energy      =      -0.1044173188269026 [Eh]
	 SCS Opposite-Spin Energy  =      -1.1574076310127102 [Eh]
	 SCS Correlation Energy    =      -1.2618249498396128 [Eh]
	 SCS Total Energy          =   -1496.3810237518323447 [Eh]
	-----------------------------------------------------------

  Dipole Moment: [D]
     X:     0.3211      Y:    -0.7811      Z:     1.2315     Total:     1.4932

*** Psi4 exiting successfully. Buy a developer a beer!
