                               Psi4 1.3.2 release

  ==> Input File <==

--------------------------------------------------------------------------
#psi4
#
memory 32 gb

molecule  {
0 1
 Cl       -1.5564010    -1.5365640    -0.1122650
 Cl        2.4056557     0.0323333     0.1258151
 Cl       -1.0685510     1.8023780    -0.3470660
  C       -0.1289900    -0.6488570     0.5010500
  C        0.9355250    -0.6897000    -0.5828100
  C       -0.5154060     0.7427890     0.9710020
  H        0.2242670    -1.1996790     1.3778280
  H        0.6181320    -0.1210460    -1.4565390
  H        1.1355610    -1.7215610    -0.8700150
  H       -1.3207740     0.6750150     1.7029520
  H        0.3537730     1.2151890     1.4309750
units angstrom
no_reorient  #important for SAPT in psi4, default
symmetry c1  #important for SAPT in psi4, default
}

set PROPERTIES_ORIGIN ["COM"]
properties('MP2/aug-cc-pvtz', properties = ['dipole'])
--------------------------------------------------------------------------

    Molecular point group: c1
  Charge       = 0
  Multiplicity = 1
  Basis Set: AUG-CC-PVTZ
    Blend: AUG-CC-PVTZ
  Basis Set: (AUG-CC-PVTZ AUX)
    Blend: AUG-CC-PVTZ-JKFIT

    Orbital Energies [Eh]
    ---------------------

    Doubly Occupied:

       1A   -104.844012     2A   -104.842239     3A   -104.837715
       4A    -11.331014     5A    -11.315874     6A    -11.313703
       7A    -10.568589     8A    -10.566827     9A    -10.562148
      10A     -8.035418    11A     -8.033625    12A     -8.033621
      13A     -8.033558    14A     -8.031804    15A     -8.031749
      16A     -8.029008    17A     -8.027174    18A     -8.027104
      19A     -1.207234    20A     -1.140929    21A     -1.121320
      22A     -0.997719    23A     -0.936690    24A     -0.809353
      25A     -0.696151    26A     -0.670095    27A     -0.618588
      28A     -0.595678    29A     -0.580259    30A     -0.547956
      31A     -0.524132    32A     -0.470044    33A     -0.458467
      34A     -0.455457    35A     -0.454327    36A     -0.442558
      37A     -0.437591

  @DF-RHF Final Energy: -1495.11778304314907

   => Energetics <=

    Nuclear Repulsion Energy =            434.1478575685127339
    One-Electron Energy =               -2927.2718194170543029
    Two-Electron Energy =                 998.0061788053923237
    Total Energy =                      -1495.1177830431493021
  Basis Set: (AUG-CC-PVTZ AUX)
    Blend: AUG-CC-PVTZ-RI
    Molecular point group: c1

    Geometry (in Angstrom), charge = 0, multiplicity = 1:

       Center              X                  Y                   Z               Mass
    ------------   -----------------  -----------------  -----------------  -----------------
         CL          -1.534775679180    -1.551059501929    -0.120559427539    34.968852682000
         CL           2.427281020820     0.017837798071     0.117520672461    34.968852682000
         CL          -1.046925679180     1.787882498071    -0.355360427539    34.968852682000
         C           -0.107364679180    -0.663352501929     0.492755572461    12.000000000000
         C            0.957150320820    -0.704195501929    -0.591104427539    12.000000000000
         C           -0.493780679180     0.728293498071     0.962707572461    12.000000000000
         H            0.245892320820    -1.214174501929     1.369533572461     1.007825032230
         H            0.639757320820    -0.135541501929    -1.464833427539     1.007825032230
         H            1.157186320820    -1.736056501929    -0.878309427539     1.007825032230
         H           -1.299148679180     0.660519498071     1.694657572461     1.007825032230
         H            0.375398320820     1.200693498071     1.422680572461     1.007825032230

  Basis Set: AUG-CC-PVTZ
    Blend: AUG-CC-PVTZ
  Basis Set: (AUG-CC-PVTZ AUX)
    Blend: AUG-CC-PVTZ-JKFIT
	 Reference Energy          =   -1495.1177830431490747 [Eh]
	 Singles Energy            =      -0.0000000000000000 [Eh]
	 Same-Spin Energy          =      -0.3138488319009342 [Eh]
	 Opposite-Spin Energy      =      -0.9651351556236399 [Eh]
	 Correlation Energy        =      -1.2789839875245741 [Eh]
	 Total Energy              =   -1496.3967670306735727 [Eh]

	 ================> DF-SCS-MP2 Energies <==================
	-----------------------------------------------------------
	 SCS Same-Spin Scale       =       0.3333333333333333 [-]
	 SCS Opposite-Spin Scale   =       1.2000000000000000 [-]
	 SCS Same-Spin Energy      =      -0.1046162773003114 [Eh]
	 SCS Opposite-Spin Energy  =      -1.1581621867483678 [Eh]
	 SCS Correlation Energy    =      -1.2627784640486792 [Eh]
	 SCS Total Energy          =   -1496.3805615071978536 [Eh]
	-----------------------------------------------------------

  Dipole Moment: [D]
     X:     0.4637      Y:    -0.7856      Z:     1.1165     Total:     1.4418

*** Psi4 exiting successfully. Buy a developer a beer!
