                               Psi4 1.4a3.dev225

  ==> Input File <==

--------------------------------------------------------------------------
#psi4
#
memory 32 gb

molecule  {
0 1
 Cl       -1.5559190    -1.5368180    -0.1120840
 Cl        2.4627220     0.0125820     0.0169060
 Cl       -1.0692530     1.8020150    -0.3469870
  C       -0.1686829    -0.6737099     0.4837824
  C        0.9353530    -0.6892460    -0.5830770
  C       -0.5150540     0.7428180     0.9709430
  H        0.2250200    -1.1997290     1.3774140
  H        0.6176610    -0.1200850    -1.4563010
  H        1.1354520    -1.7209640    -0.8707770
  H       -1.3198770     0.6751280     1.7035260
  H        0.3543960     1.2153530     1.4302720
units angstrom
no_reorient  #important for SAPT in psi4, default
symmetry c1  #important for SAPT in psi4, default
}

set PROPERTIES_ORIGIN ["COM"]
properties('MP2/aug-cc-pvtz', properties = ['dipole'])
--------------------------------------------------------------------------

    Molecular point group: c1
  Charge       = 0
  Multiplicity = 1
  Basis Set: AUG-CC-PVTZ
    Blend: AUG-CC-PVTZ
  Basis Set: (AUG-CC-PVTZ AUX)
    Blend: AUG-CC-PVTZ-JKFIT

    Orbital Energies [Eh]
    ---------------------

    Doubly Occupied:

       1A   -104.848833     2A   -104.843137     3A   -104.836690
       4A    -11.330607     5A    -11.314082     6A    -11.313549
       7A    -10.573926     8A    -10.567434     9A    -10.561176
      10A     -8.040845    11A     -8.038859    12A     -8.038801
      13A     -8.034275    14A     -8.032476    15A     -8.032413
      16A     -8.028034    17A     -8.026208    18A     -8.026141
      19A     -1.208664    20A     -1.139392    21A     -1.128434
      22A     -0.995648    23A     -0.931984    24A     -0.806667
      25A     -0.691543    26A     -0.669061    27A     -0.620182
      28A     -0.594755    29A     -0.574188    30A     -0.549750
      31A     -0.532431    32A     -0.472738    33A     -0.461272
      34A     -0.453607    35A     -0.451031    36A     -0.442266
      37A     -0.436040

  @DF-RHF Final Energy: -1495.11657029933599

   => Energetics <=

    Nuclear Repulsion Energy =            432.3810346352892680
    One-Electron Energy =               -2923.7009308903066085
    Two-Electron Energy =                 996.2033259556812936
    Total Energy =                      -1495.1165702993359901
  Basis Set: (AUG-CC-PVTZ AUX)
    Blend: AUG-CC-PVTZ-RI
    Molecular point group: c1

    Geometry (in Angstrom), charge = 0, multiplicity = 1:

       Center              X                  Y                   Z               Mass
    ------------   -----------------  -----------------  -----------------  -----------------
         CL          -1.544677003337    -1.544441795330    -0.092891948782    34.968852682000
         CL           2.473963996663     0.004958204670     0.036098051218    34.968852682000
         CL          -1.058011003337     1.794391204670    -0.327794948782    34.968852682000
         C           -0.157440903337    -0.681333695330     0.502974451218    12.000000000000
         C            0.946594996663    -0.696869795330    -0.563884948782    12.000000000000
         C           -0.503812003337     0.735194204670     0.990135051218    12.000000000000
         H            0.236261996663    -1.207352795330     1.396606051218     1.007825032230
         H            0.628902996663    -0.127708795330    -1.437108948782     1.007825032230
         H            1.146693996663    -1.728587795330    -0.851584948782     1.007825032230
         H           -1.308635003337     0.667504204670     1.722718051218     1.007825032230
         H            0.365637996663     1.207729204670     1.449464051218     1.007825032230

  Basis Set: AUG-CC-PVTZ
    Blend: AUG-CC-PVTZ
  Basis Set: (AUG-CC-PVTZ AUX)
    Blend: AUG-CC-PVTZ-JKFIT
	 Reference Energy          =   -1495.1165702993359901 [Eh]
	 Singles Energy            =      -0.0000000000000000 [Eh]
	 Same-Spin Energy          =      -0.3137081837916584 [Eh]
	 Opposite-Spin Energy      =      -0.9650311886479239 [Eh]
	 Correlation Energy        =      -1.2787393724395824 [Eh]
	 Total Energy              =   -1496.3953096717755216 [Eh]

	 ================> DF-SCS-MP2 Energies <==================
	-----------------------------------------------------------
	 SCS Same-Spin Scale       =       0.3333333333333333 [-]
	 SCS Opposite-Spin Scale   =       1.2000000000000000 [-]
	 SCS Same-Spin Energy      =      -0.1045693945972195 [Eh]
	 SCS Opposite-Spin Energy  =      -1.1580374263775086 [Eh]
	 SCS Correlation Energy    =      -1.2626068209747281 [Eh]
	 SCS Total Energy          =   -1496.3791771203107146 [Eh]
	-----------------------------------------------------------

  Dipole Moment: [D]
     X:     0.2445      Y:    -0.8939      Z:     1.1617     Total:     1.4861

*** Psi4 exiting successfully. Buy a developer a beer!
