                               Psi4 1.3.2 release

  ==> Input File <==

--------------------------------------------------------------------------
#psi4
#
memory 32 gb

molecule  {
0 1
 Cl       -1.5618806    -1.4941246    -0.1577582
 Cl        2.4627330     0.0122270     0.0169400
 Cl       -1.0685510     1.8023780    -0.3470660
  C       -0.1289900    -0.6488570     0.5010500
  C        0.9355250    -0.6897000    -0.5828100
  C       -0.5154060     0.7427890     0.9710020
  H        0.2242670    -1.1996790     1.3778280
  H        0.6181320    -0.1210460    -1.4565390
  H        1.1355610    -1.7215610    -0.8700150
  H       -1.3207740     0.6750150     1.7029520
  H        0.3537730     1.2151890     1.4309750
units angstrom
no_reorient  #important for SAPT in psi4, default
symmetry c1  #important for SAPT in psi4, default
}

set PROPERTIES_ORIGIN ["COM"]
properties('MP2/aug-cc-pvtz', properties = ['dipole'])
--------------------------------------------------------------------------

    Molecular point group: c1
  Charge       = 0
  Multiplicity = 1
  Basis Set: AUG-CC-PVTZ
    Blend: AUG-CC-PVTZ
  Basis Set: (AUG-CC-PVTZ AUX)
    Blend: AUG-CC-PVTZ-JKFIT

    Orbital Energies [Eh]
    ---------------------

    Doubly Occupied:

       1A   -104.843772     2A   -104.842999     3A   -104.837896
       4A    -11.332443     5A    -11.314629     6A    -11.314510
       7A    -10.568323     8A    -10.567454     9A    -10.562331
      10A     -8.035120    11A     -8.034292    12A     -8.033285
      13A     -8.033231    14A     -8.032493    15A     -8.032428
      16A     -8.029190    17A     -8.027352    18A     -8.027282
      19A     -1.206689    20A     -1.140746    21A     -1.121306
      22A     -0.999453    23A     -0.935639    24A     -0.809366
      25A     -0.696389    26A     -0.669704    27A     -0.620244
      28A     -0.593389    29A     -0.580362    30A     -0.547962
      31A     -0.525119    32A     -0.469243    33A     -0.459355
      34A     -0.455886    35A     -0.452740    36A     -0.442706
      37A     -0.438624

  @DF-RHF Final Energy: -1495.11882163038126

   => Energetics <=

    Nuclear Repulsion Energy =            433.0692790853047427
    One-Electron Energy =               -2925.1083053649749672
    Two-Electron Energy =                 996.9202046492886211
    Total Energy =                      -1495.1188216303812624
  Basis Set: (AUG-CC-PVTZ AUX)
    Blend: AUG-CC-PVTZ-RI
    Molecular point group: c1

    Geometry (in Angstrom), charge = 0, multiplicity = 1:

       Center              X                  Y                   Z               Mass
    ------------   -----------------  -----------------  -----------------  -----------------
         CL          -1.552618182490    -1.513971153544    -0.129065700466    34.968852682000
         CL           2.471995417510    -0.007619553544     0.045632499534    34.968852682000
         CL          -1.059288582490     1.782531446456    -0.318373500466    34.968852682000
         C           -0.119727582490    -0.668703553544     0.529742499534    12.000000000000
         C            0.944787417510    -0.709546553544    -0.554117500466    12.000000000000
         C           -0.506143582490     0.722942446456     0.999694499534    12.000000000000
         H            0.233529417510    -1.219525553544     1.406520499534     1.007825032230
         H            0.627394417510    -0.140892553544    -1.427846500466     1.007825032230
         H            1.144823417510    -1.741407553544    -0.841322500466     1.007825032230
         H           -1.311511582490     0.655168446456     1.731644499534     1.007825032230
         H            0.363035417510     1.195342446456     1.459667499534     1.007825032230

  Basis Set: AUG-CC-PVTZ
    Blend: AUG-CC-PVTZ
  Basis Set: (AUG-CC-PVTZ AUX)
    Blend: AUG-CC-PVTZ-JKFIT
	 Reference Energy          =   -1495.1188216303812624 [Eh]
	 Singles Energy            =      -0.0000000000000000 [Eh]
	 Same-Spin Energy          =      -0.3135847513644647 [Eh]
	 Opposite-Spin Energy      =      -0.9648497034238525 [Eh]
	 Correlation Energy        =      -1.2784344547883171 [Eh]
	 Total Energy              =   -1496.3972560851696016 [Eh]

	 ================> DF-SCS-MP2 Energies <==================
	-----------------------------------------------------------
	 SCS Same-Spin Scale       =       0.3333333333333333 [-]
	 SCS Opposite-Spin Scale   =       1.2000000000000000 [-]
	 SCS Same-Spin Energy      =      -0.1045282504548216 [Eh]
	 SCS Opposite-Spin Energy  =      -1.1578196441086228 [Eh]
	 SCS Correlation Energy    =      -1.2623478945634443 [Eh]
	 SCS Total Energy          =   -1496.3811695249446529 [Eh]
	-----------------------------------------------------------

  Dipole Moment: [D]
     X:     0.3497      Y:    -0.8149      Z:     1.2118     Total:     1.5016

*** Psi4 exiting successfully. Buy a developer a beer!
