                               Psi4 1.3.2 release

  ==> Input File <==

--------------------------------------------------------------------------
#psi4
#
memory 32 gb

molecule  {
0 1
 Cl       -1.5675981    -1.4062094    -0.2462821
 Cl        2.4627330     0.0122270     0.0169400
 Cl       -1.0685510     1.8023780    -0.3470660
  C       -0.1289900    -0.6488570     0.5010500
  C        0.9355250    -0.6897000    -0.5828100
  C       -0.5154060     0.7427890     0.9710020
  H        0.2242670    -1.1996790     1.3778280
  H        0.6181320    -0.1210460    -1.4565390
  H        1.1355610    -1.7215610    -0.8700150
  H       -1.3207740     0.6750150     1.7029520
  H        0.3537730     1.2151890     1.4309750
units angstrom
no_reorient  #important for SAPT in psi4, default
symmetry c1  #important for SAPT in psi4, default
}

set PROPERTIES_ORIGIN ["COM"]
properties('MP2/aug-cc-pvtz', properties = ['dipole'])
--------------------------------------------------------------------------

    Molecular point group: c1
  Charge       = 0
  Multiplicity = 1
  Basis Set: AUG-CC-PVTZ
    Blend: AUG-CC-PVTZ
  Basis Set: (AUG-CC-PVTZ AUX)
    Blend: AUG-CC-PVTZ-JKFIT

    Orbital Energies [Eh]
    ---------------------

    Doubly Occupied:

       1A   -104.843321     2A   -104.842030     3A   -104.837129
       4A    -11.332826     5A    -11.314084     6A    -11.313801
       7A    -10.567975     8A    -10.566531     9A    -10.561590
      10A     -8.034760    11A     -8.033367    12A     -8.032921
      13A     -8.032873    14A     -8.031576    15A     -8.031512
      16A     -8.028444    17A     -8.026607    18A     -8.026536
      19A     -1.207939    20A     -1.140369    21A     -1.119767
      22A     -0.999108    23A     -0.935401    24A     -0.809319
      25A     -0.697049    26A     -0.669461    27A     -0.620549
      28A     -0.592962    29A     -0.580135    30A     -0.546562
      31A     -0.525982    32A     -0.468220    33A     -0.458960
      34A     -0.456106    35A     -0.452178    36A     -0.441439
      37A     -0.437812

  @DF-RHF Final Energy: -1495.11659816996075

   => Energetics <=

    Nuclear Repulsion Energy =            435.0127731978259362
    One-Electron Energy =               -2929.0243456790349228
    Two-Electron Energy =                 998.8949743112482338
    Total Energy =                      -1495.1165981699607528
  Basis Set: (AUG-CC-PVTZ AUX)
    Blend: AUG-CC-PVTZ-RI
    Molecular point group: c1

    Geometry (in Angstrom), charge = 0, multiplicity = 1:

       Center              X                  Y                   Z               Mass
    ------------   -----------------  -----------------  -----------------  -----------------
         CL          -1.556965759031    -1.447120596292    -0.196379112085    34.968852682000
         CL           2.473365340969    -0.028684196292     0.066842987915    34.968852682000
         CL          -1.057918659031     1.761466803708    -0.297163012085    34.968852682000
         C           -0.118357659031    -0.689768196292     0.550952987915    12.000000000000
         C            0.946157340969    -0.730611196292    -0.532907012085    12.000000000000
         C           -0.504773659031     0.701877803708     1.020904987915    12.000000000000
         H            0.234899340969    -1.240590196292     1.427730987915     1.007825032230
         H            0.628764340969    -0.161957196292    -1.406636012085     1.007825032230
         H            1.146193340969    -1.762472196292    -0.820112012085     1.007825032230
         H           -1.310141659031     0.634103803708     1.752854987915     1.007825032230
         H            0.364405340969     1.174277803708     1.480877987915     1.007825032230

  Basis Set: AUG-CC-PVTZ
    Blend: AUG-CC-PVTZ
  Basis Set: (AUG-CC-PVTZ AUX)
    Blend: AUG-CC-PVTZ-JKFIT
	 Reference Energy          =   -1495.1165981699607528 [Eh]
	 Singles Energy            =      -0.0000000000000000 [Eh]
	 Same-Spin Energy          =      -0.3140163380587963 [Eh]
	 Opposite-Spin Energy      =      -0.9653593754252331 [Eh]
	 Correlation Energy        =      -1.2793757134840293 [Eh]
	 Total Energy              =   -1496.3959738834448672 [Eh]

	 ================> DF-SCS-MP2 Energies <==================
	-----------------------------------------------------------
	 SCS Same-Spin Scale       =       0.3333333333333333 [-]
	 SCS Opposite-Spin Scale   =       1.2000000000000000 [-]
	 SCS Same-Spin Energy      =      -0.1046721126862654 [Eh]
	 SCS Opposite-Spin Energy  =      -1.1584312505102796 [Eh]
	 SCS Correlation Energy    =      -1.2631033631965449 [Eh]
	 SCS Total Energy          =   -1496.3797015331572311 [Eh]
	-----------------------------------------------------------

  Dipole Moment: [D]
     X:     0.3109      Y:    -0.8791      Z:     1.2486     Total:     1.5584

*** Psi4 exiting successfully. Buy a developer a beer!
