                               Psi4 1.3.2 release

  ==> Input File <==

--------------------------------------------------------------------------
#psi4
#
memory 32 gb

molecule  {
0 1
 Cl       -1.5564010    -1.5365640    -0.1122650
 Cl        2.4617458     0.0332791    -0.0059935
 Cl       -1.0685510     1.8023780    -0.3470660
  C       -0.1289900    -0.6488570     0.5010500
  C        0.9355250    -0.6897000    -0.5828100
  C       -0.5154060     0.7427890     0.9710020
  H        0.2242670    -1.1996790     1.3778280
  H        0.6181320    -0.1210460    -1.4565390
  H        1.1355610    -1.7215610    -0.8700150
  H       -1.3207740     0.6750150     1.7029520
  H        0.3537730     1.2151890     1.4309750
units angstrom
no_reorient  #important for SAPT in psi4, default
symmetry c1  #important for SAPT in psi4, default
}

set PROPERTIES_ORIGIN ["COM"]
properties('MP2/aug-cc-pvtz', properties = ['dipole'])
--------------------------------------------------------------------------

    Molecular point group: c1
  Charge       = 0
  Multiplicity = 1
  Basis Set: AUG-CC-PVTZ
    Blend: AUG-CC-PVTZ
  Basis Set: (AUG-CC-PVTZ AUX)
    Blend: AUG-CC-PVTZ-JKFIT

    Orbital Energies [Eh]
    ---------------------

    Doubly Occupied:

       1A   -104.844181     2A   -104.843322     3A   -104.838185
       4A    -11.332403     5A    -11.314884     6A    -11.314778
       7A    -10.568684     8A    -10.567744     9A    -10.562611
      10A     -8.035485    11A     -8.034585    12A     -8.033649
      13A     -8.033593    14A     -8.032780    15A     -8.032714
      16A     -8.029472    17A     -8.027633    18A     -8.027563
      19A     -1.206080    20A     -1.140784    21A     -1.122149
      22A     -0.999784    23A     -0.935664    24A     -0.809327
      25A     -0.696081    26A     -0.669771    27A     -0.620551
      28A     -0.593154    29A     -0.580372    30A     -0.548824
      31A     -0.524623    32A     -0.469717    33A     -0.460083
      34A     -0.455337    35A     -0.452478    36A     -0.443329
      37A     -0.438909

  @DF-RHF Final Energy: -1495.11920454420806

   => Energetics <=

    Nuclear Repulsion Energy =            432.1600889749698808
    One-Electron Energy =               -2923.2760219608812804
    Two-Electron Energy =                 995.9967284417034534
    Total Energy =                      -1495.1192045442080598
  Basis Set: (AUG-CC-PVTZ AUX)
    Blend: AUG-CC-PVTZ-RI
    Molecular point group: c1

    Geometry (in Angstrom), charge = 0, multiplicity = 1:

       Center              X                  Y                   Z               Mass
    ------------   -----------------  -----------------  -----------------  -----------------
         CL          -1.548214969748    -1.551286117339    -0.088977845855    34.968852682000
         CL           2.469931830252     0.018556982661     0.017293654145    34.968852682000
         CL          -1.060364969748     1.787655882661    -0.323778845855    34.968852682000
         C           -0.120803969748    -0.663579117339     0.524337154145    12.000000000000
         C            0.943711030252    -0.704422117339    -0.559522845855    12.000000000000
         C           -0.507219969748     0.728066882661     0.994289154145    12.000000000000
         H            0.232453030252    -1.214401117339     1.401115154145     1.007825032230
         H            0.626318030252    -0.135768117339    -1.433251845855     1.007825032230
         H            1.143747030252    -1.736283117339    -0.846727845855     1.007825032230
         H           -1.312587969748     0.660292882661     1.726239154145     1.007825032230
         H            0.361959030252     1.200466882661     1.454262154145     1.007825032230

  Basis Set: AUG-CC-PVTZ
    Blend: AUG-CC-PVTZ
  Basis Set: (AUG-CC-PVTZ AUX)
    Blend: AUG-CC-PVTZ-JKFIT
	 Reference Energy          =   -1495.1192045442080598 [Eh]
	 Singles Energy            =      -0.0000000000000000 [Eh]
	 Same-Spin Energy          =      -0.3134023658882767 [Eh]
	 Opposite-Spin Energy      =      -0.9646572413699865 [Eh]
	 Correlation Energy        =      -1.2780596072582633 [Eh]
	 Total Energy              =   -1496.3972641514662882 [Eh]

	 ================> DF-SCS-MP2 Energies <==================
	-----------------------------------------------------------
	 SCS Same-Spin Scale       =       0.3333333333333333 [-]
	 SCS Opposite-Spin Scale   =       1.2000000000000000 [-]
	 SCS Same-Spin Energy      =      -0.1044674552960922 [Eh]
	 SCS Opposite-Spin Energy  =      -1.1575886896439838 [Eh]
	 SCS Correlation Energy    =      -1.2620561449400760 [Eh]
	 SCS Total Energy          =   -1496.3812606891481209 [Eh]
	-----------------------------------------------------------

  Dipole Moment: [D]
     X:     0.3609      Y:    -0.7980      Z:     1.2070     Total:     1.4913

*** Psi4 exiting successfully. Buy a developer a beer!
