                               Psi4 1.3.2 release

  ==> Input File <==

--------------------------------------------------------------------------
#psi4
#
memory 32 gb

molecule  {
0 1
 Cl       -2.7380800    -1.4884340     0.0000240
 Cl        0.0800140     3.1154550    -0.0000800
 Cl        2.6580650    -1.6270210     0.0000640
  C       -1.2132190    -0.6595150    -0.0000090
  C        0.0354480     1.3804360    -0.0000610
  C        1.1777690    -0.7209210     0.0000710
  C       -1.2006100     0.7348950    -0.0000410
  C       -0.0361319    -1.4072104    -0.2499770
  C        1.2367450     0.6723100    -0.0000120
  H       -2.1260020     1.3013390    -0.0000230
  H       -0.0639890    -2.4918370     0.0000610
  H        2.1899970     1.1904920    -0.0000040
units angstrom
no_reorient  #important for SAPT in psi4, default
symmetry c1  #important for SAPT in psi4, default
}

set PROPERTIES_ORIGIN ["COM"]
properties('MP2/aug-cc-pvtz', properties = ['dipole'])
--------------------------------------------------------------------------

    Molecular point group: c1
  Charge       = 0
  Multiplicity = 1
  Basis Set: AUG-CC-PVTZ
    Blend: AUG-CC-PVTZ
  Basis Set: (AUG-CC-PVTZ AUX)
    Blend: AUG-CC-PVTZ-JKFIT

    Orbital Energies [Eh]
    ---------------------

    Doubly Occupied:

       1A   -104.862413     2A   -104.861066     3A   -104.861066
       4A    -11.338588     5A    -11.338583     6A    -11.337034
       7A    -11.280080     8A    -11.275159     9A    -11.275133
      10A    -10.586211    11A    -10.584922    12A    -10.584921
      13A     -8.053123    14A     -8.051830    15A     -8.051830
      16A     -8.051140    17A     -8.051119    18A     -8.049851
      19A     -8.049850    20A     -8.049828    21A     -8.049827
      22A     -1.233757    23A     -1.175494    24A     -1.174933
      25A     -1.093302    26A     -1.018333    27A     -1.014046
      28A     -0.840444    29A     -0.835884    30A     -0.719880
      31A     -0.694799    32A     -0.644105    33A     -0.614950
      34A     -0.610546    35A     -0.585972    36A     -0.549793
      37A     -0.545482    38A     -0.523234    39A     -0.520556
      40A     -0.478816    41A     -0.478698    42A     -0.464470
      43A     -0.452923    44A     -0.357442    45A     -0.355714

  @DF-RHF Final Energy: -1607.56344486661715

   => Energetics <=

    Nuclear Repulsion Energy =            613.7368894326779127
    One-Electron Energy =               -3435.3463737842607770
    Two-Electron Energy =                1214.0460394849658314
    Total Energy =                      -1607.5634448666171465
  Basis Set: (AUG-CC-PVTZ AUX)
    Blend: AUG-CC-PVTZ-RI
    Molecular point group: c1

    Geometry (in Angstrom), charge = 0, multiplicity = 1:

       Center              X                  Y                   Z               Mass
    ------------   -----------------  -----------------  -----------------  -----------------
         CL          -2.738079912622    -1.488433606253     0.016697336467    34.968852682000
         CL           0.080014087378     3.115455393747     0.016593336467    34.968852682000
         CL           2.658065087378    -1.627020606253     0.016737336467    34.968852682000
         C           -1.213218912622    -0.659514606253     0.016664336467    12.000000000000
         C            0.035448087378     1.380436393747     0.016612336467    12.000000000000
         C            1.177769087378    -0.720920606253     0.016744336467    12.000000000000
         C           -1.200609912622     0.734895393747     0.016632336467    12.000000000000
         C           -0.036131812622    -1.407210006253    -0.233303663533    12.000000000000
         C            1.236745087378     0.672310393747     0.016661336467    12.000000000000
         H           -2.126001912622     1.301339393747     0.016650336467     1.007825032230
         H           -0.063988912622    -2.491836606253     0.016734336467     1.007825032230
         H            2.189997087378     1.190492393747     0.016669336467     1.007825032230

  Basis Set: AUG-CC-PVTZ
    Blend: AUG-CC-PVTZ
  Basis Set: (AUG-CC-PVTZ AUX)
    Blend: AUG-CC-PVTZ-JKFIT
	 Reference Energy          =   -1607.5634448666171465 [Eh]
	 Singles Energy            =      -0.0000000000000000 [Eh]
	 Same-Spin Energy          =      -0.4522147929223786 [Eh]
	 Opposite-Spin Energy      =      -1.3087673626643856 [Eh]
	 Correlation Energy        =      -1.7609821555867642 [Eh]
	 Total Energy              =   -1609.3244270222039631 [Eh]

	 ================> DF-SCS-MP2 Energies <==================
	-----------------------------------------------------------
	 SCS Same-Spin Scale       =       0.3333333333333333 [-]
	 SCS Opposite-Spin Scale   =       1.2000000000000000 [-]
	 SCS Same-Spin Energy      =      -0.1507382643074595 [Eh]
	 SCS Opposite-Spin Energy  =      -1.5705208351972628 [Eh]
	 SCS Correlation Energy    =      -1.7212590995047223 [Eh]
	 SCS Total Energy          =   -1609.2847039661219242 [Eh]
	-----------------------------------------------------------

  Dipole Moment: [D]
     X:     0.0036      Y:     0.1388      Z:     0.0854     Total:     0.1630

*** Psi4 exiting successfully. Buy a developer a beer!
