                               Psi4 1.3.2 release

  ==> Input File <==

--------------------------------------------------------------------------
#psi4
#
memory 32 gb

molecule  {
0 1
 Cl       -2.7380800    -1.4884340     0.0000240
 Cl        0.0800140     3.1154550    -0.0000800
 Cl        2.6580650    -1.6270210     0.0000640
  C       -1.2132190    -0.6595150    -0.0000090
  C        0.0354480     1.3804360    -0.0000610
  C        1.1777690    -0.7209210     0.0000710
  C       -1.2006100     0.7348950    -0.0000410
  C       -0.0361320    -1.4072030     0.0000230
  C        1.2367450     0.6723100    -0.0000120
  H       -2.1259986     1.3013420     0.1999770
  H       -0.0639890    -2.4918370     0.0000610
  H        2.1899970     1.1904920    -0.0000040
units angstrom
no_reorient  #important for SAPT in psi4, default
symmetry c1  #important for SAPT in psi4, default
}

set PROPERTIES_ORIGIN ["COM"]
properties('MP2/aug-cc-pvtz', properties = ['dipole'])
--------------------------------------------------------------------------

    Molecular point group: c1
  Charge       = 0
  Multiplicity = 1
  Basis Set: AUG-CC-PVTZ
    Blend: AUG-CC-PVTZ
  Basis Set: (AUG-CC-PVTZ AUX)
    Blend: AUG-CC-PVTZ-JKFIT

    Orbital Energies [Eh]
    ---------------------

    Doubly Occupied:

       1A   -104.860922     2A   -104.860694     3A   -104.860694
       4A    -11.334301     5A    -11.334202     6A    -11.334195
       7A    -11.277148     8A    -11.275900     9A    -11.275874
      10A    -10.584726    11A    -10.584500    12A    -10.584500
      13A     -8.051641    14A     -8.051415    15A     -8.051415
      16A     -8.049656    17A     -8.049645    18A     -8.049432
      19A     -8.049431    20A     -8.049418    21A     -8.049417
      22A     -1.235063    23A     -1.175089    24A     -1.175034
      25A     -1.093699    26A     -1.018078    27A     -1.017323
      28A     -0.841067    29A     -0.840180    30A     -0.723104
      31A     -0.699489    32A     -0.643270    33A     -0.614794
      34A     -0.613459    35A     -0.590333    36A     -0.549139
      37A     -0.547806    38A     -0.523014    39A     -0.522705
      40A     -0.478658    41A     -0.478508    42A     -0.464942
      43A     -0.453311    44A     -0.356998    45A     -0.356822

  @DF-RHF Final Energy: -1607.57963585527318

   => Energetics <=

    Nuclear Repulsion Energy =            614.4602586630917358
    One-Electron Energy =               -3436.8177668425646516
    Two-Electron Energy =                1214.7778723241997341
    Total Energy =                      -1607.5796358552731817
  Basis Set: (AUG-CC-PVTZ AUX)
    Blend: AUG-CC-PVTZ-RI
    Molecular point group: c1

    Geometry (in Angstrom), charge = 0, multiplicity = 1:

       Center              X                  Y                   Z               Mass
    ------------   -----------------  -----------------  -----------------  -----------------
         CL          -2.738079924997    -1.488434116582    -0.001096052166    34.968852682000
         CL           0.080014075003     3.115454883418    -0.001200052166    34.968852682000
         CL           2.658065075003    -1.627021116582    -0.001056052166    34.968852682000
         C           -1.213218924997    -0.659515116582    -0.001129052166    12.000000000000
         C            0.035448075003     1.380435883418    -0.001181052166    12.000000000000
         C            1.177769075003    -0.720921116582    -0.001049052166    12.000000000000
         C           -1.200609924997     0.734894883418    -0.001161052166    12.000000000000
         C           -0.036131924997    -1.407203116582    -0.001097052166    12.000000000000
         C            1.236745075003     0.672309883418    -0.001132052166    12.000000000000
         H           -2.125998524997     1.301341883418     0.198856947834     1.007825032230
         H           -0.063988924997    -2.491837116582    -0.001059052166     1.007825032230
         H            2.189997075003     1.190491883418    -0.001124052166     1.007825032230

  Basis Set: AUG-CC-PVTZ
    Blend: AUG-CC-PVTZ
  Basis Set: (AUG-CC-PVTZ AUX)
    Blend: AUG-CC-PVTZ-JKFIT
	 Reference Energy          =   -1607.5796358552731817 [Eh]
	 Singles Energy            =      -0.0000000000000000 [Eh]
	 Same-Spin Energy          =      -0.4513148466676465 [Eh]
	 Opposite-Spin Energy      =      -1.3063425341373596 [Eh]
	 Correlation Energy        =      -1.7576573808050062 [Eh]
	 Total Energy              =   -1609.3372932360782670 [Eh]

	 ================> DF-SCS-MP2 Energies <==================
	-----------------------------------------------------------
	 SCS Same-Spin Scale       =       0.3333333333333333 [-]
	 SCS Opposite-Spin Scale   =       1.2000000000000000 [-]
	 SCS Same-Spin Energy      =      -0.1504382822225488 [Eh]
	 SCS Opposite-Spin Energy  =      -1.5676110409648314 [Eh]
	 SCS Correlation Energy    =      -1.7180493231873801 [Eh]
	 SCS Total Energy          =   -1609.2976851784605969 [Eh]
	-----------------------------------------------------------

  Dipole Moment: [D]
     X:     0.0225      Y:    -0.0137      Z:     0.1268     Total:     0.1295

*** Psi4 exiting successfully. Buy a developer a beer!
