                               Psi4 1.3.2 release

  ==> Input File <==

--------------------------------------------------------------------------
#psi4
#
memory 32 gb

molecule  {
0 1
 Cl       -2.7380800    -1.4884340     0.0000240
 Cl        0.0800140     3.1154550    -0.0000800
 Cl        2.6580650    -1.6270210     0.0000640
  C       -1.2132190    -0.6595150    -0.0000090
  C        0.0354480     1.3804360    -0.0000610
  C        1.1777690    -0.7209210     0.0000710
  C       -1.2006100     0.7348950    -0.0000410
  C       -0.0361320    -1.4072045    -0.0499770
  C        1.2367450     0.6723100    -0.0000120
  H       -2.1260020     1.3013390    -0.0000230
  H       -0.0639890    -2.4918370     0.0000610
  H        2.1899970     1.1904920    -0.0000040
units angstrom
no_reorient  #important for SAPT in psi4, default
symmetry c1  #important for SAPT in psi4, default
}

set PROPERTIES_ORIGIN ["COM"]
properties('MP2/aug-cc-pvtz', properties = ['dipole'])
--------------------------------------------------------------------------

    Molecular point group: c1
  Charge       = 0
  Multiplicity = 1
  Basis Set: AUG-CC-PVTZ
    Blend: AUG-CC-PVTZ
  Basis Set: (AUG-CC-PVTZ AUX)
    Blend: AUG-CC-PVTZ-JKFIT

    Orbital Energies [Eh]
    ---------------------

    Doubly Occupied:

       1A   -104.860766     2A   -104.860713     3A   -104.860713
       4A    -11.334141     5A    -11.334134     6A    -11.334066
       7A    -11.276021     8A    -11.275823     9A    -11.275796
      10A    -10.584571    11A    -10.584520    12A    -10.584520
      13A     -8.051486    14A     -8.051436    15A     -8.051436
      16A     -8.049502    17A     -8.049491    18A     -8.049451
      19A     -8.049451    20A     -8.049441    21A     -8.049440
      22A     -1.234966    23A     -1.175034    24A     -1.175009
      25A     -1.093601    26A     -1.017998    27A     -1.017833
      28A     -0.840971    29A     -0.840775    30A     -0.725090
      31A     -0.699232    32A     -0.643402    33A     -0.614740
      34A     -0.614558    35A     -0.590899    36A     -0.549105
      37A     -0.548948    38A     -0.523022    39A     -0.522903
      40A     -0.478555    41A     -0.478546    42A     -0.464893
      43A     -0.453352    44A     -0.356948    45A     -0.356882

  @DF-RHF Final Energy: -1607.58145517186836

   => Energetics <=

    Nuclear Repulsion Energy =            614.5093213995756969
    One-Electron Energy =               -3436.9131966684899453
    Two-Electron Energy =                1214.8224200970460060
    Total Energy =                      -1607.5814551718683560
  Basis Set: (AUG-CC-PVTZ AUX)
    Blend: AUG-CC-PVTZ-RI
    Molecular point group: c1

    Geometry (in Angstrom), charge = 0, multiplicity = 1:

       Center              X                  Y                   Z               Mass
    ------------   -----------------  -----------------  -----------------  -----------------
         CL          -2.738079905953    -1.488433999739     0.003358818388    34.968852682000
         CL           0.080014094047     3.115455000261     0.003254818388    34.968852682000
         CL           2.658065094047    -1.627020999739     0.003398818388    34.968852682000
         C           -1.213218905953    -0.659514999739     0.003325818388    12.000000000000
         C            0.035448094047     1.380436000261     0.003273818388    12.000000000000
         C            1.177769094047    -0.720920999739     0.003405818388    12.000000000000
         C           -1.200609905953     0.734895000261     0.003293818388    12.000000000000
         C           -0.036131905953    -1.407204499739    -0.046642181612    12.000000000000
         C            1.236745094047     0.672310000261     0.003322818388    12.000000000000
         H           -2.126001905953     1.301339000261     0.003311818388     1.007825032230
         H           -0.063988905953    -2.491836999739     0.003395818388     1.007825032230
         H            2.189997094047     1.190492000261     0.003330818388     1.007825032230

  Basis Set: AUG-CC-PVTZ
    Blend: AUG-CC-PVTZ
  Basis Set: (AUG-CC-PVTZ AUX)
    Blend: AUG-CC-PVTZ-JKFIT
	 Reference Energy          =   -1607.5814551718683560 [Eh]
	 Singles Energy            =      -0.0000000000000000 [Eh]
	 Same-Spin Energy          =      -0.4511923303303743 [Eh]
	 Opposite-Spin Energy      =      -1.3061722864940921 [Eh]
	 Correlation Energy        =      -1.7573646168244665 [Eh]
	 Total Energy              =   -1609.3388197886927173 [Eh]

	 ================> DF-SCS-MP2 Energies <==================
	-----------------------------------------------------------
	 SCS Same-Spin Scale       =       0.3333333333333333 [-]
	 SCS Opposite-Spin Scale   =       1.2000000000000000 [-]
	 SCS Same-Spin Energy      =      -0.1503974434434581 [Eh]
	 SCS Opposite-Spin Energy  =      -1.5674067437929105 [Eh]
	 SCS Correlation Energy    =      -1.7178041872363685 [Eh]
	 SCS Total Energy          =   -1609.2992593591047807 [Eh]
	-----------------------------------------------------------

  Dipole Moment: [D]
     X:     0.0002      Y:     0.0057      Z:     0.0156     Total:     0.0166

*** Psi4 exiting successfully. Buy a developer a beer!
