                               Psi4 1.3.2 release

  ==> Input File <==

--------------------------------------------------------------------------
#psi4
#
memory 32 gb

molecule  {
0 1
 Cl       -2.7380800    -1.4884340     0.0000240
 Cl        0.0800140     3.1154550    -0.0000800
 Cl        2.6580650    -1.6270210     0.0000640
  C       -1.2132190    -0.6595150    -0.0000090
  C        0.0354480     1.3804360    -0.0000610
  C        1.1777690    -0.7209210     0.0000710
  C       -1.2006100     0.7348950    -0.0000410
  C       -0.0361318    -1.4072119    -0.2999770
  C        1.2367450     0.6723100    -0.0000120
  H       -2.1260020     1.3013390    -0.0000230
  H       -0.0639890    -2.4918370     0.0000610
  H        2.1899970     1.1904920    -0.0000040
units angstrom
no_reorient  #important for SAPT in psi4, default
symmetry c1  #important for SAPT in psi4, default
}

set PROPERTIES_ORIGIN ["COM"]
properties('MP2/aug-cc-pvtz', properties = ['dipole'])
--------------------------------------------------------------------------

    Molecular point group: c1
  Charge       = 0
  Multiplicity = 1
  Basis Set: AUG-CC-PVTZ
    Blend: AUG-CC-PVTZ
  Basis Set: (AUG-CC-PVTZ AUX)
    Blend: AUG-CC-PVTZ-JKFIT

    Orbital Energies [Eh]
    ---------------------

    Doubly Occupied:

       1A   -104.863202     2A   -104.861249     3A   -104.861249
       4A    -11.340524     5A    -11.340521     6A    -11.338432
       7A    -11.281816     8A    -11.274912     9A    -11.274887
      10A    -10.586993    11A    -10.585115    12A    -10.585115
      13A     -8.053903    14A     -8.052020    15A     -8.052019
      16A     -8.051921    17A     -8.051896    18A     -8.050044
      19A     -8.050043    20A     -8.050015    21A     -8.050014
      22A     -1.233285    23A     -1.175714    24A     -1.174918
      25A     -1.093213    26A     -1.018516    27A     -1.012231
      28A     -0.840265    29A     -0.833908    30A     -0.717925
      31A     -0.692794    32A     -0.644476    33A     -0.615071
      34A     -0.608844    35A     -0.584056    36A     -0.549982
      37A     -0.543473    38A     -0.523321    39A     -0.519628
      40A     -0.478936    41A     -0.478849    42A     -0.464165
      43A     -0.452738    44A     -0.357758    45A     -0.355237

  @DF-RHF Final Energy: -1607.55504221597880

   => Energetics <=

    Nuclear Repulsion Energy =            613.3918961265975440
    One-Electron Energy =               -3434.6434910363545896
    Two-Electron Energy =                1213.6965526937781306
    Total Energy =                      -1607.5550422159788013
  Basis Set: (AUG-CC-PVTZ AUX)
    Blend: AUG-CC-PVTZ-RI
    Molecular point group: c1

    Geometry (in Angstrom), charge = 0, multiplicity = 1:

       Center              X                  Y                   Z               Mass
    ------------   -----------------  -----------------  -----------------  -----------------
         CL          -2.738079919291    -1.488433506214     0.020031965987    34.968852682000
         CL           0.080014080709     3.115455493786     0.019927965987    34.968852682000
         CL           2.658065080709    -1.627020506214     0.020071965987    34.968852682000
         C           -1.213218919291    -0.659514506214     0.019998965987    12.000000000000
         C            0.035448080709     1.380436493786     0.019946965987    12.000000000000
         C            1.177769080709    -0.720920506214     0.020078965987    12.000000000000
         C           -1.200609919291     0.734895493786     0.019966965987    12.000000000000
         C           -0.036131719291    -1.407211406214    -0.279969034013    12.000000000000
         C            1.236745080709     0.672310493786     0.019995965987    12.000000000000
         H           -2.126001919291     1.301339493786     0.019984965987     1.007825032230
         H           -0.063988919291    -2.491836506214     0.020068965987     1.007825032230
         H            2.189997080709     1.190492493786     0.020003965987     1.007825032230

  Basis Set: AUG-CC-PVTZ
    Blend: AUG-CC-PVTZ
  Basis Set: (AUG-CC-PVTZ AUX)
    Blend: AUG-CC-PVTZ-JKFIT
	 Reference Energy          =   -1607.5550422159788013 [Eh]
	 Singles Energy            =      -0.0000000000000000 [Eh]
	 Same-Spin Energy          =      -0.4526679535826089 [Eh]
	 Opposite-Spin Energy      =      -1.3099978491401498 [Eh]
	 Correlation Energy        =      -1.7626658027227586 [Eh]
	 Total Energy              =   -1609.3177080187015235 [Eh]

	 ================> DF-SCS-MP2 Energies <==================
	-----------------------------------------------------------
	 SCS Same-Spin Scale       =       0.3333333333333333 [-]
	 SCS Opposite-Spin Scale   =       1.2000000000000000 [-]
	 SCS Same-Spin Energy      =      -0.1508893178608696 [Eh]
	 SCS Opposite-Spin Energy  =      -1.5719974189681798 [Eh]
	 SCS Correlation Energy    =      -1.7228867368290495 [Eh]
	 SCS Total Energy          =   -1609.2779289528077697 [Eh]
	-----------------------------------------------------------

  Dipole Moment: [D]
     X:     0.0051      Y:     0.1980      Z:     0.1058     Total:     0.2246

*** Psi4 exiting successfully. Buy a developer a beer!
