                               Psi4 1.3.2 release

  ==> Input File <==

--------------------------------------------------------------------------
#psi4
#
memory 32 gb

molecule  {
0 1
 Cl       -2.7380800    -1.4884340     0.0000240
 Cl        0.0800140     3.1154550    -0.0000800
 Cl        2.6580650    -1.6270210     0.0000640
  C       -1.2132190    -0.6595150    -0.0000090
  C        0.0354480     1.3804360    -0.0000610
  C        1.1777690    -0.7209210     0.0000710
  C       -1.2006100     0.7348950    -0.0000410
  C       -0.0361319    -1.4072089    -0.1999770
  C        1.2367450     0.6723100    -0.0000120
  H       -2.1260020     1.3013390    -0.0000230
  H       -0.0639890    -2.4918370     0.0000610
  H        2.1899970     1.1904920    -0.0000040
units angstrom
no_reorient  #important for SAPT in psi4, default
symmetry c1  #important for SAPT in psi4, default
}

set PROPERTIES_ORIGIN ["COM"]
properties('MP2/aug-cc-pvtz', properties = ['dipole'])
--------------------------------------------------------------------------

    Molecular point group: c1
  Charge       = 0
  Multiplicity = 1
  Basis Set: AUG-CC-PVTZ
    Blend: AUG-CC-PVTZ
  Basis Set: (AUG-CC-PVTZ AUX)
    Blend: AUG-CC-PVTZ-JKFIT

    Orbital Energies [Eh]
    ---------------------

    Doubly Occupied:

       1A   -104.861780     2A   -104.860923     3A   -104.860923
       4A    -11.336953     5A    -11.336947     6A    -11.335904
       7A    -11.278601     8A    -11.275383     9A    -11.275358
      10A    -10.585583    11A    -10.584766    12A    -10.584765
      13A     -8.052497    14A     -8.051677    15A     -8.051677
      16A     -8.050513    17A     -8.050496    18A     -8.049695
      19A     -8.049695    20A     -8.049677    21A     -8.049677
      22A     -1.234178    23A     -1.175316    24A     -1.174953
      25A     -1.093395    26A     -1.018193    27A     -1.015493
      28A     -0.840615    29A     -0.837620    30A     -0.721670
      31A     -0.696451    32A     -0.643819    33A     -0.614860
      34A     -0.612007    35A     -0.587707    36A     -0.549582
      37A     -0.546923    38A     -0.523155    39A     -0.521378
      40A     -0.478716    41A     -0.478612    42A     -0.464664
      43A     -0.453079    44A     -0.357223    45A     -0.356129

  @DF-RHF Final Energy: -1607.57025966725655

   => Energetics <=

    Nuclear Repulsion Energy =            614.0233085216993913
    One-Electron Energy =               -3435.9286858422456135
    Two-Electron Energy =                1214.3351176532894442
    Total Energy =                      -1607.5702596672565505
  Basis Set: (AUG-CC-PVTZ AUX)
    Blend: AUG-CC-PVTZ-RI
    Molecular point group: c1

    Geometry (in Angstrom), charge = 0, multiplicity = 1:

       Center              X                  Y                   Z               Mass
    ------------   -----------------  -----------------  -----------------  -----------------
         CL          -2.738079912622    -1.488433706292     0.013362706947    34.968852682000
         CL           0.080014087378     3.115455293708     0.013258706947    34.968852682000
         CL           2.658065087378    -1.627020706292     0.013402706947    34.968852682000
         C           -1.213218912622    -0.659514706292     0.013329706947    12.000000000000
         C            0.035448087378     1.380436293708     0.013277706947    12.000000000000
         C            1.177769087378    -0.720920706292     0.013409706947    12.000000000000
         C           -1.200609912622     0.734895293708     0.013297706947    12.000000000000
         C           -0.036131812622    -1.407208606292    -0.186638293053    12.000000000000
         C            1.236745087378     0.672310293708     0.013326706947    12.000000000000
         H           -2.126001912622     1.301339293708     0.013315706947     1.007825032230
         H           -0.063988912622    -2.491836706292     0.013399706947     1.007825032230
         H            2.189997087378     1.190492293708     0.013334706947     1.007825032230

  Basis Set: AUG-CC-PVTZ
    Blend: AUG-CC-PVTZ
  Basis Set: (AUG-CC-PVTZ AUX)
    Blend: AUG-CC-PVTZ-JKFIT
	 Reference Energy          =   -1607.5702596672565505 [Eh]
	 Singles Energy            =      -0.0000000000000000 [Eh]
	 Same-Spin Energy          =      -0.4518355198121783 [Eh]
	 Opposite-Spin Energy      =      -1.3077697311047958 [Eh]
	 Correlation Energy        =      -1.7596052509169740 [Eh]
	 Total Energy              =   -1609.3298649181735982 [Eh]

	 ================> DF-SCS-MP2 Energies <==================
	-----------------------------------------------------------
	 SCS Same-Spin Scale       =       0.3333333333333333 [-]
	 SCS Opposite-Spin Scale   =       1.2000000000000000 [-]
	 SCS Same-Spin Energy      =      -0.1506118399373927 [Eh]
	 SCS Opposite-Spin Energy  =      -1.5693236773257548 [Eh]
	 SCS Correlation Energy    =      -1.7199355172631476 [Eh]
	 SCS Total Energy          =   -1609.2901951845196891 [Eh]
	-----------------------------------------------------------

  Dipole Moment: [D]
     X:     0.0023      Y:     0.0895      Z:     0.0661     Total:     0.1113

*** Psi4 exiting successfully. Buy a developer a beer!
