                               Psi4 1.3.2 release

  ==> Input File <==

--------------------------------------------------------------------------
#psi4
#
memory 32 gb

molecule  {
0 1
 Cl       -2.7380800    -1.4884340     0.0000240
 Cl        0.0800140     3.1154550    -0.0000800
 Cl        2.6580650    -1.6270210     0.0000640
  C       -1.2132190    -0.6595150    -0.0000090
  C        0.0354480     1.3804360    -0.0000610
  C        1.1777690    -0.7209210     0.0000710
  C       -1.2006100     0.7348950    -0.0000410
  C       -0.0361320    -1.4072030     0.0000230
  C        1.2367450     0.6723100    -0.0000120
  H       -2.1260020     1.3013390    -0.0000230
  H       -0.0639890    -2.4918370     0.0000610
  H        2.1899970     1.1904920    -0.0000040
units angstrom
no_reorient  #important for SAPT in psi4, default
symmetry c1  #important for SAPT in psi4, default
}

set PROPERTIES_ORIGIN ["COM"]
properties('MP2/aug-cc-pvtz', properties = ['dipole'])
--------------------------------------------------------------------------

    Molecular point group: c1
  Charge       = 0
  Multiplicity = 1
  Basis Set: AUG-CC-PVTZ
    Blend: AUG-CC-PVTZ
  Basis Set: (AUG-CC-PVTZ AUX)
    Blend: AUG-CC-PVTZ-JKFIT

    Orbital Energies [Eh]
    ---------------------

    Doubly Occupied:

       1A   -104.860702     2A   -104.860702     3A   -104.860702
       4A    -11.333957     5A    -11.333946     6A    -11.333946
       7A    -11.275859     8A    -11.275859     9A    -11.275821
      10A    -10.584506    11A    -10.584506    12A    -10.584505
      13A     -8.051422    14A     -8.051422    15A     -8.051421
      16A     -8.049437    17A     -8.049437    18A     -8.049436
      19A     -8.049427    20A     -8.049427    21A     -8.049426
      22A     -1.235025    23A     -1.175018    24A     -1.175016
      25A     -1.093620    26A     -1.017991    27A     -1.017989
      28A     -0.841002    29A     -0.841000    30A     -0.725343
      31A     -0.699422    32A     -0.643380    33A     -0.614736
      34A     -0.614735    35A     -0.591123    36A     -0.549070
      37A     -0.549069    38A     -0.523015    39A     -0.523014
      40A     -0.478547    41A     -0.478547    42A     -0.464907
      43A     -0.453371    44A     -0.356938    45A     -0.356937

  @DF-RHF Final Energy: -1607.58219213802340

   => Energetics <=

    Nuclear Repulsion Energy =            614.5421389064035793
    One-Electron Energy =               -3436.9792950230730639
    Two-Electron Energy =                1214.8549639786460830
    Total Energy =                      -1607.5821921380234016
  Basis Set: (AUG-CC-PVTZ AUX)
    Blend: AUG-CC-PVTZ-RI
    Molecular point group: c1

    Geometry (in Angstrom), charge = 0, multiplicity = 1:

       Center              X                  Y                   Z               Mass
    ------------   -----------------  -----------------  -----------------  -----------------
         CL          -2.738079905953    -1.488434099778     0.000024188869    34.968852682000
         CL           0.080014094047     3.115454900222    -0.000079811131    34.968852682000
         CL           2.658065094047    -1.627021099778     0.000064188869    34.968852682000
         C           -1.213218905953    -0.659515099778    -0.000008811131    12.000000000000
         C            0.035448094047     1.380435900222    -0.000060811131    12.000000000000
         C            1.177769094047    -0.720921099778     0.000071188869    12.000000000000
         C           -1.200609905953     0.734894900222    -0.000040811131    12.000000000000
         C           -0.036131905953    -1.407203099778     0.000023188869    12.000000000000
         C            1.236745094047     0.672309900222    -0.000011811131    12.000000000000
         H           -2.126001905953     1.301338900222    -0.000022811131     1.007825032230
         H           -0.063988905953    -2.491837099778     0.000061188869     1.007825032230
         H            2.189997094047     1.190491900222    -0.000003811131     1.007825032230

  Basis Set: AUG-CC-PVTZ
    Blend: AUG-CC-PVTZ
  Basis Set: (AUG-CC-PVTZ AUX)
    Blend: AUG-CC-PVTZ-JKFIT
	 Reference Energy          =   -1607.5821921380234016 [Eh]
	 Singles Energy            =      -0.0000000000000000 [Eh]
	 Same-Spin Energy          =      -0.4511486530265417 [Eh]
	 Opposite-Spin Energy      =      -1.3060698176945804 [Eh]
	 Correlation Energy        =      -1.7572184707211220 [Eh]
	 Total Energy              =   -1609.3394106087446289 [Eh]

	 ================> DF-SCS-MP2 Energies <==================
	-----------------------------------------------------------
	 SCS Same-Spin Scale       =       0.3333333333333333 [-]
	 SCS Opposite-Spin Scale   =       1.2000000000000000 [-]
	 SCS Same-Spin Energy      =      -0.1503828843421806 [Eh]
	 SCS Opposite-Spin Energy  =      -1.5672837812334965 [Eh]
	 SCS Correlation Energy    =      -1.7176666655756772 [Eh]
	 SCS Total Energy          =   -1609.2998588035991361 [Eh]
	-----------------------------------------------------------

  Dipole Moment: [D]
     X:     0.0000      Y:     0.0000      Z:     0.0000     Total:     0.0000

*** Psi4 exiting successfully. Buy a developer a beer!
