                               Psi4 1.3.2 release

  ==> Input File <==

--------------------------------------------------------------------------
#psi4
#
memory 32 gb

molecule  {
0 1
 Cl       -2.7380800    -1.4884340     0.0000240
 Cl        0.0800140     3.1154550    -0.0000800
 Cl        2.6580650    -1.6270210     0.0000640
  C       -1.2132190    -0.6595150    -0.0000090
  C        0.0354480     1.3804360    -0.0000610
  C        1.1777690    -0.7209210     0.0000710
  C       -1.2006100     0.7348950    -0.0000410
  C       -0.0361320    -1.4072030     0.0000230
  C        1.2367450     0.6723100    -0.0000120
  H       -2.1259969     1.3013435     0.2999770
  H       -0.0639890    -2.4918370     0.0000610
  H        2.1899970     1.1904920    -0.0000040
units angstrom
no_reorient  #important for SAPT in psi4, default
symmetry c1  #important for SAPT in psi4, default
}

set PROPERTIES_ORIGIN ["COM"]
properties('MP2/aug-cc-pvtz', properties = ['dipole'])
--------------------------------------------------------------------------

    Molecular point group: c1
  Charge       = 0
  Multiplicity = 1
  Basis Set: AUG-CC-PVTZ
    Blend: AUG-CC-PVTZ
  Basis Set: (AUG-CC-PVTZ AUX)
    Blend: AUG-CC-PVTZ-JKFIT

    Orbital Energies [Eh]
    ---------------------

    Doubly Occupied:

       1A   -104.861192     2A   -104.860681     3A   -104.860681
       4A    -11.334730     5A    -11.334514     6A    -11.334506
       7A    -11.278724     8A    -11.275958     9A    -11.275932
      10A    -10.584994    11A    -10.584491    12A    -10.584491
      13A     -8.051909    14A     -8.051405    15A     -8.051405
      16A     -8.049925    17A     -8.049912    18A     -8.049422
      19A     -8.049422    20A     -8.049405    21A     -8.049405
      22A     -1.235116    23A     -1.175182    24A     -1.175057
      25A     -1.093797    26A     -1.018191    27A     -1.016565
      28A     -0.841152    29A     -0.839280    30A     -0.720574
      31A     -0.699578    32A     -0.643150    33A     -0.614870
      34A     -0.611953    35A     -0.589386    36A     -0.549228
      37A     -0.546137    38A     -0.523013    39A     -0.522249
      40A     -0.478797    41A     -0.478460    42A     -0.464985
      43A     -0.453240    44A     -0.357077    45A     -0.356693

  @DF-RHF Final Energy: -1607.57607121836668

   => Energetics <=

    Nuclear Repulsion Energy =            614.3615794527217986
    One-Electron Energy =               -3436.6216355534352260
    Two-Electron Energy =                1214.6839848823467491
    Total Energy =                      -1607.5760712183666783
  Basis Set: (AUG-CC-PVTZ AUX)
    Blend: AUG-CC-PVTZ-RI
    Molecular point group: c1

    Geometry (in Angstrom), charge = 0, multiplicity = 1:

       Center              X                  Y                   Z               Mass
    ------------   -----------------  -----------------  -----------------  -----------------
         CL          -2.738079934519    -1.488434124983    -0.001656172683    34.968852682000
         CL           0.080014065481     3.115454875017    -0.001760172683    34.968852682000
         CL           2.658065065481    -1.627021124983    -0.001616172683    34.968852682000
         C           -1.213218934519    -0.659515124983    -0.001689172683    12.000000000000
         C            0.035448065481     1.380435875017    -0.001741172683    12.000000000000
         C            1.177769065481    -0.720921124983    -0.001609172683    12.000000000000
         C           -1.200609934519     0.734894875017    -0.001721172683    12.000000000000
         C           -0.036131934519    -1.407203124983    -0.001657172683    12.000000000000
         C            1.236745065481     0.672309875017    -0.001692172683    12.000000000000
         H           -2.125996834519     1.301343375017     0.298296827317     1.007825032230
         H           -0.063988934519    -2.491837124983    -0.001619172683     1.007825032230
         H            2.189997065481     1.190491875017    -0.001684172683     1.007825032230

  Basis Set: AUG-CC-PVTZ
    Blend: AUG-CC-PVTZ
  Basis Set: (AUG-CC-PVTZ AUX)
    Blend: AUG-CC-PVTZ-JKFIT
	 Reference Energy          =   -1607.5760712183666783 [Eh]
	 Singles Energy            =      -0.0000000000000000 [Eh]
	 Same-Spin Energy          =      -0.4515196209376203 [Eh]
	 Opposite-Spin Energy      =      -1.3067282956790036 [Eh]
	 Correlation Energy        =      -1.7582479166166238 [Eh]
	 Total Energy              =   -1609.3343191349833887 [Eh]

	 ================> DF-SCS-MP2 Energies <==================
	-----------------------------------------------------------
	 SCS Same-Spin Scale       =       0.3333333333333333 [-]
	 SCS Opposite-Spin Scale   =       1.2000000000000000 [-]
	 SCS Same-Spin Energy      =      -0.1505065403125401 [Eh]
	 SCS Opposite-Spin Energy  =      -1.5680739548148044 [Eh]
	 SCS Correlation Energy    =      -1.7185804951273445 [Eh]
	 SCS Total Energy          =   -1609.2946517134939768 [Eh]
	-----------------------------------------------------------

  Dipole Moment: [D]
     X:     0.0496      Y:    -0.0304      Z:     0.1889     Total:     0.1977

*** Psi4 exiting successfully. Buy a developer a beer!
