                               Psi4 1.3.2 release

  ==> Input File <==

--------------------------------------------------------------------------
#psi4
#
memory 32 gb

molecule  {
0 1
 Cl       -2.7380800    -1.4884340     0.0000240
 Cl        0.0800140     3.1154550    -0.0000800
 Cl        2.6580650    -1.6270210     0.0000640
  C       -1.2132190    -0.6595150    -0.0000090
  C        0.0354480     1.3804360    -0.0000610
  C        1.1777690    -0.7209210     0.0000710
  C       -1.2006100     0.7348950    -0.0000410
  C       -0.0361320    -1.4072030     0.0000230
  C        1.2367450     0.6723100    -0.0000120
  H       -2.1259977     1.3013428     0.2499770
  H       -0.0639890    -2.4918370     0.0000610
  H        2.1899970     1.1904920    -0.0000040
units angstrom
no_reorient  #important for SAPT in psi4, default
symmetry c1  #important for SAPT in psi4, default
}

set PROPERTIES_ORIGIN ["COM"]
properties('MP2/aug-cc-pvtz', properties = ['dipole'])
--------------------------------------------------------------------------

    Molecular point group: c1
  Charge       = 0
  Multiplicity = 1
  Basis Set: AUG-CC-PVTZ
    Blend: AUG-CC-PVTZ
  Basis Set: (AUG-CC-PVTZ AUX)
    Blend: AUG-CC-PVTZ-JKFIT

    Orbital Energies [Eh]
    ---------------------

    Doubly Occupied:

       1A   -104.861044     2A   -104.860688     3A   -104.860688
       4A    -11.334496     5A    -11.334342     6A    -11.334335
       7A    -11.277865     8A    -11.275925     9A    -11.275900
      10A    -10.584847    11A    -10.584496    12A    -10.584496
      13A     -8.051763    14A     -8.051411    15A     -8.051410
      16A     -8.049778    17A     -8.049766    18A     -8.049428
      19A     -8.049427    20A     -8.049412    21A     -8.049412
      22A     -1.235086    23A     -1.175131    24A     -1.175045
      25A     -1.093743    26A     -1.018129    27A     -1.016972
      28A     -0.841105    29A     -0.839759    30A     -0.721930
      31A     -0.699528    32A     -0.643214    33A     -0.614827
      34A     -0.612768    35A     -0.589901    36A     -0.549178
      37A     -0.547067    38A     -0.523013    39A     -0.522511
      40A     -0.478721    41A     -0.478486    42A     -0.464961
      43A     -0.453278    44A     -0.357033    45A     -0.356761

  @DF-RHF Final Energy: -1607.57807770483964

   => Energetics <=

    Nuclear Repulsion Energy =            614.4153677580516160
    One-Electron Energy =               -3436.7287352773832936
    Two-Electron Energy =                1214.7352898144920346
    Total Energy =                      -1607.5780777048396430
  Basis Set: (AUG-CC-PVTZ AUX)
    Blend: AUG-CC-PVTZ-RI
    Molecular point group: c1

    Geometry (in Angstrom), charge = 0, multiplicity = 1:

       Center              X                  Y                   Z               Mass
    ------------   -----------------  -----------------  -----------------  -----------------
         CL          -2.738079930038    -1.488434121063    -0.001376112424    34.968852682000
         CL           0.080014069962     3.115454878937    -0.001480112424    34.968852682000
         CL           2.658065069962    -1.627021121063    -0.001336112424    34.968852682000
         C           -1.213218930038    -0.659515121063    -0.001409112424    12.000000000000
         C            0.035448069962     1.380435878937    -0.001461112424    12.000000000000
         C            1.177769069962    -0.720921121063    -0.001329112424    12.000000000000
         C           -1.200609930038     0.734894878937    -0.001441112424    12.000000000000
         C           -0.036131930038    -1.407203121063    -0.001377112424    12.000000000000
         C            1.236745069962     0.672309878937    -0.001412112424    12.000000000000
         H           -2.125997630038     1.301342678937     0.248576887576     1.007825032230
         H           -0.063988930038    -2.491837121063    -0.001339112424     1.007825032230
         H            2.189997069962     1.190491878937    -0.001404112424     1.007825032230

  Basis Set: AUG-CC-PVTZ
    Blend: AUG-CC-PVTZ
  Basis Set: (AUG-CC-PVTZ AUX)
    Blend: AUG-CC-PVTZ-JKFIT
	 Reference Energy          =   -1607.5780777048396430 [Eh]
	 Singles Energy            =      -0.0000000000000000 [Eh]
	 Same-Spin Energy          =      -0.4514075934964668 [Eh]
	 Opposite-Spin Energy      =      -1.3065115378375425 [Eh]
	 Correlation Energy        =      -1.7579191313340092 [Eh]
	 Total Energy              =   -1609.3359968361737629 [Eh]

	 ================> DF-SCS-MP2 Energies <==================
	-----------------------------------------------------------
	 SCS Same-Spin Scale       =       0.3333333333333333 [-]
	 SCS Opposite-Spin Scale   =       1.2000000000000000 [-]
	 SCS Same-Spin Energy      =      -0.1504691978321556 [Eh]
	 SCS Opposite-Spin Energy  =      -1.5678138454050510 [Eh]
	 SCS Correlation Energy    =      -1.7182830432372065 [Eh]
	 SCS Total Energy          =   -1609.2963607480769497 [Eh]
	-----------------------------------------------------------

  Dipole Moment: [D]
     X:     0.0348      Y:    -0.0213      Z:     0.1580     Total:     0.1632

*** Psi4 exiting successfully. Buy a developer a beer!
