                               Psi4 1.3.2 release

  ==> Input File <==

--------------------------------------------------------------------------
#psi4
#
memory 32 gb

molecule  {
0 1
 Cl       -2.7380800    -1.4884340     0.0000240
 Cl        0.0800140     3.1154550    -0.0000800
 Cl        2.6580650    -1.6270210     0.0000640
  C       -1.2132190    -0.6595150    -0.0000090
  C        0.0354480     1.3804360    -0.0000610
  C        1.1777690    -0.7209210     0.0000710
  C       -1.2006100     0.7348950    -0.0000410
  C       -0.0361320    -1.4072030     0.0000230
  C        1.2367450     0.6723100    -0.0000120
  H       -2.1260003     1.3013405     0.0999770
  H       -0.0639890    -2.4918370     0.0000610
  H        2.1899970     1.1904920    -0.0000040
units angstrom
no_reorient  #important for SAPT in psi4, default
symmetry c1  #important for SAPT in psi4, default
}

set PROPERTIES_ORIGIN ["COM"]
properties('MP2/aug-cc-pvtz', properties = ['dipole'])
--------------------------------------------------------------------------

    Molecular point group: c1
  Charge       = 0
  Multiplicity = 1
  Basis Set: AUG-CC-PVTZ
    Blend: AUG-CC-PVTZ
  Basis Set: (AUG-CC-PVTZ AUX)
    Blend: AUG-CC-PVTZ-JKFIT

    Orbital Energies [Eh]
    ---------------------

    Doubly Occupied:

       1A   -104.860758     2A   -104.860700     3A   -104.860700
       4A    -11.334039     5A    -11.334014     6A    -11.334008
       7A    -11.276176     8A    -11.275869     9A    -11.275842
      10A    -10.584561    11A    -10.584505    12A    -10.584504
      13A     -8.051477    14A     -8.051420    15A     -8.051420
      16A     -8.049492    17A     -8.049482    18A     -8.049436
      19A     -8.049435    20A     -8.049425    21A     -8.049424
      22A     -1.235034    23A     -1.175035    24A     -1.175021
      25A     -1.093640    26A     -1.018011    27A     -1.017818
      28A     -0.841018    29A     -0.840786    30A     -0.724764
      31A     -0.699439    32A     -0.643351    33A     -0.614750
      34A     -0.614411    35A     -0.590923    36A     -0.549087
      37A     -0.548760    38A     -0.523014    39A     -0.522941
      40A     -0.478575    41A     -0.478537    42A     -0.464916
      43A     -0.453356    44A     -0.356952    45A     -0.356908

  @DF-RHF Final Energy: -1607.58158071845855

   => Energetics <=

    Nuclear Repulsion Energy =            614.5214114675723067
    One-Electron Energy =               -3436.9385140358513127
    Two-Electron Energy =                1214.8355218498204522
    Total Energy =                      -1607.5815807184585537
  Basis Set: (AUG-CC-PVTZ AUX)
    Blend: AUG-CC-PVTZ-RI
    Molecular point group: c1

    Geometry (in Angstrom), charge = 0, multiplicity = 1:

       Center              X                  Y                   Z               Mass
    ------------   -----------------  -----------------  -----------------  -----------------
         CL          -2.738079915475    -1.488434108180    -0.000535931649    34.968852682000
         CL           0.080014084525     3.115454891820    -0.000639931649    34.968852682000
         CL           2.658065084525    -1.627021108180    -0.000495931649    34.968852682000
         C           -1.213218915475    -0.659515108180    -0.000568931649    12.000000000000
         C            0.035448084525     1.380435891820    -0.000620931649    12.000000000000
         C            1.177769084525    -0.720921108180    -0.000488931649    12.000000000000
         C           -1.200609915475     0.734894891820    -0.000600931649    12.000000000000
         C           -0.036131915475    -1.407203108180    -0.000536931649    12.000000000000
         C            1.236745084525     0.672309891820    -0.000571931649    12.000000000000
         H           -2.126000215475     1.301340391820     0.099417068351     1.007825032230
         H           -0.063988915475    -2.491837108180    -0.000498931649     1.007825032230
         H            2.189997084525     1.190491891820    -0.000563931649     1.007825032230

  Basis Set: AUG-CC-PVTZ
    Blend: AUG-CC-PVTZ
  Basis Set: (AUG-CC-PVTZ AUX)
    Blend: AUG-CC-PVTZ-JKFIT
	 Reference Energy          =   -1607.5815807184585537 [Eh]
	 Singles Energy            =      -0.0000000000000000 [Eh]
	 Same-Spin Energy          =      -0.4511902120024628 [Eh]
	 Opposite-Spin Energy      =      -1.3061336779935464 [Eh]
	 Correlation Energy        =      -1.7573238899960093 [Eh]
	 Total Energy              =   -1609.3389046084546408 [Eh]

	 ================> DF-SCS-MP2 Energies <==================
	-----------------------------------------------------------
	 SCS Same-Spin Scale       =       0.3333333333333333 [-]
	 SCS Opposite-Spin Scale   =       1.2000000000000000 [-]
	 SCS Same-Spin Energy      =      -0.1503967373341543 [Eh]
	 SCS Opposite-Spin Energy  =      -1.5673604135922556 [Eh]
	 SCS Correlation Energy    =      -1.7177571509264098 [Eh]
	 SCS Total Energy          =   -1609.2993378693849991 [Eh]
	-----------------------------------------------------------

  Dipole Moment: [D]
     X:     0.0057      Y:    -0.0035      Z:     0.0637     Total:     0.0641

*** Psi4 exiting successfully. Buy a developer a beer!
