                               Psi4 1.3.2 release

  ==> Input File <==

--------------------------------------------------------------------------
#psi4
#
memory 32 gb

molecule  {
0 1
 Cl       -2.7380800    -1.4884340     0.0000240
 Cl        0.0800140     3.1154550    -0.0000800
 Cl        2.6580650    -1.6270210     0.0000640
  C       -1.2132190    -0.6595150    -0.0000090
  C        0.0354480     1.3804360    -0.0000610
  C        1.1777690    -0.7209210     0.0000710
  C       -1.2006100     0.7348950    -0.0000410
  C       -0.0361320    -1.4072030     0.0000230
  C        1.2367450     0.6723100    -0.0000120
  H       -2.1260011     1.3013398     0.0499770
  H       -0.0639890    -2.4918370     0.0000610
  H        2.1899970     1.1904920    -0.0000040
units angstrom
no_reorient  #important for SAPT in psi4, default
symmetry c1  #important for SAPT in psi4, default
}

set PROPERTIES_ORIGIN ["COM"]
properties('MP2/aug-cc-pvtz', properties = ['dipole'])
--------------------------------------------------------------------------

    Molecular point group: c1
  Charge       = 0
  Multiplicity = 1
  Basis Set: AUG-CC-PVTZ
    Blend: AUG-CC-PVTZ
  Basis Set: (AUG-CC-PVTZ AUX)
    Blend: AUG-CC-PVTZ-JKFIT

    Orbital Energies [Eh]
    ---------------------

    Doubly Occupied:

       1A   -104.860716     2A   -104.860702     3A   -104.860702
       4A    -11.333975     5A    -11.333965     6A    -11.333962
       7A    -11.275932     8A    -11.275862     9A    -11.275833
      10A    -10.584520    11A    -10.584506    12A    -10.584505
      13A     -8.051436    14A     -8.051421    15A     -8.051421
      16A     -8.049451    17A     -8.049441    18A     -8.049437
      19A     -8.049436    20A     -8.049426    21A     -8.049426
      22A     -1.235027    23A     -1.175022    24A     -1.175018
      25A     -1.093625    26A     -1.017995    27A     -1.017947
      28A     -0.841006    29A     -0.840946    30A     -0.725197
      31A     -0.699426    32A     -0.643372    33A     -0.614739
      34A     -0.614655    35A     -0.591072    36A     -0.549074
      37A     -0.548993    38A     -0.523014    39A     -0.522996
      40A     -0.478554    41A     -0.478545    42A     -0.464909
      43A     -0.453367    44A     -0.356941    45A     -0.356930

  @DF-RHF Final Energy: -1607.58204104003516

   => Energetics <=

    Nuclear Repulsion Energy =            614.5369405750817577
    One-Electron Energy =               -3436.9690743937053412
    Two-Electron Energy =                1214.8500927785885324
    Total Energy =                      -1607.5820410400351648
  Basis Set: (AUG-CC-PVTZ AUX)
    Blend: AUG-CC-PVTZ-RI
    Molecular point group: c1

    Geometry (in Angstrom), charge = 0, multiplicity = 1:

       Center              X                  Y                   Z               Mass
    ------------   -----------------  -----------------  -----------------  -----------------
         CL          -2.738079910994    -1.488434104259    -0.000255871390    34.968852682000
         CL           0.080014089006     3.115454895741    -0.000359871390    34.968852682000
         CL           2.658065089006    -1.627021104259    -0.000215871390    34.968852682000
         C           -1.213218910994    -0.659515104259    -0.000288871390    12.000000000000
         C            0.035448089006     1.380435895741    -0.000340871390    12.000000000000
         C            1.177769089006    -0.720921104259    -0.000208871390    12.000000000000
         C           -1.200609910994     0.734894895741    -0.000320871390    12.000000000000
         C           -0.036131910994    -1.407203104259    -0.000256871390    12.000000000000
         C            1.236745089006     0.672309895741    -0.000291871390    12.000000000000
         H           -2.126001010994     1.301339695741     0.049697128610     1.007825032230
         H           -0.063988910994    -2.491837104259    -0.000218871390     1.007825032230
         H            2.189997089006     1.190491895741    -0.000283871390     1.007825032230

  Basis Set: AUG-CC-PVTZ
    Blend: AUG-CC-PVTZ
  Basis Set: (AUG-CC-PVTZ AUX)
    Blend: AUG-CC-PVTZ-JKFIT
	 Reference Energy          =   -1607.5820410400351648 [Eh]
	 Singles Energy            =      -0.0000000000000000 [Eh]
	 Same-Spin Energy          =      -0.4511590360755847 [Eh]
	 Opposite-Spin Energy      =      -1.3060854508603734 [Eh]
	 Correlation Energy        =      -1.7572444869359582 [Eh]
	 Total Energy              =   -1609.3392855269710253 [Eh]

	 ================> DF-SCS-MP2 Energies <==================
	-----------------------------------------------------------
	 SCS Same-Spin Scale       =       0.3333333333333333 [-]
	 SCS Opposite-Spin Scale   =       1.2000000000000000 [-]
	 SCS Same-Spin Energy      =      -0.1503863453585282 [Eh]
	 SCS Opposite-Spin Energy  =      -1.5673025410324481 [Eh]
	 SCS Correlation Energy    =      -1.7176888863909765 [Eh]
	 SCS Total Energy          =   -1609.2997299264261528 [Eh]
	-----------------------------------------------------------

  Dipole Moment: [D]
     X:     0.0014      Y:    -0.0009      Z:     0.0319     Total:     0.0319

*** Psi4 exiting successfully. Buy a developer a beer!
