                               Psi4 1.3.2 release

  ==> Input File <==

--------------------------------------------------------------------------
#psi4
#
memory 32 gb

molecule  {
0 1
 Cl       -2.7380800    -1.4884340     0.0000240
 Cl        0.0800140     3.1154550    -0.0000800
 Cl        2.6580650    -1.6270210     0.0000640
  C       -1.2132190    -0.6595150    -0.0000090
  C        0.0354480     1.3804360    -0.0000610
  C        1.1777690    -0.7209210     0.0000710
  C       -1.2006100     0.7348950    -0.0000410
  C       -0.0361319    -1.4072060    -0.0999770
  C        1.2367450     0.6723100    -0.0000120
  H       -2.1260020     1.3013390    -0.0000230
  H       -0.0639890    -2.4918370     0.0000610
  H        2.1899970     1.1904920    -0.0000040
units angstrom
no_reorient  #important for SAPT in psi4, default
symmetry c1  #important for SAPT in psi4, default
}

set PROPERTIES_ORIGIN ["COM"]
properties('MP2/aug-cc-pvtz', properties = ['dipole'])
--------------------------------------------------------------------------

    Molecular point group: c1
  Charge       = 0
  Multiplicity = 1
  Basis Set: AUG-CC-PVTZ
    Blend: AUG-CC-PVTZ
  Basis Set: (AUG-CC-PVTZ AUX)
    Blend: AUG-CC-PVTZ-JKFIT

    Orbital Energies [Eh]
    ---------------------

    Doubly Occupied:

       1A   -104.860962     2A   -104.860749     3A   -104.860749
       4A    -11.334708     5A    -11.334701     6A    -11.334425
       7A    -11.276544     8A    -11.275724     9A    -11.275698
      10A    -10.584768    11A    -10.584566    12A    -10.584566
      13A     -8.051683    14A     -8.051481    15A     -8.051481
      16A     -8.049699    17A     -8.049687    18A     -8.049496
      19A     -8.049496    20A     -8.049485    21A     -8.049484
      22A     -1.234797    23A     -1.175087    24A     -1.174993
      25A     -1.093552    26A     -1.018030    27A     -1.017369
      28A     -0.840889    29A     -0.840114    30A     -0.724357
      31A     -0.698670    32A     -0.643477    33A     -0.614758
      34A     -0.614036    35A     -0.590233    36A     -0.549212
      37A     -0.548576    38A     -0.523046    39A     -0.522579
      40A     -0.478584    41A     -0.478550    42A     -0.464853
      43A     -0.453295    44A     -0.356990    45A     -0.356722

  @DF-RHF Final Energy: -1607.57923613947241

   => Energetics <=

    Nuclear Repulsion Energy =            614.4112259119988266
    One-Electron Energy =               -3436.7150866252241030
    Two-Electron Energy =                1214.7246245737528625
    Total Energy =                      -1607.5792361394724139
  Basis Set: (AUG-CC-PVTZ AUX)
    Blend: AUG-CC-PVTZ-RI
    Molecular point group: c1

    Geometry (in Angstrom), charge = 0, multiplicity = 1:

       Center              X                  Y                   Z               Mass
    ------------   -----------------  -----------------  -----------------  -----------------
         CL          -2.738079912622    -1.488433899700     0.006693447908    34.968852682000
         CL           0.080014087378     3.115455100300     0.006589447908    34.968852682000
         CL           2.658065087378    -1.627020899700     0.006733447908    34.968852682000
         C           -1.213218912622    -0.659514899700     0.006660447908    12.000000000000
         C            0.035448087378     1.380436100300     0.006608447908    12.000000000000
         C            1.177769087378    -0.720920899700     0.006740447908    12.000000000000
         C           -1.200609912622     0.734895100300     0.006628447908    12.000000000000
         C           -0.036131812622    -1.407205899700    -0.093307552092    12.000000000000
         C            1.236745087378     0.672310100300     0.006657447908    12.000000000000
         H           -2.126001912622     1.301339100300     0.006646447908     1.007825032230
         H           -0.063988912622    -2.491836899700     0.006730447908     1.007825032230
         H            2.189997087378     1.190492100300     0.006665447908     1.007825032230

  Basis Set: AUG-CC-PVTZ
    Blend: AUG-CC-PVTZ
  Basis Set: (AUG-CC-PVTZ AUX)
    Blend: AUG-CC-PVTZ-JKFIT
	 Reference Energy          =   -1607.5792361394724139 [Eh]
	 Singles Energy            =      -0.0000000000000000 [Eh]
	 Same-Spin Energy          =      -0.4513219325716930 [Eh]
	 Opposite-Spin Energy      =      -1.3064819567217063 [Eh]
	 Correlation Energy        =      -1.7578038892933994 [Eh]
	 Total Energy              =   -1609.3370400287658413 [Eh]

	 ================> DF-SCS-MP2 Energies <==================
	-----------------------------------------------------------
	 SCS Same-Spin Scale       =       0.3333333333333333 [-]
	 SCS Opposite-Spin Scale   =       1.2000000000000000 [-]
	 SCS Same-Spin Energy      =      -0.1504406441905643 [Eh]
	 SCS Opposite-Spin Energy  =      -1.5677783480660474 [Eh]
	 SCS Correlation Energy    =      -1.7182189922566118 [Eh]
	 SCS Total Energy          =   -1609.2974551317290661 [Eh]
	-----------------------------------------------------------

  Dipole Moment: [D]
     X:     0.0006      Y:     0.0227      Z:     0.0314     Total:     0.0387

*** Psi4 exiting successfully. Buy a developer a beer!
