                               Psi4 1.3.2 release

  ==> Input File <==

--------------------------------------------------------------------------
#psi4
#
memory 32 gb

molecule  {
0 1
 Cl       -2.7380800    -1.4884340     0.0000240
 Cl        0.0800140     3.1154550    -0.0000800
 Cl        2.6580650    -1.6270210     0.0000640
  C       -1.2132190    -0.6595150    -0.0000090
  C        0.0354480     1.3804360    -0.0000610
  C        1.1777690    -0.7209210     0.0000710
  C       -1.2006100     0.7348950    -0.0000410
  C       -0.0361320    -1.4072030     0.0000230
  C        1.2367450     0.6723100    -0.0000120
  H       -2.1259994     1.3013413     0.1499770
  H       -0.0639890    -2.4918370     0.0000610
  H        2.1899970     1.1904920    -0.0000040
units angstrom
no_reorient  #important for SAPT in psi4, default
symmetry c1  #important for SAPT in psi4, default
}

set PROPERTIES_ORIGIN ["COM"]
properties('MP2/aug-cc-pvtz', properties = ['dipole'])
--------------------------------------------------------------------------

    Molecular point group: c1
  Charge       = 0
  Multiplicity = 1
  Basis Set: AUG-CC-PVTZ
    Blend: AUG-CC-PVTZ
  Basis Set: (AUG-CC-PVTZ AUX)
    Blend: AUG-CC-PVTZ-JKFIT

    Orbital Energies [Eh]
    ---------------------

    Doubly Occupied:

       1A   -104.860826     2A   -104.860697     3A   -104.860697
       4A    -11.334149     5A    -11.334093     6A    -11.334086
       7A    -11.276583     8A    -11.275882     9A    -11.275855
      10A    -10.584630    11A    -10.584503    12A    -10.584502
      13A     -8.051546    14A     -8.051418    15A     -8.051418
      16A     -8.049561    17A     -8.049550    18A     -8.049434
      19A     -8.049434    20A     -8.049422    21A     -8.049421
      22A     -1.235046    23A     -1.175058    24A     -1.175027
      25A     -1.093664    26A     -1.018039    27A     -1.017608
      28A     -0.841038    29A     -0.840527    30A     -0.724059
      31A     -0.699459    32A     -0.643317    33A     -0.614768
      34A     -0.614011    35A     -0.590675    36A     -0.549108
      37A     -0.548368    38A     -0.523014    39A     -0.522846
      40A     -0.478610    41A     -0.478525    42A     -0.464927
      43A     -0.453337    44A     -0.356971    45A     -0.356871

  @DF-RHF Final Energy: -1607.58078993936147

   => Energetics <=

    Nuclear Repulsion Energy =            614.4957463505680835
    One-Electron Energy =               -3436.8879147726215706
    Two-Electron Energy =                1214.8113784826921346
    Total Energy =                      -1607.5807899393614662
  Basis Set: (AUG-CC-PVTZ AUX)
    Blend: AUG-CC-PVTZ-RI
    Molecular point group: c1

    Geometry (in Angstrom), charge = 0, multiplicity = 1:

       Center              X                  Y                   Z               Mass
    ------------   -----------------  -----------------  -----------------  -----------------
         CL          -2.738079920516    -1.488434112661    -0.000815991907    34.968852682000
         CL           0.080014079484     3.115454887339    -0.000919991907    34.968852682000
         CL           2.658065079484    -1.627021112661    -0.000775991907    34.968852682000
         C           -1.213218920516    -0.659515112661    -0.000848991907    12.000000000000
         C            0.035448079484     1.380435887339    -0.000900991907    12.000000000000
         C            1.177769079484    -0.720921112661    -0.000768991907    12.000000000000
         C           -1.200609920516     0.734894887339    -0.000880991907    12.000000000000
         C           -0.036131920516    -1.407203112661    -0.000816991907    12.000000000000
         C            1.236745079484     0.672309887339    -0.000851991907    12.000000000000
         H           -2.125999320516     1.301341187339     0.149137008093     1.007825032230
         H           -0.063988920516    -2.491837112661    -0.000778991907     1.007825032230
         H            2.189997079484     1.190491887339    -0.000843991907     1.007825032230

  Basis Set: AUG-CC-PVTZ
    Blend: AUG-CC-PVTZ
  Basis Set: (AUG-CC-PVTZ AUX)
    Blend: AUG-CC-PVTZ-JKFIT
	 Reference Energy          =   -1607.5807899393614662 [Eh]
	 Singles Energy            =      -0.0000000000000000 [Eh]
	 Same-Spin Energy          =      -0.4512422129031055 [Eh]
	 Opposite-Spin Energy      =      -1.3062179441316351 [Eh]
	 Correlation Energy        =      -1.7574601570347406 [Eh]
	 Total Energy              =   -1609.3382500963962229 [Eh]

	 ================> DF-SCS-MP2 Energies <==================
	-----------------------------------------------------------
	 SCS Same-Spin Scale       =       0.3333333333333333 [-]
	 SCS Opposite-Spin Scale   =       1.2000000000000000 [-]
	 SCS Same-Spin Energy      =      -0.1504140709677018 [Eh]
	 SCS Opposite-Spin Energy  =      -1.5674615329579620 [Eh]
	 SCS Correlation Energy    =      -1.7178756039256637 [Eh]
	 SCS Total Energy          =   -1609.2986655432871430 [Eh]
	-----------------------------------------------------------

  Dipole Moment: [D]
     X:     0.0127      Y:    -0.0078      Z:     0.0954     Total:     0.0965

*** Psi4 exiting successfully. Buy a developer a beer!
