                               Psi4 1.3.2 release

  ==> Input File <==

--------------------------------------------------------------------------
#psi4
#
memory 32 gb

molecule  {
0 1
 Cl       -2.7380800    -1.4884340     0.0000240
 Cl        0.0800140     3.1154550    -0.0000800
 Cl        2.6580650    -1.6270210     0.0000640
  C       -1.2132190    -0.6595150    -0.0000090
  C        0.0354480     1.3804360    -0.0000610
  C        1.1777690    -0.7209210     0.0000710
  C       -1.2006100     0.7348950    -0.0000410
  C       -0.0361319    -1.4072074    -0.1499770
  C        1.2367450     0.6723100    -0.0000120
  H       -2.1260020     1.3013390    -0.0000230
  H       -0.0639890    -2.4918370     0.0000610
  H        2.1899970     1.1904920    -0.0000040
units angstrom
no_reorient  #important for SAPT in psi4, default
symmetry c1  #important for SAPT in psi4, default
}

set PROPERTIES_ORIGIN ["COM"]
properties('MP2/aug-cc-pvtz', properties = ['dipole'])
--------------------------------------------------------------------------

    Molecular point group: c1
  Charge       = 0
  Multiplicity = 1
  Basis Set: AUG-CC-PVTZ
    Blend: AUG-CC-PVTZ
  Basis Set: (AUG-CC-PVTZ AUX)
    Blend: AUG-CC-PVTZ-JKFIT

    Orbital Energies [Eh]
    ---------------------

    Doubly Occupied:

       1A   -104.861298     2A   -104.860818     3A   -104.860818
       4A    -11.335651     5A    -11.335645     6A    -11.335036
       7A    -11.277411     8A    -11.275575     9A    -11.275549
      10A    -10.585104    11A    -10.584647    12A    -10.584647
      13A     -8.052019    14A     -8.051561    15A     -8.051561
      16A     -8.050034    17A     -8.050020    18A     -8.049577
      19A     -8.049577    20A     -8.049563    21A     -8.049562
      22A     -1.234530    23A     -1.175180    24A     -1.174973
      25A     -1.093481    26A     -1.018094    27A     -1.016594
      28A     -0.840767    29A     -0.839048    30A     -0.723193
      31A     -0.697742    32A     -0.643613    33A     -0.614797
      34A     -0.613180    35A     -0.589153    36A     -0.549379
      37A     -0.547923    38A     -0.523091    39A     -0.522062
      40A     -0.478638    41A     -0.478567    42A     -0.464782
      43A     -0.453203    44A     -0.357078    45A     -0.356468

  @DF-RHF Final Energy: -1607.57551346950345

   => Energetics <=

    Nuclear Repulsion Energy =            614.2487408794777366
    One-Electron Energy =               -3436.3860903916070129
    Two-Electron Energy =                1214.5618360426258278
    Total Energy =                      -1607.5755134695034485
  Basis Set: (AUG-CC-PVTZ AUX)
    Blend: AUG-CC-PVTZ-RI
    Molecular point group: c1

    Geometry (in Angstrom), charge = 0, multiplicity = 1:

       Center              X                  Y                   Z               Mass
    ------------   -----------------  -----------------  -----------------  -----------------
         CL          -2.738079912622    -1.488433806331     0.010028077428    34.968852682000
         CL           0.080014087378     3.115455193669     0.009924077428    34.968852682000
         CL           2.658065087378    -1.627020806331     0.010068077428    34.968852682000
         C           -1.213218912622    -0.659514806331     0.009995077428    12.000000000000
         C            0.035448087378     1.380436193669     0.009943077428    12.000000000000
         C            1.177769087378    -0.720920806331     0.010075077428    12.000000000000
         C           -1.200609912622     0.734895193669     0.009963077428    12.000000000000
         C           -0.036131812622    -1.407207206331    -0.139972922572    12.000000000000
         C            1.236745087378     0.672310193669     0.009992077428    12.000000000000
         H           -2.126001912622     1.301339193669     0.009981077428     1.007825032230
         H           -0.063988912622    -2.491836806331     0.010065077428     1.007825032230
         H            2.189997087378     1.190492193669     0.010000077428     1.007825032230

  Basis Set: AUG-CC-PVTZ
    Blend: AUG-CC-PVTZ
  Basis Set: (AUG-CC-PVTZ AUX)
    Blend: AUG-CC-PVTZ-JKFIT
	 Reference Energy          =   -1607.5755134695034485 [Eh]
	 Singles Energy            =      -0.0000000000000000 [Eh]
	 Same-Spin Energy          =      -0.4515366407304010 [Eh]
	 Opposite-Spin Energy      =      -1.3070098606702936 [Eh]
	 Correlation Energy        =      -1.7585465014006945 [Eh]
	 Total Energy              =   -1609.3340599709040362 [Eh]

	 ================> DF-SCS-MP2 Energies <==================
	-----------------------------------------------------------
	 SCS Same-Spin Scale       =       0.3333333333333333 [-]
	 SCS Opposite-Spin Scale   =       1.2000000000000000 [-]
	 SCS Same-Spin Energy      =      -0.1505122135768003 [Eh]
	 SCS Opposite-Spin Energy  =      -1.5684118328043521 [Eh]
	 SCS Correlation Energy    =      -1.7189240463811524 [Eh]
	 SCS Total Energy          =   -1609.2944375158845105 [Eh]
	-----------------------------------------------------------

  Dipole Moment: [D]
     X:     0.0013      Y:     0.0507      Z:     0.0481     Total:     0.0699

*** Psi4 exiting successfully. Buy a developer a beer!
