                               Psi4 1.4a2.dev612

  ==> Input File <==

--------------------------------------------------------------------------
#psi4
#
memory 32 gb

molecule  {
0 1
  O       -2.7848290    -0.9154220    -0.7447340
  C       -2.7698910    -0.0438090     0.3861860
  C       -1.3446020     0.1937550     0.7721520
  C        3.5873700    -0.2293000     0.2222030
  C       -3.4755630     1.2700040     0.0649850
  C       -0.2802220    -0.2946410     0.1124460
  C        2.1660230    -0.5131760    -0.1475910
  C        1.0922740    -0.0266840     0.5021560
  C        4.3244450     0.5343730    -0.8803810
  H       -3.2865450    -0.5271910     1.2335890
  H       -1.1970340     0.8260370     1.6487790
  H        3.6131550     0.3461180     1.1547940
  H        4.1142490    -1.1721620     0.4188690
  H       -2.9813020     1.7413150    -0.7875330
  H       -4.5277090     1.0956620    -0.1864690
  H       -3.4435650     1.9541860     0.9176610
  H       -0.4454086    -0.7655236    -0.8740822
  H        2.0063450    -1.1440610    -1.0244550
  H        1.2471430     0.6066220     1.3780870
  H        4.3142870    -0.0291260    -1.8177910
  H        5.3679410     0.7151030    -0.6066950
  H        3.8442820     1.4990380    -1.0633910
  H       -3.7175750    -1.0591810    -0.9792530
units angstrom
no_reorient  #important for SAPT in psi4, default
symmetry c1  #important for SAPT in psi4, default
}

set PROPERTIES_ORIGIN ["COM"]
properties('MP2/aug-cc-pvtz', properties = ['dipole'])
--------------------------------------------------------------------------

    Molecular point group: c1
  Charge       = 0
  Multiplicity = 1
  Basis Set: AUG-CC-PVTZ
    Blend: AUG-CC-PVTZ
  Basis Set: (AUG-CC-PVTZ AUX)
    Blend: AUG-CC-PVTZ-JKFIT

    Orbital Energies [Eh]
    ---------------------

    Doubly Occupied:

       1A    -20.558657     2A    -11.286633     3A    -11.225820
       4A    -11.224851     5A    -11.223237     6A    -11.223035
       7A    -11.222677     8A    -11.220923     9A    -11.212894
      10A     -1.360728    11A     -1.097628    12A     -1.061388
      13A     -1.016062    14A     -0.962479    15A     -0.876710
      16A     -0.828670    17A     -0.752428    18A     -0.745889
      19A     -0.695072    20A     -0.636021    21A     -0.627253
      22A     -0.617730    23A     -0.590656    24A     -0.582745
      25A     -0.546849    26A     -0.543073    27A     -0.527317
      28A     -0.518197    29A     -0.500856    30A     -0.492058
      31A     -0.479104    32A     -0.468402    33A     -0.452509
      34A     -0.416554    35A     -0.297541

  @DF-RHF Final Energy:  -386.05991514712662

   => Energetics <=

    Nuclear Repulsion Energy =            418.2221628667835489
    One-Electron Energy =               -1352.3788593114620653
    Two-Electron Energy =                 548.0967812975519564
    Total Energy =                       -386.0599151471266168
  Basis Set: (AUG-CC-PVTZ AUX)
    Blend: AUG-CC-PVTZ-RI
    Molecular point group: c1

    Geometry (in Angstrom), charge = 0, multiplicity = 1:

       Center              X                  Y                   Z               Mass
    ------------   -----------------  -----------------  -----------------  -----------------
         O           -2.784841502604    -0.916714446668    -0.743793706538    15.994914619570
         C           -2.769903502604    -0.045101446668     0.387126293462    12.000000000000
         C           -1.344614502604     0.192462553332     0.773092293462    12.000000000000
         C            3.587357497396    -0.230592446668     0.223143293462    12.000000000000
         C           -3.475575502604     1.268711553332     0.065925293462    12.000000000000
         C           -0.280234502604    -0.295933446668     0.113386293462    12.000000000000
         C            2.166010497396    -0.514468446668    -0.146650706538    12.000000000000
         C            1.092261497396    -0.027976446668     0.503096293462    12.000000000000
         C            4.324432497396     0.533080553332    -0.879440706538    12.000000000000
         H           -3.286557502604    -0.528483446668     1.234529293462     1.007825032230
         H           -1.197046502604     0.824744553332     1.649719293462     1.007825032230
         H            3.613142497396     0.344825553332     1.155734293462     1.007825032230
         H            4.114236497396    -1.173454446668     0.419809293462     1.007825032230
         H           -2.981314502604     1.740022553332    -0.786592706538     1.007825032230
         H           -4.527721502604     1.094369553332    -0.185528706538     1.007825032230
         H           -3.443577502604     1.952893553332     0.918601293462     1.007825032230
         H           -0.445421102604    -0.766816046668    -0.873141906538     1.007825032230
         H            2.006332497396    -1.145353446668    -1.023514706538     1.007825032230
         H            1.247130497396     0.605329553332     1.379027293462     1.007825032230
         H            4.314274497396    -0.030418446668    -1.816850706538     1.007825032230
         H            5.367928497396     0.713810553332    -0.605754706538     1.007825032230
         H            3.844269497396     1.497745553332    -1.062450706538     1.007825032230
         H           -3.717587502604    -1.060473446668    -0.978312706538     1.007825032230

  Basis Set: AUG-CC-PVTZ
    Blend: AUG-CC-PVTZ
  Basis Set: (AUG-CC-PVTZ AUX)
    Blend: AUG-CC-PVTZ-JKFIT
	 Reference Energy          =    -386.0599151471266168 [Eh]
	 Singles Energy            =      -0.0000000000000000 [Eh]
	 Same-Spin Energy          =      -0.4004746233381723 [Eh]
	 Opposite-Spin Energy      =      -1.3785994142967746 [Eh]
	 Correlation Energy        =      -1.7790740376349468 [Eh]
	 Total Energy              =    -387.8389891847615445 [Eh]

	 ================> DF-SCS-MP2 Energies <==================
	-----------------------------------------------------------
	 SCS Same-Spin Scale       =       0.3333333333333333 [-]
	 SCS Opposite-Spin Scale   =       1.2000000000000000 [-]
	 SCS Same-Spin Energy      =      -0.1334915411127241 [Eh]
	 SCS Opposite-Spin Energy  =      -1.6543192971561294 [Eh]
	 SCS Correlation Energy    =      -1.7878108382688533 [Eh]
	 SCS Total Energy          =    -387.8477259853954706 [Eh]
	-----------------------------------------------------------

  Dipole Moment: [D]
     X:    -1.1653      Y:     0.7495      Z:     0.5197     Total:     1.4798

*** Psi4 exiting successfully. Buy a developer a beer!
