                               Psi4 1.4a2.dev612

  ==> Input File <==

--------------------------------------------------------------------------
#psi4
#
memory 32 gb

molecule  {
0 1
  O       -2.7848290    -0.9154220    -0.7447340
  C       -2.7698910    -0.0438090     0.3861860
  C       -1.3446020     0.1937550     0.7721520
  C        3.5873700    -0.2293000     0.2222030
  C       -3.4755630     1.2700040     0.0649850
  C       -0.2802220    -0.2946410     0.1124460
  C        2.1660230    -0.5131760    -0.1475910
  C        1.0922740    -0.0266840     0.5021560
  C        4.3244450     0.5343730    -0.8803810
  H       -3.2865450    -0.5271910     1.2335890
  H       -1.1970340     0.8260370     1.6487790
  H        3.6131550     0.3461180     1.1547940
  H        4.1142490    -1.1721620     0.4188690
  H       -2.9813020     1.7413150    -0.7875330
  H       -4.5277090     1.0956620    -0.1864690
  H       -3.4435650     1.9541860     0.9176610
  H       -0.4470010    -0.9272420    -0.7564190
  H        2.0064244    -1.2247327    -0.9653612
  H        1.2471430     0.6066220     1.3780870
  H        4.3142870    -0.0291260    -1.8177910
  H        5.3679410     0.7151030    -0.6066950
  H        3.8442820     1.4990380    -1.0633910
  H       -3.7175750    -1.0591810    -0.9792530
units angstrom
no_reorient  #important for SAPT in psi4, default
symmetry c1  #important for SAPT in psi4, default
}

set PROPERTIES_ORIGIN ["COM"]
properties('MP2/aug-cc-pvtz', properties = ['dipole'])
--------------------------------------------------------------------------

    Molecular point group: c1
  Charge       = 0
  Multiplicity = 1
  Basis Set: AUG-CC-PVTZ
    Blend: AUG-CC-PVTZ
  Basis Set: (AUG-CC-PVTZ AUX)
    Blend: AUG-CC-PVTZ-JKFIT

    Orbital Energies [Eh]
    ---------------------

    Doubly Occupied:

       1A    -20.558775     2A    -11.286527     3A    -11.226240
       4A    -11.223780     5A    -11.223260     6A    -11.223086
       7A    -11.221854     8A    -11.220643     9A    -11.212587
      10A     -1.360816    11A     -1.097783    12A     -1.061247
      13A     -1.016110    14A     -0.962478    15A     -0.876718
      16A     -0.828556    17A     -0.751557    18A     -0.748082
      19A     -0.695222    20A     -0.637202    21A     -0.627803
      22A     -0.617426    23A     -0.590589    24A     -0.582210
      25A     -0.546565    26A     -0.543818    27A     -0.527448
      28A     -0.518723    29A     -0.500737    30A     -0.492620
      31A     -0.478051    32A     -0.467769    33A     -0.452936
      34A     -0.418236    35A     -0.297485

  @DF-RHF Final Energy:  -386.06201453410006

   => Energetics <=

    Nuclear Repulsion Energy =            418.2298185223762630
    One-Electron Energy =               -1352.3937901995466291
    Two-Electron Energy =                 548.1019571430703081
    Total Energy =                       -386.0620145341000580
  Basis Set: (AUG-CC-PVTZ AUX)
    Blend: AUG-CC-PVTZ-RI
    Molecular point group: c1

    Geometry (in Angstrom), charge = 0, multiplicity = 1:

       Center              X                  Y                   Z               Mass
    ------------   -----------------  -----------------  -----------------  -----------------
         O           -2.784829410730    -0.914777268550    -0.745206345885    15.994914619570
         C           -2.769891410730    -0.043164268550     0.385713654115    12.000000000000
         C           -1.344602410730     0.194399731450     0.771679654115    12.000000000000
         C            3.587369589270    -0.228655268550     0.221730654115    12.000000000000
         C           -3.475563410730     1.270648731450     0.064512654115    12.000000000000
         C           -0.280222410730    -0.293996268550     0.111973654115    12.000000000000
         C            2.166022589270    -0.512531268550    -0.148063345885    12.000000000000
         C            1.092273589270    -0.026039268550     0.501683654115    12.000000000000
         C            4.324444589270     0.535017731450    -0.880853345885    12.000000000000
         H           -3.286545410730    -0.526546268550     1.233116654115     1.007825032230
         H           -1.197034410730     0.826681731450     1.648306654115     1.007825032230
         H            3.613154589270     0.346762731450     1.154321654115     1.007825032230
         H            4.114248589270    -1.171517268550     0.418396654115     1.007825032230
         H           -2.981302410730     1.741959731450    -0.788005345885     1.007825032230
         H           -4.527709410730     1.096306731450    -0.186941345885     1.007825032230
         H           -3.443565410730     1.954830731450     0.917188654115     1.007825032230
         H           -0.447001410730    -0.926597268550    -0.756891345885     1.007825032230
         H            2.006423989270    -1.224087968550    -0.965833545885     1.007825032230
         H            1.247142589270     0.607266731450     1.377614654115     1.007825032230
         H            4.314286589270    -0.028481268550    -1.818263345885     1.007825032230
         H            5.367940589270     0.715747731450    -0.607167345885     1.007825032230
         H            3.844281589270     1.499682731450    -1.063863345885     1.007825032230
         H           -3.717575410730    -1.058536268550    -0.979725345885     1.007825032230

  Basis Set: AUG-CC-PVTZ
    Blend: AUG-CC-PVTZ
  Basis Set: (AUG-CC-PVTZ AUX)
    Blend: AUG-CC-PVTZ-JKFIT
	 Reference Energy          =    -386.0620145341000580 [Eh]
	 Singles Energy            =      -0.0000000000000000 [Eh]
	 Same-Spin Energy          =      -0.4003668596447451 [Eh]
	 Opposite-Spin Energy      =      -1.3783774286466279 [Eh]
	 Correlation Energy        =      -1.7787442882913731 [Eh]
	 Total Energy              =    -387.8407588223914217 [Eh]

	 ================> DF-SCS-MP2 Energies <==================
	-----------------------------------------------------------
	 SCS Same-Spin Scale       =       0.3333333333333333 [-]
	 SCS Opposite-Spin Scale   =       1.2000000000000000 [-]
	 SCS Same-Spin Energy      =      -0.1334556198815817 [Eh]
	 SCS Opposite-Spin Energy  =      -1.6540529143759535 [Eh]
	 SCS Correlation Energy    =      -1.7875085342575352 [Eh]
	 SCS Total Energy          =    -387.8495230683575983 [Eh]
	-----------------------------------------------------------

  Dipole Moment: [D]
     X:    -1.1722      Y:     0.5935      Z:     0.6168     Total:     1.4514

*** Psi4 exiting successfully. Buy a developer a beer!
