                               Psi4 1.4a2.dev612

  ==> Input File <==

--------------------------------------------------------------------------
#psi4
#
memory 32 gb

molecule  {
0 1
  O       -2.7848290    -0.9154220    -0.7447340
  C       -2.7698910    -0.0438090     0.3861860
  C       -1.3446020     0.1937550     0.7721520
  C        3.5873700    -0.2293000     0.2222030
  C       -3.4755630     1.2700040     0.0649850
  C       -0.2802220    -0.2946410     0.1124460
  C        2.1660230    -0.5131760    -0.1475910
  C        1.0922740    -0.0266840     0.5021560
  C        4.3244450     0.5343730    -0.8803810
  H       -3.2865450    -0.5271910     1.2335890
  H       -1.1997149     0.7041144     1.7361156
  H        3.6131550     0.3461180     1.1547940
  H        4.1142490    -1.1721620     0.4188690
  H       -2.9813020     1.7413150    -0.7875330
  H       -4.5277090     1.0956620    -0.1864690
  H       -3.4435650     1.9541860     0.9176610
  H       -0.4470010    -0.9272420    -0.7564190
  H        2.0063450    -1.1440610    -1.0244550
  H        1.2471430     0.6066220     1.3780870
  H        4.3142870    -0.0291260    -1.8177910
  H        5.3679410     0.7151030    -0.6066950
  H        3.8442820     1.4990380    -1.0633910
  H       -3.7175750    -1.0591810    -0.9792530
units angstrom
no_reorient  #important for SAPT in psi4, default
symmetry c1  #important for SAPT in psi4, default
}

set PROPERTIES_ORIGIN ["COM"]
properties('MP2/aug-cc-pvtz', properties = ['dipole'])
--------------------------------------------------------------------------

    Molecular point group: c1
  Charge       = 0
  Multiplicity = 1
  Basis Set: AUG-CC-PVTZ
    Blend: AUG-CC-PVTZ
  Basis Set: (AUG-CC-PVTZ AUX)
    Blend: AUG-CC-PVTZ-JKFIT

    Orbital Energies [Eh]
    ---------------------

    Doubly Occupied:

       1A    -20.558596     2A    -11.286365     3A    -11.226153
       4A    -11.224198     5A    -11.223432     6A    -11.223227
       7A    -11.222325     8A    -11.220179     9A    -11.212912
      10A     -1.360683    11A     -1.097853    12A     -1.061094
      13A     -1.016027    14A     -0.962490    15A     -0.876754
      16A     -0.828607    17A     -0.752402    18A     -0.746372
      19A     -0.695364    20A     -0.637313    21A     -0.626516
      22A     -0.617527    23A     -0.590862    24A     -0.582408
      25A     -0.546145    26A     -0.544056    27A     -0.526557
      28A     -0.519190    29A     -0.499962    30A     -0.492387
      31A     -0.479233    32A     -0.467669    33A     -0.452482
      34A     -0.418203    35A     -0.297505

  @DF-RHF Final Energy:  -386.06128179951781

   => Energetics <=

    Nuclear Repulsion Energy =            418.1938469989744362
    One-Electron Energy =               -1352.3241593122552331
    Two-Electron Energy =                 548.0690305137629821
    Total Energy =                       -386.0612817995178148
  Basis Set: (AUG-CC-PVTZ AUX)
    Blend: AUG-CC-PVTZ-RI
    Molecular point group: c1

    Geometry (in Angstrom), charge = 0, multiplicity = 1:

       Center              X                  Y                   Z               Mass
    ------------   -----------------  -----------------  -----------------  -----------------
         O           -2.784807350453    -0.914447591963    -0.745432061928    15.994914619570
         C           -2.769869350453    -0.042834591963     0.385487938072    12.000000000000
         C           -1.344580350453     0.194729408037     0.771453938072    12.000000000000
         C            3.587391649547    -0.228325591963     0.221504938072    12.000000000000
         C           -3.475541350453     1.270978408037     0.064286938072    12.000000000000
         C           -0.280200350453    -0.293666591963     0.111747938072    12.000000000000
         C            2.166044649547    -0.512201591963    -0.148289061928    12.000000000000
         C            1.092295649547    -0.025709591963     0.501457938072    12.000000000000
         C            4.324466649547     0.535347408037    -0.881079061928    12.000000000000
         H           -3.286523350453    -0.526216591963     1.232890938072     1.007825032230
         H           -1.199693250453     0.705088808037     1.735417538072     1.007825032230
         H            3.613176649547     0.347092408037     1.154095938072     1.007825032230
         H            4.114270649547    -1.171187591963     0.418170938072     1.007825032230
         H           -2.981280350453     1.742289408037    -0.788231061928     1.007825032230
         H           -4.527687350453     1.096636408037    -0.187167061928     1.007825032230
         H           -3.443543350453     1.955160408037     0.916962938072     1.007825032230
         H           -0.446979350453    -0.926267591963    -0.757117061928     1.007825032230
         H            2.006366649547    -1.143086591963    -1.025153061928     1.007825032230
         H            1.247164649547     0.607596408037     1.377388938072     1.007825032230
         H            4.314308649547    -0.028151591963    -1.818489061928     1.007825032230
         H            5.367962649547     0.716077408037    -0.607393061928     1.007825032230
         H            3.844303649547     1.500012408037    -1.064089061928     1.007825032230
         H           -3.717553350453    -1.058206591963    -0.979951061928     1.007825032230

  Basis Set: AUG-CC-PVTZ
    Blend: AUG-CC-PVTZ
  Basis Set: (AUG-CC-PVTZ AUX)
    Blend: AUG-CC-PVTZ-JKFIT
	 Reference Energy          =    -386.0612817995178148 [Eh]
	 Singles Energy            =      -0.0000000000000000 [Eh]
	 Same-Spin Energy          =      -0.4004069822101474 [Eh]
	 Opposite-Spin Energy      =      -1.3785071167868246 [Eh]
	 Correlation Energy        =      -1.7789140989969718 [Eh]
	 Total Energy              =    -387.8401958985147644 [Eh]

	 ================> DF-SCS-MP2 Energies <==================
	-----------------------------------------------------------
	 SCS Same-Spin Scale       =       0.3333333333333333 [-]
	 SCS Opposite-Spin Scale   =       1.2000000000000000 [-]
	 SCS Same-Spin Energy      =      -0.1334689940700491 [Eh]
	 SCS Opposite-Spin Energy  =      -1.6542085401441895 [Eh]
	 SCS Correlation Energy    =      -1.7876775342142386 [Eh]
	 SCS Total Energy          =    -387.8489593337320684 [Eh]
	-----------------------------------------------------------

  Dipole Moment: [D]
     X:    -1.1450      Y:     0.5602      Z:     0.6231     Total:     1.4188

*** Psi4 exiting successfully. Buy a developer a beer!
