                               Psi4 1.4a2.dev612

  ==> Input File <==

--------------------------------------------------------------------------
#psi4
#
memory 32 gb

molecule  {
0 1
  O       -2.7848290    -0.9154220    -0.7447340
  C       -2.7698910    -0.0438090     0.3861860
  C       -1.3446020     0.1937550     0.7721520
  C        3.5873700    -0.2293000     0.2222030
  C       -3.4755630     1.2700040     0.0649850
  C       -0.2802220    -0.2946410     0.1124460
  C        2.1660230    -0.5131760    -0.1475910
  C        1.0922740    -0.0266840     0.5021560
  C        4.3244450     0.5343730    -0.8803810
  H       -3.2865450    -0.5271910     1.2335890
  H       -1.1970340     0.8260370     1.6487790
  H        3.6131550     0.3461180     1.1547940
  H        4.1142490    -1.1721620     0.4188690
  H       -2.9813020     1.7413150    -0.7875330
  H       -4.5277090     1.0956620    -0.1864690
  H       -3.4435650     1.9541860     0.9176610
  H       -0.4458067    -0.8059532    -0.8446664
  H        2.0063450    -1.1440610    -1.0244550
  H        1.2471430     0.6066220     1.3780870
  H        4.3142870    -0.0291260    -1.8177910
  H        5.3679410     0.7151030    -0.6066950
  H        3.8442820     1.4990380    -1.0633910
  H       -3.7175750    -1.0591810    -0.9792530
units angstrom
no_reorient  #important for SAPT in psi4, default
symmetry c1  #important for SAPT in psi4, default
}

set PROPERTIES_ORIGIN ["COM"]
properties('MP2/aug-cc-pvtz', properties = ['dipole'])
--------------------------------------------------------------------------

    Molecular point group: c1
  Charge       = 0
  Multiplicity = 1
  Basis Set: AUG-CC-PVTZ
    Blend: AUG-CC-PVTZ
  Basis Set: (AUG-CC-PVTZ AUX)
    Blend: AUG-CC-PVTZ-JKFIT

    Orbital Energies [Eh]
    ---------------------

    Doubly Occupied:

       1A    -20.558687     2A    -11.286559     3A    -11.225862
       4A    -11.224265     5A    -11.223246     6A    -11.223018
       7A    -11.222332     8A    -11.220820     9A    -11.212898
      10A     -1.360746    11A     -1.097711    12A     -1.061363
      13A     -1.016093    14A     -0.962477    15A     -0.876712
      16A     -0.828671    17A     -0.752440    18A     -0.746804
      19A     -0.695116    20A     -0.636547    21A     -0.627310
      22A     -0.617641    23A     -0.590627    24A     -0.582791
      25A     -0.546779    26A     -0.543200    27A     -0.527313
      28A     -0.518396    29A     -0.500998    30A     -0.492195
      31A     -0.479123    32A     -0.468270    33A     -0.452635
      34A     -0.417284    35A     -0.297510

  @DF-RHF Final Energy:  -386.06112807358147

   => Energetics <=

    Nuclear Repulsion Energy =            418.2487288538067105
    One-Electron Energy =               -1352.4308314486502240
    Two-Electron Energy =                 548.1209745212620419
    Total Energy =                       -386.0611280735814717
  Basis Set: (AUG-CC-PVTZ AUX)
    Blend: AUG-CC-PVTZ-RI
    Molecular point group: c1

    Geometry (in Angstrom), charge = 0, multiplicity = 1:

       Center              X                  Y                   Z               Mass
    ------------   -----------------  -----------------  -----------------  -----------------
         O           -2.784838320995    -0.916391333899    -0.744028797179    15.994914619570
         C           -2.769900320995    -0.044778333899     0.386891202821    12.000000000000
         C           -1.344611320995     0.192785666101     0.772857202821    12.000000000000
         C            3.587360679005    -0.230269333899     0.222908202821    12.000000000000
         C           -3.475572320995     1.269034666101     0.065690202821    12.000000000000
         C           -0.280231320995    -0.295610333899     0.113151202821    12.000000000000
         C            2.166013679005    -0.514145333899    -0.146885797179    12.000000000000
         C            1.092264679005    -0.027653333899     0.502861202821    12.000000000000
         C            4.324435679005     0.533403666101    -0.879675797179    12.000000000000
         H           -3.286554320995    -0.528160333899     1.234294202821     1.007825032230
         H           -1.197043320995     0.825067666101     1.649484202821     1.007825032230
         H            3.613145679005     0.345148666101     1.155499202821     1.007825032230
         H            4.114239679005    -1.173131333899     0.419574202821     1.007825032230
         H           -2.981311320995     1.740345666101    -0.786827797179     1.007825032230
         H           -4.527718320995     1.094692666101    -0.185763797179     1.007825032230
         H           -3.443574320995     1.953216666101     0.918366202821     1.007825032230
         H           -0.445816020995    -0.806922533899    -0.843961197179     1.007825032230
         H            2.006335679005    -1.145030333899    -1.023749797179     1.007825032230
         H            1.247133679005     0.605652666101     1.378792202821     1.007825032230
         H            4.314277679005    -0.030095333899    -1.817085797179     1.007825032230
         H            5.367931679005     0.714133666101    -0.605989797179     1.007825032230
         H            3.844272679005     1.498068666101    -1.062685797179     1.007825032230
         H           -3.717584320995    -1.060150333899    -0.978547797179     1.007825032230

  Basis Set: AUG-CC-PVTZ
    Blend: AUG-CC-PVTZ
  Basis Set: (AUG-CC-PVTZ AUX)
    Blend: AUG-CC-PVTZ-JKFIT
	 Reference Energy          =    -386.0611280735814717 [Eh]
	 Singles Energy            =      -0.0000000000000000 [Eh]
	 Same-Spin Energy          =      -0.4004149118240879 [Eh]
	 Opposite-Spin Energy      =      -1.3784563848861644 [Eh]
	 Correlation Energy        =      -1.7788712967102525 [Eh]
	 Total Energy              =    -387.8399993702917072 [Eh]

	 ================> DF-SCS-MP2 Energies <==================
	-----------------------------------------------------------
	 SCS Same-Spin Scale       =       0.3333333333333333 [-]
	 SCS Opposite-Spin Scale   =       1.2000000000000000 [-]
	 SCS Same-Spin Energy      =      -0.1334716372746960 [Eh]
	 SCS Opposite-Spin Energy  =      -1.6541476618633972 [Eh]
	 SCS Correlation Energy    =      -1.7876192991380933 [Eh]
	 SCS Total Energy          =    -387.8487473727195720 [Eh]
	-----------------------------------------------------------

  Dipole Moment: [D]
     X:    -1.1631      Y:     0.7211      Z:     0.5316     Total:     1.4681

*** Psi4 exiting successfully. Buy a developer a beer!
