                               Psi4 1.4a2.dev612

  ==> Input File <==

--------------------------------------------------------------------------
#psi4
#
memory 32 gb

molecule  {
0 1
  O       -2.7848290    -0.9154220    -0.7447340
  C       -2.7698910    -0.0438090     0.3861860
  C       -1.3446020     0.1937550     0.7721520
  C        3.5873700    -0.2293000     0.2222030
  C       -3.4755630     1.2700040     0.0649850
  C       -0.2802220    -0.2946410     0.1124460
  C        2.1660230    -0.5131760    -0.1475910
  C        1.0922740    -0.0266840     0.5021560
  C        4.3244450     0.5343730    -0.8803810
  H       -3.2865450    -0.5271910     1.2335890
  H       -1.2006085     0.6634735     1.7652278
  H        3.6131550     0.3461180     1.1547940
  H        4.1142490    -1.1721620     0.4188690
  H       -2.9813020     1.7413150    -0.7875330
  H       -4.5277090     1.0956620    -0.1864690
  H       -3.4435650     1.9541860     0.9176610
  H       -0.4470010    -0.9272420    -0.7564190
  H        2.0063450    -1.1440610    -1.0244550
  H        1.2471430     0.6066220     1.3780870
  H        4.3142870    -0.0291260    -1.8177910
  H        5.3679410     0.7151030    -0.6066950
  H        3.8442820     1.4990380    -1.0633910
  H       -3.7175750    -1.0591810    -0.9792530
units angstrom
no_reorient  #important for SAPT in psi4, default
symmetry c1  #important for SAPT in psi4, default
}

set PROPERTIES_ORIGIN ["COM"]
properties('MP2/aug-cc-pvtz', properties = ['dipole'])
--------------------------------------------------------------------------

    Molecular point group: c1
  Charge       = 0
  Multiplicity = 1
  Basis Set: AUG-CC-PVTZ
    Blend: AUG-CC-PVTZ
  Basis Set: (AUG-CC-PVTZ AUX)
    Blend: AUG-CC-PVTZ-JKFIT

    Orbital Energies [Eh]
    ---------------------

    Doubly Occupied:

       1A    -20.558541     2A    -11.286301     3A    -11.226333
       4A    -11.224721     5A    -11.223583     6A    -11.223379
       7A    -11.222694     8A    -11.219988     9A    -11.212973
      10A     -1.360650    11A     -1.097897    12A     -1.060986
      13A     -1.016016    14A     -0.962482    15A     -0.876776
      16A     -0.828635    17A     -0.752465    18A     -0.745189
      19A     -0.695400    20A     -0.637340    21A     -0.626197
      22A     -0.617585    23A     -0.590946    24A     -0.582124
      25A     -0.545887    26A     -0.544127    27A     -0.526303
      28A     -0.519251    29A     -0.499556    30A     -0.492390
      31A     -0.479317    32A     -0.467641    33A     -0.452169
      34A     -0.418146    35A     -0.297541

  @DF-RHF Final Energy:  -386.06019597315225

   => Energetics <=

    Nuclear Repulsion Energy =            418.1509098216870370
    One-Electron Energy =               -1352.2391540544385862
    Two-Electron Energy =                 548.0280482595992453
    Total Energy =                       -386.0601959731523038
  Basis Set: (AUG-CC-PVTZ AUX)
    Blend: AUG-CC-PVTZ-RI
    Molecular point group: c1

    Geometry (in Angstrom), charge = 0, multiplicity = 1:

       Center              X                  Y                   Z               Mass
    ------------   -----------------  -----------------  -----------------  -----------------
         O           -2.784800208815    -0.914122790487    -0.745664726202    15.994914619570
         C           -2.769862208815    -0.042509790487     0.385255273798    12.000000000000
         C           -1.344573208815     0.195054209513     0.771221273798    12.000000000000
         C            3.587398791185    -0.228000790487     0.221272273798    12.000000000000
         C           -3.475534208815     1.271303209513     0.064054273798    12.000000000000
         C           -0.280193208815    -0.293341790487     0.111515273798    12.000000000000
         C            2.166051791185    -0.511876790487    -0.148521726202    12.000000000000
         C            1.092302791185    -0.025384790487     0.501225273798    12.000000000000
         C            4.324473791185     0.535672209513    -0.881311726202    12.000000000000
         H           -3.286516208815    -0.525891790487     1.232658273798     1.007825032230
         H           -1.200579708815     0.664772709513     1.764297073798     1.007825032230
         H            3.613183791185     0.347417209513     1.153863273798     1.007825032230
         H            4.114277791185    -1.170862790487     0.417938273798     1.007825032230
         H           -2.981273208815     1.742614209513    -0.788463726202     1.007825032230
         H           -4.527680208815     1.096961209513    -0.187399726202     1.007825032230
         H           -3.443536208815     1.955485209513     0.916730273798     1.007825032230
         H           -0.446972208815    -0.925942790487    -0.757349726202     1.007825032230
         H            2.006373791185    -1.142761790487    -1.025385726202     1.007825032230
         H            1.247171791185     0.607921209513     1.377156273798     1.007825032230
         H            4.314315791185    -0.027826790487    -1.818721726202     1.007825032230
         H            5.367969791185     0.716402209513    -0.607625726202     1.007825032230
         H            3.844310791185     1.500337209513    -1.064321726202     1.007825032230
         H           -3.717546208815    -1.057881790487    -0.980183726202     1.007825032230

  Basis Set: AUG-CC-PVTZ
    Blend: AUG-CC-PVTZ
  Basis Set: (AUG-CC-PVTZ AUX)
    Blend: AUG-CC-PVTZ-JKFIT
	 Reference Energy          =    -386.0601959731522470 [Eh]
	 Singles Energy            =      -0.0000000000000000 [Eh]
	 Same-Spin Energy          =      -0.4004584561741819 [Eh]
	 Opposite-Spin Energy      =      -1.3786489007323934 [Eh]
	 Correlation Energy        =      -1.7791073569065752 [Eh]
	 Total Energy              =    -387.8393033300588399 [Eh]

	 ================> DF-SCS-MP2 Energies <==================
	-----------------------------------------------------------
	 SCS Same-Spin Scale       =       0.3333333333333333 [-]
	 SCS Opposite-Spin Scale   =       1.2000000000000000 [-]
	 SCS Same-Spin Energy      =      -0.1334861520580606 [Eh]
	 SCS Opposite-Spin Energy  =      -1.6543786808788721 [Eh]
	 SCS Correlation Energy    =      -1.7878648329369327 [Eh]
	 SCS Total Energy          =    -387.8480608060891655 [Eh]
	-----------------------------------------------------------

  Dipole Moment: [D]
     X:    -1.1349      Y:     0.5294      Z:     0.6322     Total:     1.4028

*** Psi4 exiting successfully. Buy a developer a beer!
