                               Psi4 1.4a2.dev612

  ==> Input File <==

--------------------------------------------------------------------------
#psi4
#
memory 32 gb

molecule  {
0 1
  O       -2.7848290    -0.9154220    -0.7447340
  C       -2.7698910    -0.0438090     0.3861860
  C       -1.3446020     0.1937550     0.7721520
  C        3.5873700    -0.2293000     0.2222030
  C       -3.4755630     1.2700040     0.0649850
  C       -0.2802220    -0.2946410     0.1124460
  C        2.1660230    -0.5131760    -0.1475910
  C        1.0922740    -0.0266840     0.5021560
  C        4.3244450     0.5343730    -0.8803810
  H       -3.2865450    -0.5271910     1.2335890
  H       -1.1970340     0.8260370     1.6487790
  H        3.6131550     0.3461180     1.1547940
  H        4.1142490    -1.1721620     0.4188690
  H       -2.9813020     1.7413150    -0.7875330
  H       -4.5277090     1.0956620    -0.1864690
  H       -3.4435650     1.9541860     0.9176610
  H       -0.4470010    -0.9272420    -0.7564190
  H        2.0063847    -1.1843968    -0.9949081
  H        1.2471430     0.6066220     1.3780870
  H        4.3142870    -0.0291260    -1.8177910
  H        5.3679410     0.7151030    -0.6066950
  H        3.8442820     1.4990380    -1.0633910
  H       -3.7175750    -1.0591810    -0.9792530
units angstrom
no_reorient  #important for SAPT in psi4, default
symmetry c1  #important for SAPT in psi4, default
}

set PROPERTIES_ORIGIN ["COM"]
properties('MP2/aug-cc-pvtz', properties = ['dipole'])
--------------------------------------------------------------------------

    Molecular point group: c1
  Charge       = 0
  Multiplicity = 1
  Basis Set: AUG-CC-PVTZ
    Blend: AUG-CC-PVTZ
  Basis Set: (AUG-CC-PVTZ AUX)
    Blend: AUG-CC-PVTZ-JKFIT

    Orbital Energies [Eh]
    ---------------------

    Doubly Occupied:

       1A    -20.558745     2A    -11.286484     3A    -11.225982
       4A    -11.223692     5A    -11.223228     6A    -11.223028
       7A    -11.221795     8A    -11.220627     9A    -11.212738
      10A     -1.360784    11A     -1.097802    12A     -1.061283
      13A     -1.016109    14A     -0.962477    15A     -0.876695
      16A     -0.828588    17A     -0.752140    18A     -0.748062
      19A     -0.695229    20A     -0.637275    21A     -0.627649
      22A     -0.617376    23A     -0.590484    24A     -0.582546
      25A     -0.546539    26A     -0.543669    27A     -0.527388
      28A     -0.518882    29A     -0.500744    30A     -0.492525
      31A     -0.478638    32A     -0.467872    33A     -0.452892
      34A     -0.418273    35A     -0.297479

  @DF-RHF Final Energy:  -386.06245085812367

   => Energetics <=

    Nuclear Repulsion Energy =            418.2547307314226259
    One-Electron Energy =               -1352.4429247677694548
    Two-Electron Energy =                 548.1257431782232743
    Total Energy =                       -386.0624508581236114
  Basis Set: (AUG-CC-PVTZ AUX)
    Blend: AUG-CC-PVTZ-RI
    Molecular point group: c1

    Geometry (in Angstrom), charge = 0, multiplicity = 1:

       Center              X                  Y                   Z               Mass
    ------------   -----------------  -----------------  -----------------  -----------------
         O           -2.784829093448    -0.915099632470    -0.744970207494    15.994914619570
         C           -2.769891093448    -0.043486632470     0.385949792506    12.000000000000
         C           -1.344602093448     0.194077367530     0.771915792506    12.000000000000
         C            3.587369906552    -0.228977632470     0.221966792506    12.000000000000
         C           -3.475563093448     1.270326367530     0.064748792506    12.000000000000
         C           -0.280222093448    -0.294318632470     0.112209792506    12.000000000000
         C            2.166022906552    -0.512853632470    -0.147827207494    12.000000000000
         C            1.092273906552    -0.026361632470     0.501919792506    12.000000000000
         C            4.324444906552     0.534695367530    -0.880617207494    12.000000000000
         H           -3.286545093448    -0.526868632470     1.233352792506     1.007825032230
         H           -1.197034093448     0.826359367530     1.648542792506     1.007825032230
         H            3.613154906552     0.346440367530     1.154557792506     1.007825032230
         H            4.114248906552    -1.171839632470     0.418632792506     1.007825032230
         H           -2.981302093448     1.741637367530    -0.787769207494     1.007825032230
         H           -4.527709093448     1.095984367530    -0.186705207494     1.007825032230
         H           -3.443565093448     1.954508367530     0.917424792506     1.007825032230
         H           -0.447001093448    -0.926919632470    -0.756655207494     1.007825032230
         H            2.006384606552    -1.184074432470    -0.995144307494     1.007825032230
         H            1.247142906552     0.606944367530     1.377850792506     1.007825032230
         H            4.314286906552    -0.028803632470    -1.818027207494     1.007825032230
         H            5.367940906552     0.715425367530    -0.606931207494     1.007825032230
         H            3.844281906552     1.499360367530    -1.063627207494     1.007825032230
         H           -3.717575093448    -1.058858632470    -0.979489207494     1.007825032230

  Basis Set: AUG-CC-PVTZ
    Blend: AUG-CC-PVTZ
  Basis Set: (AUG-CC-PVTZ AUX)
    Blend: AUG-CC-PVTZ-JKFIT
	 Reference Energy          =    -386.0624508581236682 [Eh]
	 Singles Energy            =      -0.0000000000000000 [Eh]
	 Same-Spin Energy          =      -0.4003493646541631 [Eh]
	 Opposite-Spin Energy      =      -1.3783228169589004 [Eh]
	 Correlation Energy        =      -1.7786721816130635 [Eh]
	 Total Energy              =    -387.8411230397367149 [Eh]

	 ================> DF-SCS-MP2 Energies <==================
	-----------------------------------------------------------
	 SCS Same-Spin Scale       =       0.3333333333333333 [-]
	 SCS Opposite-Spin Scale   =       1.2000000000000000 [-]
	 SCS Same-Spin Energy      =      -0.1334497882180544 [Eh]
	 SCS Opposite-Spin Energy  =      -1.6539873803506804 [Eh]
	 SCS Correlation Energy    =      -1.7874371685687347 [Eh]
	 SCS Total Energy          =    -387.8498880266923834 [Eh]
	-----------------------------------------------------------

  Dipole Moment: [D]
     X:    -1.1650      Y:     0.6167      Z:     0.5958     Total:     1.4466

*** Psi4 exiting successfully. Buy a developer a beer!
