                               Psi4 1.4a2.dev612

  ==> Input File <==

--------------------------------------------------------------------------
#psi4
#
memory 32 gb

molecule  {
0 1
  O       -2.7848290    -0.9154220    -0.7447340
  C       -2.7698910    -0.0438090     0.3861860
  C       -1.3446020     0.1937550     0.7721520
  C        3.5873700    -0.2293000     0.2222030
  C       -3.4755630     1.2700040     0.0649850
  C       -0.2802220    -0.2946410     0.1124460
  C        2.1660230    -0.5131760    -0.1475910
  C        1.0922740    -0.0266840     0.5021560
  C        4.3244450     0.5343730    -0.8803810
  H       -3.2865450    -0.5271910     1.2335890
  H       -1.1988213     0.7447552     1.7070034
  H        3.6131550     0.3461180     1.1547940
  H        4.1142490    -1.1721620     0.4188690
  H       -2.9813020     1.7413150    -0.7875330
  H       -4.5277090     1.0956620    -0.1864690
  H       -3.4435650     1.9541860     0.9176610
  H       -0.4470010    -0.9272420    -0.7564190
  H        2.0063450    -1.1440610    -1.0244550
  H        1.2471430     0.6066220     1.3780870
  H        4.3142870    -0.0291260    -1.8177910
  H        5.3679410     0.7151030    -0.6066950
  H        3.8442820     1.4990380    -1.0633910
  H       -3.7175750    -1.0591810    -0.9792530
units angstrom
no_reorient  #important for SAPT in psi4, default
symmetry c1  #important for SAPT in psi4, default
}

set PROPERTIES_ORIGIN ["COM"]
properties('MP2/aug-cc-pvtz', properties = ['dipole'])
--------------------------------------------------------------------------

    Molecular point group: c1
  Charge       = 0
  Multiplicity = 1
  Basis Set: AUG-CC-PVTZ
    Blend: AUG-CC-PVTZ
  Basis Set: (AUG-CC-PVTZ AUX)
    Blend: AUG-CC-PVTZ-JKFIT

    Orbital Energies [Eh]
    ---------------------

    Doubly Occupied:

       1A    -20.558646     2A    -11.286415     3A    -11.226024
       4A    -11.223872     5A    -11.223327     6A    -11.223107
       7A    -11.222022     8A    -11.220352     9A    -11.212875
      10A     -1.360715    11A     -1.097826    12A     -1.061188
      13A     -1.016050    14A     -0.962490    15A     -0.876728
      16A     -0.828598    17A     -0.752381    18A     -0.747254
      19A     -0.695320    20A     -0.637301    21A     -0.626839
      22A     -0.617465    23A     -0.590738    24A     -0.582633
      25A     -0.546329    26A     -0.543930    27A     -0.526818
      28A     -0.519122    29A     -0.500294    30A     -0.492393
      31A     -0.479172    32A     -0.467729    33A     -0.452701
      34A     -0.418242    35A     -0.297481

  @DF-RHF Final Energy:  -386.06202407181490

   => Energetics <=

    Nuclear Repulsion Energy =            418.2283387103950076
    One-Electron Energy =               -1352.3919710270376981
    Two-Electron Energy =                 548.1016082448277302
    Total Energy =                       -386.0620240718149034
  Basis Set: (AUG-CC-PVTZ AUX)
    Blend: AUG-CC-PVTZ-RI
    Molecular point group: c1

    Geometry (in Angstrom), charge = 0, multiplicity = 1:

       Center              X                  Y                   Z               Mass
    ------------   -----------------  -----------------  -----------------  -----------------
         O           -2.784814492091    -0.914772392639    -0.745199397653    15.994914619570
         C           -2.769876492091    -0.043159392639     0.385720602347    12.000000000000
         C           -1.344587492091     0.194404607361     0.771686602347    12.000000000000
         C            3.587384507909    -0.228650392639     0.221737602347    12.000000000000
         C           -3.475548492091     1.270653607361     0.064519602347    12.000000000000
         C           -0.280207492091    -0.293991392639     0.111980602347    12.000000000000
         C            2.166037507909    -0.512526392639    -0.148056397653    12.000000000000
         C            1.092288507909    -0.026034392639     0.501690602347    12.000000000000
         C            4.324459507909     0.535022607361    -0.880846397653    12.000000000000
         H           -3.286530492091    -0.526541392639     1.233123602347     1.007825032230
         H           -1.198806792091     0.745404807361     1.706538002347     1.007825032230
         H            3.613169507909     0.346767607361     1.154328602347     1.007825032230
         H            4.114263507909    -1.171512392639     0.418403602347     1.007825032230
         H           -2.981287492091     1.741964607361    -0.787998397653     1.007825032230
         H           -4.527694492091     1.096311607361    -0.186934397653     1.007825032230
         H           -3.443550492091     1.954835607361     0.917195602347     1.007825032230
         H           -0.446986492091    -0.926592392639    -0.756884397653     1.007825032230
         H            2.006359507909    -1.143411392639    -1.024920397653     1.007825032230
         H            1.247157507909     0.607271607361     1.377621602347     1.007825032230
         H            4.314301507909    -0.028476392639    -1.818256397653     1.007825032230
         H            5.367955507909     0.715752607361    -0.607160397653     1.007825032230
         H            3.844296507909     1.499687607361    -1.063856397653     1.007825032230
         H           -3.717560492091    -1.058531392639    -0.979718397653     1.007825032230

  Basis Set: AUG-CC-PVTZ
    Blend: AUG-CC-PVTZ
  Basis Set: (AUG-CC-PVTZ AUX)
    Blend: AUG-CC-PVTZ-JKFIT
	 Reference Energy          =    -386.0620240718149034 [Eh]
	 Singles Energy            =      -0.0000000000000000 [Eh]
	 Same-Spin Energy          =      -0.4003713013494001 [Eh]
	 Opposite-Spin Energy      =      -1.3784033871468071 [Eh]
	 Correlation Energy        =      -1.7787746884962072 [Eh]
	 Total Energy              =    -387.8407987603110882 [Eh]

	 ================> DF-SCS-MP2 Energies <==================
	-----------------------------------------------------------
	 SCS Same-Spin Scale       =       0.3333333333333333 [-]
	 SCS Opposite-Spin Scale   =       1.2000000000000000 [-]
	 SCS Same-Spin Energy      =      -0.1334571004498000 [Eh]
	 SCS Opposite-Spin Energy  =      -1.6540840645761685 [Eh]
	 SCS Correlation Energy    =      -1.7875411650259685 [Eh]
	 SCS Total Energy          =    -387.8495652368408741 [Eh]
	-----------------------------------------------------------

  Dipole Moment: [D]
     X:    -1.1527      Y:     0.5893      Z:     0.6109     Total:     1.4315

*** Psi4 exiting successfully. Buy a developer a beer!
