                               Psi4 1.4a2.dev612

  ==> Input File <==

--------------------------------------------------------------------------
#psi4
#
memory 32 gb

molecule  {
0 1
  O       -2.7848290    -0.9154220    -0.7447340
  C       -2.7698910    -0.0438090     0.3861860
  C       -1.3446020     0.1937550     0.7721520
  C        3.5873700    -0.2293000     0.2222030
  C       -3.4755630     1.2700040     0.0649850
  C       -0.2802220    -0.2946410     0.1124460
  C        2.1660230    -0.5131760    -0.1475910
  C        1.0922740    -0.0266840     0.5021560
  C        4.3244450     0.5343730    -0.8803810
  H       -3.2865450    -0.5271910     1.2335890
  H       -1.1970340     0.8260370     1.6487790
  H        3.6131550     0.3461180     1.1547940
  H        4.1142490    -1.1721620     0.4188690
  H       -2.9813020     1.7413150    -0.7875330
  H       -4.5277090     1.0956620    -0.1864690
  H       -3.4435650     1.9541860     0.9176610
  H       -0.4470010    -0.9272420    -0.7564190
  H        2.0065038    -1.3054043    -0.9062674
  H        1.2471430     0.6066220     1.3780870
  H        4.3142870    -0.0291260    -1.8177910
  H        5.3679410     0.7151030    -0.6066950
  H        3.8442820     1.4990380    -1.0633910
  H       -3.7175750    -1.0591810    -0.9792530
units angstrom
no_reorient  #important for SAPT in psi4, default
symmetry c1  #important for SAPT in psi4, default
}

set PROPERTIES_ORIGIN ["COM"]
properties('MP2/aug-cc-pvtz', properties = ['dipole'])
--------------------------------------------------------------------------

    Molecular point group: c1
  Charge       = 0
  Multiplicity = 1
  Basis Set: AUG-CC-PVTZ
    Blend: AUG-CC-PVTZ
  Basis Set: (AUG-CC-PVTZ AUX)
    Blend: AUG-CC-PVTZ-JKFIT

    Orbital Energies [Eh]
    ---------------------

    Doubly Occupied:

       1A    -20.558885     2A    -11.286687     3A    -11.227360
       4A    -11.224192     5A    -11.223611     6A    -11.223061
       7A    -11.222070     8A    -11.220737     9A    -11.212245
      10A     -1.360933    11A     -1.097746    12A     -1.061177
      13A     -1.016163    14A     -0.962464    15A     -0.876747
      16A     -0.828538    17A     -0.749833    18A     -0.747925
      19A     -0.695116    20A     -0.636976    21A     -0.628013
      22A     -0.617553    23A     -0.590780    24A     -0.581571
      25A     -0.546587    26A     -0.543956    27A     -0.527579
      28A     -0.518218    29A     -0.500752    30A     -0.492807
      31A     -0.476650    32A     -0.467421    33A     -0.453061
      34A     -0.418025    35A     -0.297499

  @DF-RHF Final Energy:  -386.06015810311465

   => Energetics <=

    Nuclear Repulsion Energy =            418.1545650300435568
    One-Electron Energy =               -1352.2435738758235857
    Two-Electron Energy =                 548.0288507426653268
    Total Energy =                       -386.0601581031146452
  Basis Set: (AUG-CC-PVTZ AUX)
    Blend: AUG-CC-PVTZ-RI
    Molecular point group: c1

    Geometry (in Angstrom), charge = 0, multiplicity = 1:

       Center              X                  Y                   Z               Mass
    ------------   -----------------  -----------------  -----------------  -----------------
         O           -2.784830045294    -0.914132542308    -0.745678622667    15.994914619570
         C           -2.769892045294    -0.042519542308     0.385241377333    12.000000000000
         C           -1.344603045294     0.195044457692     0.771207377333    12.000000000000
         C            3.587368954706    -0.228010542308     0.221258377333    12.000000000000
         C           -3.475564045294     1.271293457692     0.064040377333    12.000000000000
         C           -0.280223045294    -0.293351542308     0.111501377333    12.000000000000
         C            2.166021954706    -0.511886542308    -0.148535622667    12.000000000000
         C            1.092272954706    -0.025394542308     0.501211377333    12.000000000000
         C            4.324443954706     0.535662457692    -0.881325622667    12.000000000000
         H           -3.286546045294    -0.525901542308     1.232644377333     1.007825032230
         H           -1.197035045294     0.827326457692     1.647834377333     1.007825032230
         H            3.613153954706     0.347407457692     1.153849377333     1.007825032230
         H            4.114247954706    -1.170872542308     0.417924377333     1.007825032230
         H           -2.981303045294     1.742604457692    -0.788477622667     1.007825032230
         H           -4.527710045294     1.096951457692    -0.187413622667     1.007825032230
         H           -3.443566045294     1.955475457692     0.916716377333     1.007825032230
         H           -0.447002045294    -0.925952542308    -0.757363622667     1.007825032230
         H            2.006502754706    -1.304114842308    -0.907212022667     1.007825032230
         H            1.247141954706     0.607911457692     1.377142377333     1.007825032230
         H            4.314285954706    -0.027836542308    -1.818735622667     1.007825032230
         H            5.367939954706     0.716392457692    -0.607639622667     1.007825032230
         H            3.844280954706     1.500327457692    -1.064335622667     1.007825032230
         H           -3.717576045294    -1.057891542308    -0.980197622667     1.007825032230

  Basis Set: AUG-CC-PVTZ
    Blend: AUG-CC-PVTZ
  Basis Set: (AUG-CC-PVTZ AUX)
    Blend: AUG-CC-PVTZ-JKFIT
	 Reference Energy          =    -386.0601581031146452 [Eh]
	 Singles Energy            =      -0.0000000000000000 [Eh]
	 Same-Spin Energy          =      -0.4004520020049811 [Eh]
	 Opposite-Spin Energy      =      -1.3786093973851941 [Eh]
	 Correlation Energy        =      -1.7790613993901752 [Eh]
	 Total Energy              =    -387.8392195025048181 [Eh]

	 ================> DF-SCS-MP2 Energies <==================
	-----------------------------------------------------------
	 SCS Same-Spin Scale       =       0.3333333333333333 [-]
	 SCS Opposite-Spin Scale   =       1.2000000000000000 [-]
	 SCS Same-Spin Energy      =      -0.1334840006683270 [Eh]
	 SCS Opposite-Spin Energy  =      -1.6543312768622329 [Eh]
	 SCS Correlation Energy    =      -1.7878152775305600 [Eh]
	 SCS Total Energy          =    -387.8479733806452145 [Eh]
	-----------------------------------------------------------

  Dipole Moment: [D]
     X:    -1.1931      Y:     0.5539      Z:     0.6661     Total:     1.4744

*** Psi4 exiting successfully. Buy a developer a beer!
