                               Psi4 1.4a2.dev612

  ==> Input File <==

--------------------------------------------------------------------------
#psi4
#
memory 32 gb

molecule  {
0 1
  O       -2.7848290    -0.9154220    -0.7447340
  C       -2.7698910    -0.0438090     0.3861860
  C       -1.3446020     0.1937550     0.7721520
  C        3.5873700    -0.2293000     0.2222030
  C       -3.4755630     1.2700040     0.0649850
  C       -0.2802220    -0.2946410     0.1124460
  C        2.1660230    -0.5131760    -0.1475910
  C        1.0922740    -0.0266840     0.5021560
  C        4.3244450     0.5343730    -0.8803810
  H       -3.2865450    -0.5271910     1.2335890
  H       -1.1970340     0.8260370     1.6487790
  H        3.6131550     0.3461180     1.1547940
  H        4.1142490    -1.1721620     0.4188690
  H       -2.9813020     1.7413150    -0.7875330
  H       -4.5277090     1.0956620    -0.1864690
  H       -3.4435650     1.9541860     0.9176610
  H       -0.4470010    -0.9272420    -0.7564190
  H        2.0064641    -1.2650685    -0.9358143
  H        1.2471430     0.6066220     1.3780870
  H        4.3142870    -0.0291260    -1.8177910
  H        5.3679410     0.7151030    -0.6066950
  H        3.8442820     1.4990380    -1.0633910
  H       -3.7175750    -1.0591810    -0.9792530
units angstrom
no_reorient  #important for SAPT in psi4, default
symmetry c1  #important for SAPT in psi4, default
}

set PROPERTIES_ORIGIN ["COM"]
properties('MP2/aug-cc-pvtz', properties = ['dipole'])
--------------------------------------------------------------------------

    Molecular point group: c1
  Charge       = 0
  Multiplicity = 1
  Basis Set: AUG-CC-PVTZ
    Blend: AUG-CC-PVTZ
  Basis Set: (AUG-CC-PVTZ AUX)
    Blend: AUG-CC-PVTZ-JKFIT

    Orbital Energies [Eh]
    ---------------------

    Doubly Occupied:

       1A    -20.558822     2A    -11.286594     3A    -11.226699
       4A    -11.223939     5A    -11.223403     6A    -11.223091
       7A    -11.221947     8A    -11.220679     9A    -11.212422
      10A     -1.360866    11A     -1.097763    12A     -1.061211
      13A     -1.016128    14A     -0.962473    15A     -0.876735
      16A     -0.828539    17A     -0.750742    18A     -0.748074
      19A     -0.695185    20A     -0.637102    21A     -0.627925
      22A     -0.617485    23A     -0.590688    24A     -0.581882
      25A     -0.546581    26A     -0.543914    27A     -0.527513
      28A     -0.518499    29A     -0.500739    30A     -0.492714
      31A     -0.477381    32A     -0.467626    33A     -0.452993
      34A     -0.418153    35A     -0.297491

  @DF-RHF Final Energy:  -386.06126000582185

   => Energetics <=

    Nuclear Repulsion Energy =            418.1963323987347962
    One-Electron Energy =               -1352.3271837218480869
    Two-Electron Energy =                 548.0695913172914970
    Total Energy =                       -386.0612600058218504
  Basis Set: (AUG-CC-PVTZ AUX)
    Blend: AUG-CC-PVTZ-RI
    Molecular point group: c1

    Geometry (in Angstrom), charge = 0, multiplicity = 1:

       Center              X                  Y                   Z               Mass
    ------------   -----------------  -----------------  -----------------  -----------------
         O           -2.784829728012    -0.914454905429    -0.745442484276    15.994914619570
         C           -2.769891728012    -0.042841905429     0.385477515724    12.000000000000
         C           -1.344602728012     0.194722094571     0.771443515724    12.000000000000
         C            3.587369271988    -0.228332905429     0.221494515724    12.000000000000
         C           -3.475563728012     1.270971094571     0.064276515724    12.000000000000
         C           -0.280222728012    -0.293673905429     0.111737515724    12.000000000000
         C            2.166022271988    -0.512208905429    -0.148299484276    12.000000000000
         C            1.092273271988    -0.025716905429     0.501447515724    12.000000000000
         C            4.324444271988     0.535340094571    -0.881089484276    12.000000000000
         H           -3.286545728012    -0.526223905429     1.232880515724     1.007825032230
         H           -1.197034728012     0.827004094571     1.648070515724     1.007825032230
         H            3.613154271988     0.347085094571     1.154085515724     1.007825032230
         H            4.114248271988    -1.171194905429     0.418160515724     1.007825032230
         H           -2.981302728012     1.742282094571    -0.788241484276     1.007825032230
         H           -4.527709728012     1.096629094571    -0.187177484276     1.007825032230
         H           -3.443565728012     1.955153094571     0.916952515724     1.007825032230
         H           -0.447001728012    -0.926274905429    -0.757127484276     1.007825032230
         H            2.006463371988    -1.264101405429    -0.936522784276     1.007825032230
         H            1.247142271988     0.607589094571     1.377378515724     1.007825032230
         H            4.314286271988    -0.028158905429    -1.818499484276     1.007825032230
         H            5.367940271988     0.716070094571    -0.607403484276     1.007825032230
         H            3.844281271988     1.500005094571    -1.064099484276     1.007825032230
         H           -3.717575728012    -1.058213905429    -0.979961484276     1.007825032230

  Basis Set: AUG-CC-PVTZ
    Blend: AUG-CC-PVTZ
  Basis Set: (AUG-CC-PVTZ AUX)
    Blend: AUG-CC-PVTZ-JKFIT
	 Reference Energy          =    -386.0612600058218504 [Eh]
	 Singles Energy            =      -0.0000000000000000 [Eh]
	 Same-Spin Energy          =      -0.4004012433228434 [Eh]
	 Opposite-Spin Energy      =      -1.3784723996687502 [Eh]
	 Correlation Energy        =      -1.7788736429915937 [Eh]
	 Total Energy              =    -387.8401336488134348 [Eh]

	 ================> DF-SCS-MP2 Energies <==================
	-----------------------------------------------------------
	 SCS Same-Spin Scale       =       0.3333333333333333 [-]
	 SCS Opposite-Spin Scale   =       1.2000000000000000 [-]
	 SCS Same-Spin Energy      =      -0.1334670811076145 [Eh]
	 SCS Opposite-Spin Energy  =      -1.6541668796025002 [Eh]
	 SCS Correlation Energy    =      -1.7876339607101146 [Eh]
	 SCS Total Energy          =    -387.8488939665319890 [Eh]
	-----------------------------------------------------------

  Dipole Moment: [D]
     X:    -1.1816      Y:     0.5725      Z:     0.6403     Total:     1.4608

*** Psi4 exiting successfully. Buy a developer a beer!
