                               Psi4 1.4a2.dev612

  ==> Input File <==

--------------------------------------------------------------------------
#psi4
#
memory 32 gb

molecule  {
0 1
  O       -2.7848290    -0.9154220    -0.7447340
  C       -2.7698910    -0.0438090     0.3861860
  C       -1.3446020     0.1937550     0.7721520
  C        3.5873700    -0.2293000     0.2222030
  C       -3.4755630     1.2700040     0.0649850
  C       -0.2802220    -0.2946410     0.1124460
  C        2.1660230    -0.5131760    -0.1475910
  C        1.0922740    -0.0266840     0.5021560
  C        4.3244450     0.5343730    -0.8803810
  H       -3.2865450    -0.5271910     1.2335890
  H       -1.1970340     0.8260370     1.6487790
  H        3.6131550     0.3461180     1.1547940
  H        4.1142490    -1.1721620     0.4188690
  H       -2.9813020     1.7413150    -0.7875330
  H       -4.5277090     1.0956620    -0.1864690
  H       -3.4435650     1.9541860     0.9176610
  H       -0.4470010    -0.9272420    -0.7564190
  H        2.0065435    -1.3457402    -0.8767205
  H        1.2471430     0.6066220     1.3780870
  H        4.3142870    -0.0291260    -1.8177910
  H        5.3679410     0.7151030    -0.6066950
  H        3.8442820     1.4990380    -1.0633910
  H       -3.7175750    -1.0591810    -0.9792530
units angstrom
no_reorient  #important for SAPT in psi4, default
symmetry c1  #important for SAPT in psi4, default
}

set PROPERTIES_ORIGIN ["COM"]
properties('MP2/aug-cc-pvtz', properties = ['dipole'])
--------------------------------------------------------------------------

    Molecular point group: c1
  Charge       = 0
  Multiplicity = 1
  Basis Set: AUG-CC-PVTZ
    Blend: AUG-CC-PVTZ
  Basis Set: (AUG-CC-PVTZ AUX)
    Blend: AUG-CC-PVTZ-JKFIT

    Orbital Energies [Eh]
    ---------------------

    Doubly Occupied:

       1A    -20.558964     2A    -11.286802     3A    -11.228220
       4A    -11.224554     5A    -11.223841     6A    -11.223023
       7A    -11.222219     8A    -11.220813     9A    -11.212058
      10A     -1.361017    11A     -1.097734    12A     -1.061144
      13A     -1.016216    14A     -0.962451    15A     -0.876754
      16A     -0.828552    17A     -0.749215    18A     -0.747289
      19A     -0.695014    20A     -0.636826    21A     -0.628064
      22A     -0.617629    23A     -0.590868    24A     -0.581285
      25A     -0.546588    26A     -0.543938    27A     -0.527641
      28A     -0.517886    29A     -0.500774    30A     -0.492900
      31A     -0.475887    32A     -0.467123    33A     -0.453138
      34A     -0.417848    35A     -0.297508

  @DF-RHF Final Energy:  -386.05867152546159

   => Energetics <=

    Nuclear Repulsion Energy =            418.1049097061101065
    One-Electron Energy =               -1352.1435969687183842
    Two-Electron Energy =                 547.9800157371466867
    Total Energy =                       -386.0586715254615910
  Basis Set: (AUG-CC-PVTZ AUX)
    Blend: AUG-CC-PVTZ-RI
    Molecular point group: c1

    Geometry (in Angstrom), charge = 0, multiplicity = 1:

       Center              X                  Y                   Z               Mass
    ------------   -----------------  -----------------  -----------------  -----------------
         O           -2.784830362576    -0.913810178387    -0.745914761057    15.994914619570
         C           -2.769892362576    -0.042197178387     0.385005238943    12.000000000000
         C           -1.344603362576     0.195366821613     0.770971238943    12.000000000000
         C            3.587368637424    -0.227688178387     0.221022238943    12.000000000000
         C           -3.475564362576     1.271615821613     0.063804238943    12.000000000000
         C           -0.280223362576    -0.293029178387     0.111265238943    12.000000000000
         C            2.166021637424    -0.511564178387    -0.148771761057    12.000000000000
         C            1.092272637424    -0.025072178387     0.500975238943    12.000000000000
         C            4.324443637424     0.535984821613    -0.881561761057    12.000000000000
         H           -3.286546362576    -0.525579178387     1.232408238943     1.007825032230
         H           -1.197035362576     0.827648821613     1.647598238943     1.007825032230
         H            3.613153637424     0.347729821613     1.153613238943     1.007825032230
         H            4.114247637424    -1.170550178387     0.417688238943     1.007825032230
         H           -2.981303362576     1.742926821613    -0.788713761057     1.007825032230
         H           -4.527710362576     1.097273821613    -0.187649761057     1.007825032230
         H           -3.443566362576     1.955797821613     0.916480238943     1.007825032230
         H           -0.447002362576    -0.925630178387    -0.757599761057     1.007825032230
         H            2.006542137424    -1.344128378387    -0.877901261057     1.007825032230
         H            1.247141637424     0.608233821613     1.376906238943     1.007825032230
         H            4.314285637424    -0.027514178387    -1.818971761057     1.007825032230
         H            5.367939637424     0.716714821613    -0.607875761057     1.007825032230
         H            3.844280637424     1.500649821613    -1.064571761057     1.007825032230
         H           -3.717576362576    -1.057569178387    -0.980433761057     1.007825032230

  Basis Set: AUG-CC-PVTZ
    Blend: AUG-CC-PVTZ
  Basis Set: (AUG-CC-PVTZ AUX)
    Blend: AUG-CC-PVTZ-JKFIT
	 Reference Energy          =    -386.0586715254615910 [Eh]
	 Singles Energy            =      -0.0000000000000000 [Eh]
	 Same-Spin Energy          =      -0.4005184639489238 [Eh]
	 Opposite-Spin Energy      =      -1.3787900850156745 [Eh]
	 Correlation Energy        =      -1.7793085489645983 [Eh]
	 Total Energy              =    -387.8379800744261843 [Eh]

	 ================> DF-SCS-MP2 Energies <==================
	-----------------------------------------------------------
	 SCS Same-Spin Scale       =       0.3333333333333333 [-]
	 SCS Opposite-Spin Scale   =       1.2000000000000000 [-]
	 SCS Same-Spin Energy      =      -0.1335061546496413 [Eh]
	 SCS Opposite-Spin Energy  =      -1.6545481020188093 [Eh]
	 SCS Correlation Energy    =      -1.7880542566684505 [Eh]
	 SCS Total Energy          =    -387.8467257821300223 [Eh]
	-----------------------------------------------------------

  Dipole Moment: [D]
     X:    -1.2064      Y:     0.5377      Z:     0.6942     Total:     1.4921

*** Psi4 exiting successfully. Buy a developer a beer!
