                               Psi4 1.4a2.dev612

  ==> Input File <==

--------------------------------------------------------------------------
#psi4
#
memory 32 gb

molecule  {
0 1
  O       -2.7848290    -0.9154220    -0.7447340
  C       -2.7698910    -0.0438090     0.3861860
  C       -1.3446020     0.1937550     0.7721520
  C        3.5873700    -0.2293000     0.2222030
  C       -3.4755630     1.2700040     0.0649850
  C       -0.2802220    -0.2946410     0.1124460
  C        2.1660230    -0.5131760    -0.1475910
  C        1.0922740    -0.0266840     0.5021560
  C        4.3244450     0.5343730    -0.8803810
  H       -3.2865450    -0.5271910     1.2335890
  H       -1.1970340     0.8260370     1.6487790
  H        3.6131550     0.3461180     1.1547940
  H        4.1142490    -1.1721620     0.4188690
  H       -2.9813020     1.7413150    -0.7875330
  H       -4.5277090     1.0956620    -0.1864690
  H       -3.4435650     1.9541860     0.9176610
  H       -0.4470010    -0.9272420    -0.7564190
  H        2.0065832    -1.3860760    -0.8471736
  H        1.2471430     0.6066220     1.3780870
  H        4.3142870    -0.0291260    -1.8177910
  H        5.3679410     0.7151030    -0.6066950
  H        3.8442820     1.4990380    -1.0633910
  H       -3.7175750    -1.0591810    -0.9792530
units angstrom
no_reorient  #important for SAPT in psi4, default
symmetry c1  #important for SAPT in psi4, default
}

set PROPERTIES_ORIGIN ["COM"]
properties('MP2/aug-cc-pvtz', properties = ['dipole'])
--------------------------------------------------------------------------

    Molecular point group: c1
  Charge       = 0
  Multiplicity = 1
  Basis Set: AUG-CC-PVTZ
    Blend: AUG-CC-PVTZ
  Basis Set: (AUG-CC-PVTZ AUX)
    Blend: AUG-CC-PVTZ-JKFIT

    Orbital Energies [Eh]
    ---------------------

    Doubly Occupied:

       1A    -20.559057     2A    -11.286941     3A    -11.229273
       4A    -11.225019     5A    -11.224090     6A    -11.222982
       7A    -11.222390     8A    -11.220909     9A    -11.211863
      10A     -1.361117    11A     -1.097730    12A     -1.061115
      13A     -1.016285    14A     -0.962439    15A     -0.876757
      16A     -0.828584    17A     -0.749074    18A     -0.746020
      19A     -0.694878    20A     -0.636659    21A     -0.628074
      22A     -0.617710    23A     -0.590950    24A     -0.581032
      25A     -0.546594    26A     -0.543852    27A     -0.527693
      28A     -0.517513    29A     -0.500805    30A     -0.492991
      31A     -0.475133    32A     -0.466690    33A     -0.453222
      34A     -0.417620    35A     -0.297522

  @DF-RHF Final Energy:  -386.05675893381289

   => Energetics <=

    Nuclear Repulsion Energy =            418.0478447553846308
    One-Electron Energy =               -1352.0280376144967249
    Two-Electron Energy =                 547.9234339252991504
    Total Energy =                       -386.0567589338129437
  Basis Set: (AUG-CC-PVTZ AUX)
    Blend: AUG-CC-PVTZ-RI
    Molecular point group: c1

    Geometry (in Angstrom), charge = 0, multiplicity = 1:

       Center              X                  Y                   Z               Mass
    ------------   -----------------  -----------------  -----------------  -----------------
         O           -2.784830679858    -0.913487815266    -0.746150899448    15.994914619570
         C           -2.769892679858    -0.041874815266     0.384769100552    12.000000000000
         C           -1.344603679858     0.195689184734     0.770735100552    12.000000000000
         C            3.587368320142    -0.227365815266     0.220786100552    12.000000000000
         C           -3.475564679858     1.271938184734     0.063568100552    12.000000000000
         C           -0.280223679858    -0.292706815266     0.111029100552    12.000000000000
         C            2.166021320142    -0.511241815266    -0.149007899448    12.000000000000
         C            1.092272320142    -0.024749815266     0.500739100552    12.000000000000
         C            4.324443320142     0.536307184734    -0.881797899448    12.000000000000
         H           -3.286546679858    -0.525256815266     1.232172100552     1.007825032230
         H           -1.197035679858     0.827971184734     1.647362100552     1.007825032230
         H            3.613153320142     0.348052184734     1.153377100552     1.007825032230
         H            4.114247320142    -1.170227815266     0.417452100552     1.007825032230
         H           -2.981303679858     1.743249184734    -0.788949899448     1.007825032230
         H           -4.527710679858     1.097596184734    -0.187885899448     1.007825032230
         H           -3.443566679858     1.956120184734     0.916244100552     1.007825032230
         H           -0.447002679858    -0.925307815266    -0.757835899448     1.007825032230
         H            2.006581520142    -1.384141815266    -0.848590499448     1.007825032230
         H            1.247141320142     0.608556184734     1.376670100552     1.007825032230
         H            4.314285320142    -0.027191815266    -1.819207899448     1.007825032230
         H            5.367939320142     0.717037184734    -0.608111899448     1.007825032230
         H            3.844280320142     1.500972184734    -1.064807899448     1.007825032230
         H           -3.717576679858    -1.057246815266    -0.980669899448     1.007825032230

  Basis Set: AUG-CC-PVTZ
    Blend: AUG-CC-PVTZ
  Basis Set: (AUG-CC-PVTZ AUX)
    Blend: AUG-CC-PVTZ-JKFIT
	 Reference Energy          =    -386.0567589338128869 [Eh]
	 Singles Energy            =      -0.0000000000000000 [Eh]
	 Same-Spin Energy          =      -0.4005997971002333 [Eh]
	 Opposite-Spin Energy      =      -1.3790154688497127 [Eh]
	 Correlation Energy        =      -1.7796152659499460 [Eh]
	 Total Energy              =    -387.8363741997628154 [Eh]

	 ================> DF-SCS-MP2 Energies <==================
	-----------------------------------------------------------
	 SCS Same-Spin Scale       =       0.3333333333333333 [-]
	 SCS Opposite-Spin Scale   =       1.2000000000000000 [-]
	 SCS Same-Spin Energy      =      -0.1335332657000778 [Eh]
	 SCS Opposite-Spin Energy  =      -1.6548185626196552 [Eh]
	 SCS Correlation Energy    =      -1.7883518283197331 [Eh]
	 SCS Total Energy          =    -387.8451107621326059 [Eh]
	-----------------------------------------------------------

  Dipole Moment: [D]
     X:    -1.2213      Y:     0.5241      Z:     0.7241     Total:     1.5135

*** Psi4 exiting successfully. Buy a developer a beer!
