                               Psi4 1.4a2.dev612

  ==> Input File <==

--------------------------------------------------------------------------
#psi4
#
memory 32 gb

molecule  {
0 1
  O       -2.7848290    -0.9154220    -0.7447340
  C       -2.7698910    -0.0438090     0.3861860
  C       -1.3446020     0.1937550     0.7721520
  C        3.5873700    -0.2293000     0.2222030
  C       -3.4755630     1.2700040     0.0649850
  C       -0.2802220    -0.2946410     0.1124460
  C        2.1660230    -0.5131760    -0.1475910
  C        1.0922740    -0.0266840     0.5021560
  C        4.3244450     0.5343730    -0.8803810
  H       -3.2865450    -0.5271910     1.2335890
  H       -1.1970340     0.8260370     1.6487790
  H        3.6131550     0.3461180     1.1547940
  H        4.1142490    -1.1721620     0.4188690
  H       -2.9813020     1.7413150    -0.7875330
  H       -4.5277090     1.0956620    -0.1864690
  H       -3.4435650     1.9541860     0.9176610
  H       -0.4466029    -0.8868124    -0.7858348
  H        2.0063450    -1.1440610    -1.0244550
  H        1.2471430     0.6066220     1.3780870
  H        4.3142870    -0.0291260    -1.8177910
  H        5.3679410     0.7151030    -0.6066950
  H        3.8442820     1.4990380    -1.0633910
  H       -3.7175750    -1.0591810    -0.9792530
units angstrom
no_reorient  #important for SAPT in psi4, default
symmetry c1  #important for SAPT in psi4, default
}

set PROPERTIES_ORIGIN ["COM"]
properties('MP2/aug-cc-pvtz', properties = ['dipole'])
--------------------------------------------------------------------------

    Molecular point group: c1
  Charge       = 0
  Multiplicity = 1
  Basis Set: AUG-CC-PVTZ
    Blend: AUG-CC-PVTZ
  Basis Set: (AUG-CC-PVTZ AUX)
    Blend: AUG-CC-PVTZ-JKFIT

    Orbital Energies [Eh]
    ---------------------

    Doubly Occupied:

       1A    -20.558724     2A    -11.286476     3A    -11.225916
       4A    -11.223711     5A    -11.223245     6A    -11.223002
       7A    -11.221834     8A    -11.220674     9A    -11.212888
      10A     -1.360768    11A     -1.097808    12A     -1.061329
      13A     -1.016125    14A     -0.962473    15A     -0.876690
      16A     -0.828653    17A     -0.752454    18A     -0.747895
      19A     -0.695184    20A     -0.637206    21A     -0.627414
      22A     -0.617443    23A     -0.590487    24A     -0.582861
      25A     -0.546610    26A     -0.543397    27A     -0.527323
      28A     -0.518786    29A     -0.500947    30A     -0.492377
      31A     -0.479134    32A     -0.468038    33A     -0.452816
      34A     -0.418145    35A     -0.297477

  @DF-RHF Final Energy:  -386.06243873584503

   => Energetics <=

    Nuclear Repulsion Energy =            418.2733346428457253
    One-Electron Energy =               -1352.4789228873166849
    Two-Electron Energy =                 548.1431495086259247
    Total Energy =                       -386.0624387358450349
  Basis Set: (AUG-CC-PVTZ AUX)
    Blend: AUG-CC-PVTZ-RI
    Molecular point group: c1

    Geometry (in Angstrom), charge = 0, multiplicity = 1:

       Center              X                  Y                   Z               Mass
    ------------   -----------------  -----------------  -----------------  -----------------
         O           -2.784831957776    -0.915745108360    -0.744498978462    15.994914619570
         C           -2.769893957776    -0.044132108360     0.386421021538    12.000000000000
         C           -1.344604957776     0.193431891640     0.772387021538    12.000000000000
         C            3.587367042224    -0.229623108360     0.222438021538    12.000000000000
         C           -3.475565957776     1.269680891640     0.065220021538    12.000000000000
         C           -0.280224957776    -0.294964108360     0.112681021538    12.000000000000
         C            2.166020042224    -0.513499108360    -0.147355978462    12.000000000000
         C            1.092271042224    -0.027007108360     0.502391021538    12.000000000000
         C            4.324442042224     0.534049891640    -0.880145978462    12.000000000000
         H           -3.286547957776    -0.527514108360     1.233824021538     1.007825032230
         H           -1.197036957776     0.825713891640     1.649014021538     1.007825032230
         H            3.613152042224     0.345794891640     1.155029021538     1.007825032230
         H            4.114246042224    -1.172485108360     0.419104021538     1.007825032230
         H           -2.981304957776     1.740991891640    -0.787297978462     1.007825032230
         H           -4.527711957776     1.095338891640    -0.186233978462     1.007825032230
         H           -3.443567957776     1.953862891640     0.917896021538     1.007825032230
         H           -0.446605857776    -0.887135508360    -0.785599778462     1.007825032230
         H            2.006342042224    -1.144384108360    -1.024219978462     1.007825032230
         H            1.247140042224     0.606298891640     1.378322021538     1.007825032230
         H            4.314284042224    -0.029449108360    -1.817555978462     1.007825032230
         H            5.367938042224     0.714779891640    -0.606459978462     1.007825032230
         H            3.844279042224     1.498714891640    -1.063155978462     1.007825032230
         H           -3.717577957776    -1.059504108360    -0.979017978462     1.007825032230

  Basis Set: AUG-CC-PVTZ
    Blend: AUG-CC-PVTZ
  Basis Set: (AUG-CC-PVTZ AUX)
    Blend: AUG-CC-PVTZ-JKFIT
	 Reference Energy          =    -386.0624387358450349 [Eh]
	 Singles Energy            =      -0.0000000000000000 [Eh]
	 Same-Spin Energy          =      -0.4003520294904253 [Eh]
	 Opposite-Spin Energy      =      -1.3783143705845380 [Eh]
	 Correlation Energy        =      -1.7786664000749632 [Eh]
	 Total Energy              =    -387.8411051359199746 [Eh]

	 ================> DF-SCS-MP2 Energies <==================
	-----------------------------------------------------------
	 SCS Same-Spin Scale       =       0.3333333333333333 [-]
	 SCS Opposite-Spin Scale   =       1.2000000000000000 [-]
	 SCS Same-Spin Energy      =      -0.1334506764968084 [Eh]
	 SCS Opposite-Spin Energy  =      -1.6539772447014456 [Eh]
	 SCS Correlation Energy    =      -1.7874279211982540 [Eh]
	 SCS Total Energy          =    -387.8498666570432647 [Eh]
	-----------------------------------------------------------

  Dipole Moment: [D]
     X:    -1.1604      Y:     0.6673      Z:     0.5605     Total:     1.4512

*** Psi4 exiting successfully. Buy a developer a beer!
