                               Psi4 1.4a2.dev612

  ==> Input File <==

--------------------------------------------------------------------------
#psi4
#
memory 32 gb

molecule  {
0 1
  O       -2.7848290    -0.9154220    -0.7447340
  C       -2.7698910    -0.0438090     0.3861860
  C       -1.3446020     0.1937550     0.7721520
  C        3.5873700    -0.2293000     0.2222030
  C       -3.4755630     1.2700040     0.0649850
  C       -0.2802220    -0.2946410     0.1124460
  C        2.1660230    -0.5131760    -0.1475910
  C        1.0922740    -0.0266840     0.5021560
  C        4.3244450     0.5343730    -0.8803810
  H       -3.2865450    -0.5271910     1.2335890
  H       -1.1970340     0.8260370     1.6487790
  H        3.6131550     0.3461180     1.1547940
  H        4.1142490    -1.1721620     0.4188690
  H       -2.9813020     1.7413150    -0.7875330
  H       -4.5277090     1.0956620    -0.1864690
  H       -3.4435650     1.9541860     0.9176610
  H       -0.4470010    -0.9272420    -0.7564190
  H        2.0063450    -1.1440610    -1.0244550
  H        1.2461652     0.5257297     1.4368704
  H        4.3142870    -0.0291260    -1.8177910
  H        5.3679410     0.7151030    -0.6066950
  H        3.8442820     1.4990380    -1.0633910
  H       -3.7175750    -1.0591810    -0.9792530
units angstrom
no_reorient  #important for SAPT in psi4, default
symmetry c1  #important for SAPT in psi4, default
}

set PROPERTIES_ORIGIN ["COM"]
properties('MP2/aug-cc-pvtz', properties = ['dipole'])
--------------------------------------------------------------------------

    Molecular point group: c1
  Charge       = 0
  Multiplicity = 1
  Basis Set: AUG-CC-PVTZ
    Blend: AUG-CC-PVTZ
  Basis Set: (AUG-CC-PVTZ AUX)
    Blend: AUG-CC-PVTZ-JKFIT

    Orbital Energies [Eh]
    ---------------------

    Doubly Occupied:

       1A    -20.558720     2A    -11.286450     3A    -11.226149
       4A    -11.223850     5A    -11.223308     6A    -11.223177
       7A    -11.221773     8A    -11.220587     9A    -11.212904
      10A     -1.360758    11A     -1.097765    12A     -1.061321
      13A     -1.016090    14A     -0.962456    15A     -0.876620
      16A     -0.828569    17A     -0.752222    18A     -0.747754
      19A     -0.695027    20A     -0.637222    21A     -0.627385
      22A     -0.617403    23A     -0.589842    24A     -0.583172
      25A     -0.546475    26A     -0.543393    27A     -0.527296
      28A     -0.519039    29A     -0.500300    30A     -0.492600
      31A     -0.479034    32A     -0.467840    33A     -0.452852
      34A     -0.417950    35A     -0.297502

  @DF-RHF Final Energy:  -386.06194807188444

   => Energetics <=

    Nuclear Repulsion Energy =            418.2372152223519493
    One-Electron Energy =               -1352.4087181006973424
    Two-Electron Energy =                 548.1095548064608920
    Total Energy =                       -386.0619480718844443
  Basis Set: (AUG-CC-PVTZ AUX)
    Blend: AUG-CC-PVTZ-RI
    Molecular point group: c1

    Geometry (in Angstrom), charge = 0, multiplicity = 1:

       Center              X                  Y                   Z               Mass
    ------------   -----------------  -----------------  -----------------  -----------------
         O           -2.784820961603    -0.914775505518    -0.745203865173    15.994914619570
         C           -2.769882961603    -0.043162505518     0.385716134827    12.000000000000
         C           -1.344593961603     0.194401494482     0.771682134827    12.000000000000
         C            3.587378038397    -0.228653505518     0.221733134827    12.000000000000
         C           -3.475554961603     1.270650494482     0.064515134827    12.000000000000
         C           -0.280213961603    -0.293994505518     0.111976134827    12.000000000000
         C            2.166031038397    -0.512529505518    -0.148060865173    12.000000000000
         C            1.092282038397    -0.026037505518     0.501686134827    12.000000000000
         C            4.324453038397     0.535019494482    -0.880850865173    12.000000000000
         H           -3.286536961603    -0.526544505518     1.233119134827     1.007825032230
         H           -1.197025961603     0.826683494482     1.648309134827     1.007825032230
         H            3.613163038397     0.346764494482     1.154324134827     1.007825032230
         H            4.114257038397    -1.171515505518     0.418399134827     1.007825032230
         H           -2.981293961603     1.741961494482    -0.788002865173     1.007825032230
         H           -4.527700961603     1.096308494482    -0.186938865173     1.007825032230
         H           -3.443556961603     1.954832494482     0.917191134827     1.007825032230
         H           -0.446992961603    -0.926595505518    -0.756888865173     1.007825032230
         H            2.006353038397    -1.143414505518    -1.024924865173     1.007825032230
         H            1.246173238397     0.526376194482     1.436400534827     1.007825032230
         H            4.314295038397    -0.028479505518    -1.818260865173     1.007825032230
         H            5.367949038397     0.715749494482    -0.607164865173     1.007825032230
         H            3.844290038397     1.499684494482    -1.063860865173     1.007825032230
         H           -3.717566961603    -1.058534505518    -0.979722865173     1.007825032230

  Basis Set: AUG-CC-PVTZ
    Blend: AUG-CC-PVTZ
  Basis Set: (AUG-CC-PVTZ AUX)
    Blend: AUG-CC-PVTZ-JKFIT
	 Reference Energy          =    -386.0619480718844443 [Eh]
	 Singles Energy            =      -0.0000000000000000 [Eh]
	 Same-Spin Energy          =      -0.4003870103677266 [Eh]
	 Opposite-Spin Energy      =      -1.3783895649935838 [Eh]
	 Correlation Energy        =      -1.7787765753613103 [Eh]
	 Total Energy              =    -387.8407246472457359 [Eh]

	 ================> DF-SCS-MP2 Energies <==================
	-----------------------------------------------------------
	 SCS Same-Spin Scale       =       0.3333333333333333 [-]
	 SCS Opposite-Spin Scale   =       1.2000000000000000 [-]
	 SCS Same-Spin Energy      =      -0.1334623367892422 [Eh]
	 SCS Opposite-Spin Energy  =      -1.6540674779923006 [Eh]
	 SCS Correlation Energy    =      -1.7875298147815428 [Eh]
	 SCS Total Energy          =    -387.8494778866659658 [Eh]
	-----------------------------------------------------------

  Dipole Moment: [D]
     X:    -1.1610      Y:     0.5917      Z:     0.6068     Total:     1.4375

*** Psi4 exiting successfully. Buy a developer a beer!
