                               Psi4 1.4a2.dev612

  ==> Input File <==

--------------------------------------------------------------------------
#psi4
#
memory 32 gb

molecule  {
0 1
  O       -2.7848290    -0.9154220    -0.7447340
  C       -2.7698910    -0.0438090     0.3861860
  C       -1.3446020     0.1937550     0.7721520
  C        3.5873700    -0.2293000     0.2222030
  C       -3.4755630     1.2700040     0.0649850
  C       -0.2802220    -0.2946410     0.1124460
  C        2.1660230    -0.5131760    -0.1475910
  C        1.0922740    -0.0266840     0.5021560
  C        4.3244450     0.5343730    -0.8803810
  H       -3.2865450    -0.5271910     1.2335890
  H       -1.1970340     0.8260370     1.6487790
  H        3.6131550     0.3461180     1.1547940
  H        4.1142490    -1.1721620     0.4188690
  H       -2.9813020     1.7413150    -0.7875330
  H       -4.5277090     1.0956620    -0.1864690
  H       -3.4435650     1.9541860     0.9176610
  H       -0.4470010    -0.9272420    -0.7564190
  H        2.0063450    -1.1440610    -1.0244550
  H        1.2456763     0.4852836     1.4662621
  H        4.3142870    -0.0291260    -1.8177910
  H        5.3679410     0.7151030    -0.6066950
  H        3.8442820     1.4990380    -1.0633910
  H       -3.7175750    -1.0591810    -0.9792530
units angstrom
no_reorient  #important for SAPT in psi4, default
symmetry c1  #important for SAPT in psi4, default
}

set PROPERTIES_ORIGIN ["COM"]
properties('MP2/aug-cc-pvtz', properties = ['dipole'])
--------------------------------------------------------------------------

    Molecular point group: c1
  Charge       = 0
  Multiplicity = 1
  Basis Set: AUG-CC-PVTZ
    Blend: AUG-CC-PVTZ
  Basis Set: (AUG-CC-PVTZ AUX)
    Blend: AUG-CC-PVTZ-JKFIT

    Orbital Energies [Eh]
    ---------------------

    Doubly Occupied:

       1A    -20.558707     2A    -11.286432     3A    -11.226423
       4A    -11.224245     5A    -11.223357     6A    -11.223274
       7A    -11.221767     8A    -11.220559     9A    -11.212953
      10A     -1.360746    11A     -1.097709    12A     -1.061338
      13A     -1.016056    14A     -0.962448    15A     -0.876600
      16A     -0.828539    17A     -0.751938    18A     -0.747384
      19A     -0.694854    20A     -0.637116    21A     -0.627351
      22A     -0.617410    23A     -0.589484    24A     -0.583274
      25A     -0.546451    26A     -0.543333    27A     -0.527208
      28A     -0.519078    29A     -0.500040    30A     -0.492641
      31A     -0.479011    32A     -0.467827    33A     -0.452791
      34A     -0.417510    35A     -0.297539

  @DF-RHF Final Energy:  -386.06113547394807

   => Energetics <=

    Nuclear Repulsion Energy =            418.2068772211103465
    One-Electron Energy =               -1352.3492390107669507
    Two-Electron Energy =                 548.0812263157085908
    Total Energy =                       -386.0611354739480703
  Basis Set: (AUG-CC-PVTZ AUX)
    Blend: AUG-CC-PVTZ-RI
    Molecular point group: c1

    Geometry (in Angstrom), charge = 0, multiplicity = 1:

       Center              X                  Y                   Z               Mass
    ------------   -----------------  -----------------  -----------------  -----------------
         O           -2.784817054322    -0.914452260881    -0.745438763207    15.994914619570
         C           -2.769879054322    -0.042839260881     0.385481236793    12.000000000000
         C           -1.344590054322     0.194724739119     0.771447236793    12.000000000000
         C            3.587381945678    -0.228330260881     0.221498236793    12.000000000000
         C           -3.475551054322     1.270973739119     0.064280236793    12.000000000000
         C           -0.280210054322    -0.293671260881     0.111741236793    12.000000000000
         C            2.166034945678    -0.512206260881    -0.148295763207    12.000000000000
         C            1.092285945678    -0.025714260881     0.501451236793    12.000000000000
         C            4.324456945678     0.535342739119    -0.881085763207    12.000000000000
         H           -3.286533054322    -0.526221260881     1.232884236793     1.007825032230
         H           -1.197022054322     0.827006739119     1.648074236793     1.007825032230
         H            3.613166945678     0.347087739119     1.154089236793     1.007825032230
         H            4.114260945678    -1.171192260881     0.418164236793     1.007825032230
         H           -2.981290054322     1.742284739119    -0.788237763207     1.007825032230
         H           -4.527697054322     1.096631739119    -0.187173763207     1.007825032230
         H           -3.443553054322     1.955155739119     0.916956236793     1.007825032230
         H           -0.446989054322    -0.926272260881    -0.757123763207     1.007825032230
         H            2.006356945678    -1.143091260881    -1.025159763207     1.007825032230
         H            1.245688245678     0.486253339119     1.465557336793     1.007825032230
         H            4.314298945678    -0.028156260881    -1.818495763207     1.007825032230
         H            5.367952945678     0.716072739119    -0.607399763207     1.007825032230
         H            3.844293945678     1.500007739119    -1.064095763207     1.007825032230
         H           -3.717563054322    -1.058211260881    -0.979957763207     1.007825032230

  Basis Set: AUG-CC-PVTZ
    Blend: AUG-CC-PVTZ
  Basis Set: (AUG-CC-PVTZ AUX)
    Blend: AUG-CC-PVTZ-JKFIT
	 Reference Energy          =    -386.0611354739480703 [Eh]
	 Singles Energy            =      -0.0000000000000000 [Eh]
	 Same-Spin Energy          =      -0.4004304537357758 [Eh]
	 Opposite-Spin Energy      =      -1.3784923364379202 [Eh]
	 Correlation Energy        =      -1.7789227901736959 [Eh]
	 Total Energy              =    -387.8400582641217511 [Eh]

	 ================> DF-SCS-MP2 Energies <==================
	-----------------------------------------------------------
	 SCS Same-Spin Scale       =       0.3333333333333333 [-]
	 SCS Opposite-Spin Scale   =       1.2000000000000000 [-]
	 SCS Same-Spin Energy      =      -0.1334768179119253 [Eh]
	 SCS Opposite-Spin Energy  =      -1.6541908037255042 [Eh]
	 SCS Correlation Energy    =      -1.7876676216374294 [Eh]
	 SCS Total Energy          =    -387.8488030955854811 [Eh]
	-----------------------------------------------------------

  Dipole Moment: [D]
     X:    -1.1611      Y:     0.5645      Z:     0.6177     Total:     1.4312

*** Psi4 exiting successfully. Buy a developer a beer!
