                               Psi4 1.4a2.dev612

  ==> Input File <==

--------------------------------------------------------------------------
#psi4
#
memory 32 gb

molecule  {
0 1
  O       -2.7848290    -0.9154220    -0.7447340
  C       -2.7698910    -0.0438090     0.3861860
  C       -1.3446020     0.1937550     0.7721520
  C        3.5873700    -0.2293000     0.2222030
  C       -3.4755630     1.2700040     0.0649850
  C       -0.2802220    -0.2946410     0.1124460
  C        2.1660230    -0.5131760    -0.1475910
  C        1.0922740    -0.0266840     0.5021560
  C        4.3244450     0.5343730    -0.8803810
  H       -3.2865450    -0.5271910     1.2335890
  H       -1.1970340     0.8260370     1.6487790
  H        3.6131550     0.3461180     1.1547940
  H        4.1142490    -1.1721620     0.4188690
  H       -2.9813020     1.7413150    -0.7875330
  H       -4.5277090     1.0956620    -0.1864690
  H       -3.4435650     1.9541860     0.9176610
  H       -0.4470010    -0.9272420    -0.7564190
  H        2.0063450    -1.1440610    -1.0244550
  H        1.2446985     0.4043913     1.5250455
  H        4.3142870    -0.0291260    -1.8177910
  H        5.3679410     0.7151030    -0.6066950
  H        3.8442820     1.4990380    -1.0633910
  H       -3.7175750    -1.0591810    -0.9792530
units angstrom
no_reorient  #important for SAPT in psi4, default
symmetry c1  #important for SAPT in psi4, default
}

set PROPERTIES_ORIGIN ["COM"]
properties('MP2/aug-cc-pvtz', properties = ['dipole'])
--------------------------------------------------------------------------

    Molecular point group: c1
  Charge       = 0
  Multiplicity = 1
  Basis Set: AUG-CC-PVTZ
    Blend: AUG-CC-PVTZ
  Basis Set: (AUG-CC-PVTZ AUX)
    Blend: AUG-CC-PVTZ-JKFIT

    Orbital Energies [Eh]
    ---------------------

    Doubly Occupied:

       1A    -20.558675     2A    -11.286380     3A    -11.227371
       4A    -11.225683     5A    -11.223465     6A    -11.223353
       7A    -11.221736     8A    -11.220493     9A    -11.213117
      10A     -1.360714    11A     -1.097553    12A     -1.061401
      13A     -1.015964    14A     -0.962433    15A     -0.876571
      16A     -0.828489    17A     -0.751325    18A     -0.746018
      19A     -0.694356    20A     -0.636808    21A     -0.627303
      22A     -0.617370    23A     -0.588650    24A     -0.583347
      25A     -0.546392    26A     -0.543170    27A     -0.526891
      28A     -0.519153    29A     -0.499499    30A     -0.492602
      31A     -0.479004    32A     -0.467860    33A     -0.452570
      34A     -0.416090    35A     -0.297659

  @DF-RHF Final Energy:  -386.05837594111773

   => Energetics <=

    Nuclear Repulsion Energy =            418.1207276282686962
    One-Electron Energy =               -1352.1792823038692859
    Two-Electron Energy =                 548.0001787344829154
    Total Energy =                       -386.0583759411176743
  Basis Set: (AUG-CC-PVTZ AUX)
    Blend: AUG-CC-PVTZ-RI
    Molecular point group: c1

    Geometry (in Angstrom), charge = 0, multiplicity = 1:

       Center              X                  Y                   Z               Mass
    ------------   -----------------  -----------------  -----------------  -----------------
         O           -2.784809239759    -0.913805770807    -0.745908559277    15.994914619570
         C           -2.769871239759    -0.042192770807     0.385011440723    12.000000000000
         C           -1.344582239759     0.195371229193     0.770977440723    12.000000000000
         C            3.587389760241    -0.227683770807     0.221028440723    12.000000000000
         C           -3.475543239759     1.271620229193     0.063810440723    12.000000000000
         C           -0.280202239759    -0.293024770807     0.111271440723    12.000000000000
         C            2.166042760241    -0.511559770807    -0.148765559277    12.000000000000
         C            1.092293760241    -0.025067770807     0.500981440723    12.000000000000
         C            4.324464760241     0.535989229193    -0.881555559277    12.000000000000
         H           -3.286525239759    -0.525574770807     1.232414440723     1.007825032230
         H           -1.197014239759     0.827653229193     1.647604440723     1.007825032230
         H            3.613174760241     0.347734229193     1.153619440723     1.007825032230
         H            4.114268760241    -1.170545770807     0.417694440723     1.007825032230
         H           -2.981282239759     1.742931229193    -0.788707559277     1.007825032230
         H           -4.527689239759     1.097278229193    -0.187643559277     1.007825032230
         H           -3.443545239759     1.955802229193     0.916486440723     1.007825032230
         H           -0.446981239759    -0.925625770807    -0.757593559277     1.007825032230
         H            2.006364760241    -1.142444770807    -1.025629559277     1.007825032230
         H            1.244718260241     0.406007529193     1.523870940723     1.007825032230
         H            4.314306760241    -0.027509770807    -1.818965559277     1.007825032230
         H            5.367960760241     0.716719229193    -0.607869559277     1.007825032230
         H            3.844301760241     1.500654229193    -1.064565559277     1.007825032230
         H           -3.717555239759    -1.057564770807    -0.980427559277     1.007825032230

  Basis Set: AUG-CC-PVTZ
    Blend: AUG-CC-PVTZ
  Basis Set: (AUG-CC-PVTZ AUX)
    Blend: AUG-CC-PVTZ-JKFIT
	 Reference Energy          =    -386.0583759411177311 [Eh]
	 Singles Energy            =      -0.0000000000000000 [Eh]
	 Same-Spin Energy          =      -0.4005644402435099 [Eh]
	 Opposite-Spin Energy      =      -1.3788336717486187 [Eh]
	 Correlation Energy        =      -1.7793981119921285 [Eh]
	 Total Energy              =    -387.8377740531098539 [Eh]

	 ================> DF-SCS-MP2 Energies <==================
	-----------------------------------------------------------
	 SCS Same-Spin Scale       =       0.3333333333333333 [-]
	 SCS Opposite-Spin Scale   =       1.2000000000000000 [-]
	 SCS Same-Spin Energy      =      -0.1335214800811700 [Eh]
	 SCS Opposite-Spin Energy  =      -1.6546004060983424 [Eh]
	 SCS Correlation Energy    =      -1.7881218861795123 [Eh]
	 SCS Total Energy          =    -387.8464978272972417 [Eh]
	-----------------------------------------------------------

  Dipole Moment: [D]
     X:    -1.1605      Y:     0.5065      Z:     0.6317     Total:     1.4151

*** Psi4 exiting successfully. Buy a developer a beer!
