                               Psi4 1.4a2.dev612

  ==> Input File <==

--------------------------------------------------------------------------
#psi4
#
memory 32 gb

molecule  {
0 1
  O       -2.7848290    -0.9154220    -0.7447340
  C       -2.7698910    -0.0438090     0.3861860
  C       -1.3446020     0.1937550     0.7721520
  C        3.5873700    -0.2293000     0.2222030
  C       -3.4755630     1.2700040     0.0649850
  C       -0.2802220    -0.2946410     0.1124460
  C        2.1660230    -0.5131760    -0.1475910
  C        1.0922740    -0.0266840     0.5021560
  C        4.3244450     0.5343730    -0.8803810
  H       -3.2865450    -0.5271910     1.2335890
  H       -1.1970340     0.8260370     1.6487790
  H        3.6131550     0.3461180     1.1547940
  H        4.1142490    -1.1721620     0.4188690
  H       -2.9813020     1.7413150    -0.7875330
  H       -4.5277090     1.0956620    -0.1864690
  H       -3.4435650     1.9541860     0.9176610
  H       -0.4470010    -0.9272420    -0.7564190
  H        2.0063450    -1.1440610    -1.0244550
  H        1.2451874     0.4448375     1.4956538
  H        4.3142870    -0.0291260    -1.8177910
  H        5.3679410     0.7151030    -0.6066950
  H        3.8442820     1.4990380    -1.0633910
  H       -3.7175750    -1.0591810    -0.9792530
units angstrom
no_reorient  #important for SAPT in psi4, default
symmetry c1  #important for SAPT in psi4, default
}

set PROPERTIES_ORIGIN ["COM"]
properties('MP2/aug-cc-pvtz', properties = ['dipole'])
--------------------------------------------------------------------------

    Molecular point group: c1
  Charge       = 0
  Multiplicity = 1
  Basis Set: AUG-CC-PVTZ
    Blend: AUG-CC-PVTZ
  Basis Set: (AUG-CC-PVTZ AUX)
    Blend: AUG-CC-PVTZ-JKFIT

    Orbital Energies [Eh]
    ---------------------

    Doubly Occupied:

       1A    -20.558692     2A    -11.286408     3A    -11.226819
       4A    -11.224881     5A    -11.223385     6A    -11.223345
       7A    -11.221755     8A    -11.220527     9A    -11.213025
      10A     -1.360731    11A     -1.097638    12A     -1.061364
      13A     -1.016014    14A     -0.962439    15A     -0.876583
      16A     -0.828511    17A     -0.751619    18A     -0.746815
      19A     -0.694629    20A     -0.636976    21A     -0.627323
      22A     -0.617399    23A     -0.589080    24A     -0.583336
      25A     -0.546424    26A     -0.543258    27A     -0.527074
      28A     -0.519117    29A     -0.499770    30A     -0.492645
      31A     -0.479002    32A     -0.467835    33A     -0.452696
      34A     -0.416888    35A     -0.297591

  @DF-RHF Final Energy:  -386.05995716209605

   => Energetics <=

    Nuclear Repulsion Energy =            418.1679118761861105
    One-Electron Energy =               -1352.2725460531437420
    Two-Electron Energy =                 548.0446770148616906
    Total Energy =                       -386.0599571620959978
  Basis Set: (AUG-CC-PVTZ AUX)
    Blend: AUG-CC-PVTZ-RI
    Molecular point group: c1

    Geometry (in Angstrom), charge = 0, multiplicity = 1:

       Center              X                  Y                   Z               Mass
    ------------   -----------------  -----------------  -----------------  -----------------
         O           -2.784813147040    -0.914129016244    -0.745673661242    15.994914619570
         C           -2.769875147040    -0.042516016244     0.385246338758    12.000000000000
         C           -1.344586147040     0.195047983756     0.771212338758    12.000000000000
         C            3.587385852960    -0.228007016244     0.221263338758    12.000000000000
         C           -3.475547147040     1.271296983756     0.064045338758    12.000000000000
         C           -0.280206147040    -0.293348016244     0.111506338758    12.000000000000
         C            2.166038852960    -0.511883016244    -0.148530661242    12.000000000000
         C            1.092289852960    -0.025391016244     0.501216338758    12.000000000000
         C            4.324460852960     0.535665983756    -0.881320661242    12.000000000000
         H           -3.286529147040    -0.525898016244     1.232649338758     1.007825032230
         H           -1.197018147040     0.827329983756     1.647839338758     1.007825032230
         H            3.613170852960     0.347410983756     1.153854338758     1.007825032230
         H            4.114264852960    -1.170869016244     0.417929338758     1.007825032230
         H           -2.981286147040     1.742607983756    -0.788472661242     1.007825032230
         H           -4.527693147040     1.096954983756    -0.187408661242     1.007825032230
         H           -3.443549147040     1.955478983756     0.916721338758     1.007825032230
         H           -0.446985147040    -0.925949016244    -0.757358661242     1.007825032230
         H            2.006360852960    -1.142768016244    -1.025394661242     1.007825032230
         H            1.245203252960     0.446130483756     1.494714138758     1.007825032230
         H            4.314302852960    -0.027833016244    -1.818730661242     1.007825032230
         H            5.367956852960     0.716395983756    -0.607634661242     1.007825032230
         H            3.844297852960     1.500330983756    -1.064330661242     1.007825032230
         H           -3.717559147040    -1.057888016244    -0.980192661242     1.007825032230

  Basis Set: AUG-CC-PVTZ
    Blend: AUG-CC-PVTZ
  Basis Set: (AUG-CC-PVTZ AUX)
    Blend: AUG-CC-PVTZ-JKFIT
	 Reference Energy          =    -386.0599571620960546 [Eh]
	 Singles Energy            =      -0.0000000000000000 [Eh]
	 Same-Spin Energy          =      -0.4004897726885555 [Eh]
	 Opposite-Spin Energy      =      -1.3786399441706061 [Eh]
	 Correlation Energy        =      -1.7791297168591615 [Eh]
	 Total Energy              =    -387.8390868789552428 [Eh]

	 ================> DF-SCS-MP2 Energies <==================
	-----------------------------------------------------------
	 SCS Same-Spin Scale       =       0.3333333333333333 [-]
	 SCS Opposite-Spin Scale   =       1.2000000000000000 [-]
	 SCS Same-Spin Energy      =      -0.1334965908961852 [Eh]
	 SCS Opposite-Spin Energy  =      -1.6543679330047272 [Eh]
	 SCS Correlation Energy    =      -1.7878645239009123 [Eh]
	 SCS Total Energy          =    -387.8478216859969621 [Eh]
	-----------------------------------------------------------

  Dipole Moment: [D]
     X:    -1.1608      Y:     0.5360      Z:     0.6260     Total:     1.4236

*** Psi4 exiting successfully. Buy a developer a beer!
