                               Psi4 1.4a2.dev612

  ==> Input File <==

--------------------------------------------------------------------------
#psi4
#
memory 32 gb

molecule  {
0 1
  O       -2.7848290    -0.9154220    -0.7447340
  C       -2.7698910    -0.0438090     0.3861860
  C       -1.3446020     0.1937550     0.7721520
  C        3.5873700    -0.2293000     0.2222030
  C       -3.4755630     1.2700040     0.0649850
  C       -0.2802220    -0.2946410     0.1124460
  C        2.1660230    -0.5131760    -0.1475910
  C        1.0922740    -0.0266840     0.5021560
  C        4.3244450     0.5343730    -0.8803810
  H       -3.2865450    -0.5271910     1.2335890
  H       -1.1970340     0.8260370     1.6487790
  H        3.6131550     0.3461180     1.1547940
  H        4.1142490    -1.1721620     0.4188690
  H       -2.9813020     1.7413150    -0.7875330
  H       -4.5277090     1.0956620    -0.1864690
  H       -3.4435650     1.9541860     0.9176610
  H       -0.4470010    -0.9272420    -0.7564190
  H        2.0063450    -1.1440610    -1.0244550
  H        1.2466541     0.5661759     1.4074787
  H        4.3142870    -0.0291260    -1.8177910
  H        5.3679410     0.7151030    -0.6066950
  H        3.8442820     1.4990380    -1.0633910
  H       -3.7175750    -1.0591810    -0.9792530
units angstrom
no_reorient  #important for SAPT in psi4, default
symmetry c1  #important for SAPT in psi4, default
}

set PROPERTIES_ORIGIN ["COM"]
properties('MP2/aug-cc-pvtz', properties = ['dipole'])
--------------------------------------------------------------------------

    Molecular point group: c1
  Charge       = 0
  Multiplicity = 1
  Basis Set: AUG-CC-PVTZ
    Blend: AUG-CC-PVTZ
  Basis Set: (AUG-CC-PVTZ AUX)
    Blend: AUG-CC-PVTZ-JKFIT

    Orbital Energies [Eh]
    ---------------------

    Doubly Occupied:

       1A    -20.558728     2A    -11.286462     3A    -11.225984
       4A    -11.223695     5A    -11.223259     6A    -11.223056
       7A    -11.221772     8A    -11.220612     9A    -11.212877
      10A     -1.360767    11A     -1.097802    12A     -1.061315
      13A     -1.016113    14A     -0.962464    15A     -0.876642
      16A     -0.828601    17A     -0.752407    18A     -0.747962
      19A     -0.695145    20A     -0.637291    21A     -0.627423
      22A     -0.617378    23A     -0.590141    24A     -0.583041
      25A     -0.546493    26A     -0.543438    27A     -0.527338
      28A     -0.519002    29A     -0.500543    30A     -0.492528
      31A     -0.479072    32A     -0.467880    33A     -0.452876
      34A     -0.418203    35A     -0.297480

  @DF-RHF Final Energy:  -386.06242519755779

   => Energetics <=

    Nuclear Repulsion Energy =            418.2586172292700439
    One-Electron Energy =               -1352.4505042340622367
    Two-Electron Energy =                 548.1294618072344065
    Total Energy =                       -386.0624251975577863
  Basis Set: (AUG-CC-PVTZ AUX)
    Blend: AUG-CC-PVTZ-RI
    Molecular point group: c1

    Geometry (in Angstrom), charge = 0, multiplicity = 1:

       Center              X                  Y                   Z               Mass
    ------------   -----------------  -----------------  -----------------  -----------------
         O           -2.784824868885    -0.915098750954    -0.744968967138    15.994914619570
         C           -2.769886868885    -0.043485750954     0.385951032862    12.000000000000
         C           -1.344597868885     0.194078249046     0.771917032862    12.000000000000
         C            3.587374131115    -0.228976750954     0.221968032862    12.000000000000
         C           -3.475558868885     1.270327249046     0.064750032862    12.000000000000
         C           -0.280217868885    -0.294317750954     0.112211032862    12.000000000000
         C            2.166027131115    -0.512852750954    -0.147825967138    12.000000000000
         C            1.092278131115    -0.026360750954     0.501921032862    12.000000000000
         C            4.324449131115     0.534696249046    -0.880615967138    12.000000000000
         H           -3.286540868885    -0.526867750954     1.233354032862     1.007825032230
         H           -1.197029868885     0.826360249046     1.648544032862     1.007825032230
         H            3.613159131115     0.346441249046     1.154559032862     1.007825032230
         H            4.114253131115    -1.171838750954     0.418634032862     1.007825032230
         H           -2.981297868885     1.741638249046    -0.787767967138     1.007825032230
         H           -4.527704868885     1.095985249046    -0.186703967138     1.007825032230
         H           -3.443560868885     1.954509249046     0.917426032862     1.007825032230
         H           -0.446996868885    -0.926918750954    -0.756653967138     1.007825032230
         H            2.006349131115    -1.143737750954    -1.024689967138     1.007825032230
         H            1.246658231115     0.566499149046     1.407243732862     1.007825032230
         H            4.314291131115    -0.028802750954    -1.818025967138     1.007825032230
         H            5.367945131115     0.715426249046    -0.606929967138     1.007825032230
         H            3.844286131115     1.499361249046    -1.063625967138     1.007825032230
         H           -3.717570868885    -1.058857750954    -0.979487967138     1.007825032230

  Basis Set: AUG-CC-PVTZ
    Blend: AUG-CC-PVTZ
  Basis Set: (AUG-CC-PVTZ AUX)
    Blend: AUG-CC-PVTZ-JKFIT
	 Reference Energy          =    -386.0624251975577863 [Eh]
	 Singles Energy            =      -0.0000000000000000 [Eh]
	 Same-Spin Energy          =      -0.4003598152772083 [Eh]
	 Opposite-Spin Energy      =      -1.3783290450653662 [Eh]
	 Correlation Energy        =      -1.7786888603425746 [Eh]
	 Total Energy              =    -387.8411140579003700 [Eh]

	 ================> DF-SCS-MP2 Energies <==================
	-----------------------------------------------------------
	 SCS Same-Spin Scale       =       0.3333333333333333 [-]
	 SCS Opposite-Spin Scale   =       1.2000000000000000 [-]
	 SCS Same-Spin Energy      =      -0.1334532717590694 [Eh]
	 SCS Opposite-Spin Energy  =      -1.6539948540784395 [Eh]
	 SCS Correlation Energy    =      -1.7874481258375090 [Eh]
	 SCS Total Energy          =    -387.8498733233952862 [Eh]
	-----------------------------------------------------------

  Dipole Moment: [D]
     X:    -1.1608      Y:     0.6176      Z:     0.5934     Total:     1.4425

*** Psi4 exiting successfully. Buy a developer a beer!
