                               Psi4 1.4a2.dev612

  ==> Input File <==

--------------------------------------------------------------------------
#psi4
#
memory 32 gb

molecule  {
0 1
  O       -2.7848290    -0.9154220    -0.7447340
  C       -2.7698910    -0.0438090     0.3861860
  C       -1.3446020     0.1937550     0.7721520
  C        3.5873700    -0.2293000     0.2222030
  C       -3.4755630     1.2700040     0.0649850
  C       -0.2802220    -0.2946410     0.1124460
  C        2.1660230    -0.5131760    -0.1475910
  C        1.0922740    -0.0266840     0.5021560
  C        4.3244450     0.5343730    -0.8803810
  H       -3.2865450    -0.5271910     1.2335890
  H       -1.2023958     0.5821917     1.8234522
  H        3.6131550     0.3461180     1.1547940
  H        4.1142490    -1.1721620     0.4188690
  H       -2.9813020     1.7413150    -0.7875330
  H       -4.5277090     1.0956620    -0.1864690
  H       -3.4435650     1.9541860     0.9176610
  H       -0.4470010    -0.9272420    -0.7564190
  H        2.0063450    -1.1440610    -1.0244550
  H        1.2471430     0.6066220     1.3780870
  H        4.3142870    -0.0291260    -1.8177910
  H        5.3679410     0.7151030    -0.6066950
  H        3.8442820     1.4990380    -1.0633910
  H       -3.7175750    -1.0591810    -0.9792530
units angstrom
no_reorient  #important for SAPT in psi4, default
symmetry c1  #important for SAPT in psi4, default
}

set PROPERTIES_ORIGIN ["COM"]
properties('MP2/aug-cc-pvtz', properties = ['dipole'])
--------------------------------------------------------------------------

    Molecular point group: c1
  Charge       = 0
  Multiplicity = 1
  Basis Set: AUG-CC-PVTZ
    Blend: AUG-CC-PVTZ
  Basis Set: (AUG-CC-PVTZ AUX)
    Blend: AUG-CC-PVTZ-JKFIT

    Orbital Energies [Eh]
    ---------------------

    Doubly Occupied:

       1A    -20.558429     2A    -11.286145     3A    -11.226840
       4A    -11.226394     5A    -11.224264     6A    -11.223737
       7A    -11.223342     8A    -11.219561     9A    -11.213162
      10A     -1.360586    11A     -1.098040    12A     -1.060735
      13A     -1.016026    14A     -0.962457    15A     -0.876814
      16A     -0.828749    17A     -0.752706    18A     -0.742074
      19A     -0.695448    20A     -0.637446    21A     -0.625595
      22A     -0.617681    23A     -0.591020    24A     -0.581400
      25A     -0.545132    26A     -0.544126    27A     -0.525838
      28A     -0.519338    29A     -0.498489    30A     -0.492427
      31A     -0.479553    32A     -0.467661    33A     -0.451262
      34A     -0.417972    35A     -0.297656

  @DF-RHF Final Energy:  -386.05683687391939

   => Energetics <=

    Nuclear Repulsion Energy =            418.0413927861277443
    One-Electron Energy =               -1352.0202507316953415
    Two-Electron Energy =                 547.9220210716481461
    Total Energy =                       -386.0568368739194511
  Basis Set: (AUG-CC-PVTZ AUX)
    Blend: AUG-CC-PVTZ-RI
    Molecular point group: c1

    Geometry (in Angstrom), charge = 0, multiplicity = 1:

       Center              X                  Y                   Z               Mass
    ------------   -----------------  -----------------  -----------------  -----------------
         O           -2.784785924740    -0.913473187536    -0.746130054752    15.994914619570
         C           -2.769847924740    -0.041860187536     0.384789945248    12.000000000000
         C           -1.344558924740     0.195703812464     0.770755945248    12.000000000000
         C            3.587413075260    -0.227351187536     0.220806945248    12.000000000000
         C           -3.475519924740     1.271952812464     0.063588945248    12.000000000000
         C           -0.280178924740    -0.292692187536     0.111049945248    12.000000000000
         C            2.166066075260    -0.511227187536    -0.148987054752    12.000000000000
         C            1.092317075260    -0.024735187536     0.500759945248    12.000000000000
         C            4.324488075260     0.536321812464    -0.881777054752    12.000000000000
         H           -3.286501924740    -0.525242187536     1.232192945248     1.007825032230
         H           -1.202352724740     0.584140512464     1.822056145248     1.007825032230
         H            3.613198075260     0.348066812464     1.153397945248     1.007825032230
         H            4.114292075260    -1.170213187536     0.417472945248     1.007825032230
         H           -2.981258924740     1.743263812464    -0.788929054752     1.007825032230
         H           -4.527665924740     1.097610812464    -0.187865054752     1.007825032230
         H           -3.443521924740     1.956134812464     0.916264945248     1.007825032230
         H           -0.446957924740    -0.925293187536    -0.757815054752     1.007825032230
         H            2.006388075260    -1.142112187536    -1.025851054752     1.007825032230
         H            1.247186075260     0.608570812464     1.376690945248     1.007825032230
         H            4.314330075260    -0.027177187536    -1.819187054752     1.007825032230
         H            5.367984075260     0.717051812464    -0.608091054752     1.007825032230
         H            3.844325075260     1.500986812464    -1.064787054752     1.007825032230
         H           -3.717531924740    -1.057232187536    -0.980649054752     1.007825032230

  Basis Set: AUG-CC-PVTZ
    Blend: AUG-CC-PVTZ
  Basis Set: (AUG-CC-PVTZ AUX)
    Blend: AUG-CC-PVTZ-JKFIT
	 Reference Energy          =    -386.0568368739193943 [Eh]
	 Singles Energy            =      -0.0000000000000000 [Eh]
	 Same-Spin Energy          =      -0.4006061791778406 [Eh]
	 Opposite-Spin Energy      =      -1.3790535414460032 [Eh]
	 Correlation Energy        =      -1.7796597206238438 [Eh]
	 Total Energy              =    -387.8364965945432346 [Eh]

	 ================> DF-SCS-MP2 Energies <==================
	-----------------------------------------------------------
	 SCS Same-Spin Scale       =       0.3333333333333333 [-]
	 SCS Opposite-Spin Scale   =       1.2000000000000000 [-]
	 SCS Same-Spin Energy      =      -0.1335353930592802 [Eh]
	 SCS Opposite-Spin Energy  =      -1.6548642497352037 [Eh]
	 SCS Correlation Energy    =      -1.7883996427944839 [Eh]
	 SCS Total Energy          =    -387.8452365167138964 [Eh]
	-----------------------------------------------------------

  Dipole Moment: [D]
     X:    -1.1084      Y:     0.4640      Z:     0.6410     Total:     1.3619

*** Psi4 exiting successfully. Buy a developer a beer!
