                               Psi4 1.4a2.dev612

  ==> Input File <==

--------------------------------------------------------------------------
#psi4
#
memory 32 gb

molecule  {
0 1
  O       -2.7848290    -0.9154220    -0.7447340
  C       -2.7698910    -0.0438090     0.3861860
  C       -1.3446020     0.1937550     0.7721520
  C        3.5873700    -0.2293000     0.2222030
  C       -3.4755630     1.2700040     0.0649850
  C       -0.2802220    -0.2946410     0.1124460
  C        2.1660230    -0.5131760    -0.1475910
  C        1.0922740    -0.0266840     0.5021560
  C        4.3244450     0.5343730    -0.8803810
  H       -3.2865450    -0.5271910     1.2335890
  H       -1.1970340     0.8260370     1.6487790
  H        3.6131550     0.3461180     1.1547940
  H        4.1142490    -1.1721620     0.4188690
  H       -2.9813020     1.7413150    -0.7875330
  H       -4.5277090     1.0956620    -0.1864690
  H       -3.4435650     1.9541860     0.9176610
  H       -0.4470010    -0.9272420    -0.7564190
  H        2.0063450    -1.1440610    -1.0244550
  H        1.2471430     0.6066220     1.3780870
  H        4.3142870    -0.0291260    -1.8177910
  H        5.3679410     0.7151030    -0.6066950
  H        3.8442820     1.4990380    -1.0633910
  H       -3.7175750    -1.0591810    -0.9792530
units angstrom
no_reorient  #important for SAPT in psi4, default
symmetry c1  #important for SAPT in psi4, default
}

set PROPERTIES_ORIGIN ["COM"]
properties('MP2/aug-cc-pvtz', properties = ['dipole'])
--------------------------------------------------------------------------

    Molecular point group: c1
  Charge       = 0
  Multiplicity = 1
  Basis Set: AUG-CC-PVTZ
    Blend: AUG-CC-PVTZ
  Basis Set: (AUG-CC-PVTZ AUX)
    Blend: AUG-CC-PVTZ-JKFIT

    Orbital Energies [Eh]
    ---------------------

    Doubly Occupied:

       1A    -20.558732     2A    -11.286468     3A    -11.225923
       4A    -11.223662     5A    -11.223242     6A    -11.222998
       7A    -11.221772     8A    -11.220633     9A    -11.212873
      10A     -1.360771    11A     -1.097819    12A     -1.061318
      13A     -1.016125    14A     -0.962470    15A     -0.876666
      16A     -0.828632    17A     -0.752448    18A     -0.748038
      19A     -0.695207    20A     -0.637323    21A     -0.627465
      22A     -0.617336    23A     -0.590375    24A     -0.582883
      25A     -0.546507    26A     -0.543469    27A     -0.527335
      28A     -0.518969    29A     -0.500763    30A     -0.492431
      31A     -0.479127    32A     -0.467946    33A     -0.452861
      34A     -0.418267    35A     -0.297473

  @DF-RHF Final Energy:  -386.06258672446000

   => Energetics <=

    Nuclear Repulsion Energy =            418.2708888703904790
    One-Electron Energy =               -1352.4742993713985015
    Two-Electron Energy =                 548.1408237765479043
    Total Energy =                       -386.0625867244600613
  Basis Set: (AUG-CC-PVTZ AUX)
    Blend: AUG-CC-PVTZ-RI
    Molecular point group: c1

    Geometry (in Angstrom), charge = 0, multiplicity = 1:

       Center              X                  Y                   Z               Mass
    ------------   -----------------  -----------------  -----------------  -----------------
         O           -2.784828776167    -0.915421995591    -0.744734069104    15.994914619570
         C           -2.769890776167    -0.043808995591     0.386185930896    12.000000000000
         C           -1.344601776167     0.193755004409     0.772151930896    12.000000000000
         C            3.587370223833    -0.229299995591     0.222202930896    12.000000000000
         C           -3.475562776167     1.270004004409     0.064984930896    12.000000000000
         C           -0.280221776167    -0.294640995591     0.112445930896    12.000000000000
         C            2.166023223833    -0.513175995591    -0.147591069104    12.000000000000
         C            1.092274223833    -0.026683995591     0.502155930896    12.000000000000
         C            4.324445223833     0.534373004409    -0.880381069104    12.000000000000
         H           -3.286544776167    -0.527190995591     1.233588930896     1.007825032230
         H           -1.197033776167     0.826037004409     1.648778930896     1.007825032230
         H            3.613155223833     0.346118004409     1.154793930896     1.007825032230
         H            4.114249223833    -1.172161995591     0.418868930896     1.007825032230
         H           -2.981301776167     1.741315004409    -0.787533069104     1.007825032230
         H           -4.527708776167     1.095662004409    -0.186469069104     1.007825032230
         H           -3.443564776167     1.954186004409     0.917660930896     1.007825032230
         H           -0.447000776167    -0.927241995591    -0.756419069104     1.007825032230
         H            2.006345223833    -1.144060995591    -1.024455069104     1.007825032230
         H            1.247143223833     0.606622004409     1.378086930896     1.007825032230
         H            4.314287223833    -0.029125995591    -1.817791069104     1.007825032230
         H            5.367941223833     0.715103004409    -0.606695069104     1.007825032230
         H            3.844282223833     1.499038004409    -1.063391069104     1.007825032230
         H           -3.717574776167    -1.059180995591    -0.979253069104     1.007825032230

  Basis Set: AUG-CC-PVTZ
    Blend: AUG-CC-PVTZ
  Basis Set: (AUG-CC-PVTZ AUX)
    Blend: AUG-CC-PVTZ-JKFIT
	 Reference Energy          =    -386.0625867244600045 [Eh]
	 Singles Energy            =      -0.0000000000000000 [Eh]
	 Same-Spin Energy          =      -0.4003491284959980 [Eh]
	 Opposite-Spin Energy      =      -1.3783078687695880 [Eh]
	 Correlation Energy        =      -1.7786569972655859 [Eh]
	 Total Energy              =    -387.8412437217256183 [Eh]

	 ================> DF-SCS-MP2 Energies <==================
	-----------------------------------------------------------
	 SCS Same-Spin Scale       =       0.3333333333333333 [-]
	 SCS Opposite-Spin Scale   =       1.2000000000000000 [-]
	 SCS Same-Spin Energy      =      -0.1334497094986660 [Eh]
	 SCS Opposite-Spin Energy  =      -1.6539694425235056 [Eh]
	 SCS Correlation Energy    =      -1.7874191520221716 [Eh]
	 SCS Total Energy          =    -387.8500058764821574 [Eh]
	-----------------------------------------------------------

  Dipole Moment: [D]
     X:    -1.1601      Y:     0.6420      Z:     0.5775     Total:     1.4463

*** Psi4 exiting successfully. Buy a developer a beer!
