                               Psi4 1.4a2.dev612

  ==> Input File <==

--------------------------------------------------------------------------
#psi4
#
memory 32 gb

molecule  {
0 1
  O       -2.7848290    -0.9154220    -0.7447340
  C       -2.7698910    -0.0438090     0.3861860
  C       -1.3446020     0.1937550     0.7721520
  C        3.5873700    -0.2293000     0.2222030
  C       -3.4755630     1.2700040     0.0649850
  C       -0.2802220    -0.2946410     0.1124460
  C        2.1660230    -0.5131760    -0.1475910
  C        1.0922740    -0.0266840     0.5021560
  C        4.3244450     0.5343730    -0.8803810
  H       -3.2865450    -0.5271910     1.2335890
  H       -1.1970340     0.8260370     1.6487790
  H        3.6131550     0.3461180     1.1547940
  H        4.1142490    -1.1721620     0.4188690
  H       -2.9813020     1.7413150    -0.7875330
  H       -4.5277090     1.0956620    -0.1864690
  H       -3.4435650     1.9541860     0.9176610
  H       -0.4446124    -0.6846644    -0.9329138
  H        2.0063450    -1.1440610    -1.0244550
  H        1.2471430     0.6066220     1.3780870
  H        4.3142870    -0.0291260    -1.8177910
  H        5.3679410     0.7151030    -0.6066950
  H        3.8442820     1.4990380    -1.0633910
  H       -3.7175750    -1.0591810    -0.9792530
units angstrom
no_reorient  #important for SAPT in psi4, default
symmetry c1  #important for SAPT in psi4, default
}

set PROPERTIES_ORIGIN ["COM"]
properties('MP2/aug-cc-pvtz', properties = ['dipole'])
--------------------------------------------------------------------------

    Molecular point group: c1
  Charge       = 0
  Multiplicity = 1
  Basis Set: AUG-CC-PVTZ
    Blend: AUG-CC-PVTZ
  Basis Set: (AUG-CC-PVTZ AUX)
    Blend: AUG-CC-PVTZ-JKFIT

    Orbital Energies [Eh]
    ---------------------

    Doubly Occupied:

       1A    -20.558574     2A    -11.286842     3A    -11.226752
       4A    -11.225667     5A    -11.223746     6A    -11.223133
       7A    -11.222874     8A    -11.221184     9A    -11.212871
      10A     -1.360671    11A     -1.097407    12A     -1.061457
      13A     -1.015980    14A     -0.962493    15A     -0.876690
      16A     -0.828657    17A     -0.752408    18A     -0.743457
      19A     -0.694962    20A     -0.634657    21A     -0.627104
      22A     -0.617887    23A     -0.590636    24A     -0.582642
      25A     -0.546969    26A     -0.542757    27A     -0.527345
      28A     -0.517814    29A     -0.500231    30A     -0.491640
      31A     -0.479045    32A     -0.468677    33A     -0.452208
      34A     -0.414520    35A     -0.297633

  @DF-RHF Final Energy:  -386.05618823751433

   => Energetics <=

    Nuclear Repulsion Energy =            418.1425248494302309
    One-Electron Energy =               -1352.2222513264252939
    Two-Electron Energy =                 548.0235382394807857
    Total Energy =                       -386.0561882375143341
  Basis Set: (AUG-CC-PVTZ AUX)
    Blend: AUG-CC-PVTZ-RI
    Molecular point group: c1

    Geometry (in Angstrom), charge = 0, multiplicity = 1:

       Center              X                  Y                   Z               Mass
    ------------   -----------------  -----------------  -----------------  -----------------
         O           -2.784847865823    -0.917360672206    -0.743323525255    15.994914619570
         C           -2.769909865823    -0.045747672206     0.387596474745    12.000000000000
         C           -1.344620865823     0.191816327794     0.773562474745    12.000000000000
         C            3.587351134177    -0.231238672206     0.223613474745    12.000000000000
         C           -3.475581865823     1.268065327794     0.066395474745    12.000000000000
         C           -0.280240865823    -0.296579672206     0.113856474745    12.000000000000
         C            2.166004134177    -0.515114672206    -0.146180525255    12.000000000000
         C            1.092255134177    -0.028622672206     0.503566474745    12.000000000000
         C            4.324426134177     0.532434327794    -0.878970525255    12.000000000000
         H           -3.286563865823    -0.529129672206     1.234999474745     1.007825032230
         H           -1.197052865823     0.824098327794     1.650189474745     1.007825032230
         H            3.613136134177     0.344179327794     1.156204474745     1.007825032230
         H            4.114230134177    -1.174100672206     0.420279474745     1.007825032230
         H           -2.981320865823     1.739376327794    -0.786122525255     1.007825032230
         H           -4.527727865823     1.093723327794    -0.185058525255     1.007825032230
         H           -3.443583865823     1.952247327794     0.919071474745     1.007825032230
         H           -0.444631265823    -0.686603072206    -0.931503325255     1.007825032230
         H            2.006326134177    -1.145999672206    -1.023044525255     1.007825032230
         H            1.247124134177     0.604683327794     1.379497474745     1.007825032230
         H            4.314268134177    -0.031064672206    -1.816380525255     1.007825032230
         H            5.367922134177     0.713164327794    -0.605284525255     1.007825032230
         H            3.844263134177     1.497099327794    -1.061980525255     1.007825032230
         H           -3.717593865823    -1.061119672206    -0.977842525255     1.007825032230

  Basis Set: AUG-CC-PVTZ
    Blend: AUG-CC-PVTZ
  Basis Set: (AUG-CC-PVTZ AUX)
    Blend: AUG-CC-PVTZ-JKFIT
	 Reference Energy          =    -386.0561882375143341 [Eh]
	 Singles Energy            =      -0.0000000000000000 [Eh]
	 Same-Spin Energy          =      -0.4006483112321779 [Eh]
	 Opposite-Spin Energy      =      -1.3790418385548140 [Eh]
	 Correlation Energy        =      -1.7796901497869919 [Eh]
	 Total Energy              =    -387.8358783873013067 [Eh]

	 ================> DF-SCS-MP2 Energies <==================
	-----------------------------------------------------------
	 SCS Same-Spin Scale       =       0.3333333333333333 [-]
	 SCS Opposite-Spin Scale   =       1.2000000000000000 [-]
	 SCS Same-Spin Energy      =      -0.1335494370773926 [Eh]
	 SCS Opposite-Spin Energy  =      -1.6548502062657768 [Eh]
	 SCS Correlation Energy    =      -1.7883996433431695 [Eh]
	 SCS Total Energy          =    -387.8445878808574889 [Eh]
	-----------------------------------------------------------

  Dipole Moment: [D]
     X:    -1.1710      Y:     0.8087      Z:     0.5014     Total:     1.5089

*** Psi4 exiting successfully. Buy a developer a beer!
