                               Psi4 1.4a2.dev612

  ==> Input File <==

--------------------------------------------------------------------------
#psi4
#
memory 32 gb

molecule  {
0 1
  O       -2.7848290    -0.9154220    -0.7447340
  C       -2.7698910    -0.0438090     0.3861860
  C       -1.3446020     0.1937550     0.7721520
  C        3.5873700    -0.2293000     0.2222030
  C       -3.4755630     1.2700040     0.0649850
  C       -0.2802220    -0.2946410     0.1124460
  C        2.1660230    -0.5131760    -0.1475910
  C        1.0922740    -0.0266840     0.5021560
  C        4.3244450     0.5343730    -0.8803810
  H       -3.2865450    -0.5271910     1.2335890
  H       -1.1970340     0.8260370     1.6487790
  H        3.6131550     0.3461180     1.1547940
  H        4.1142490    -1.1721620     0.4188690
  H       -2.9813020     1.7413150    -0.7875330
  H       -4.5277090     1.0956620    -0.1864690
  H       -3.4435650     1.9541860     0.9176610
  H       -0.4462048    -0.8463828    -0.8152506
  H        2.0063450    -1.1440610    -1.0244550
  H        1.2471430     0.6066220     1.3780870
  H        4.3142870    -0.0291260    -1.8177910
  H        5.3679410     0.7151030    -0.6066950
  H        3.8442820     1.4990380    -1.0633910
  H       -3.7175750    -1.0591810    -0.9792530
units angstrom
no_reorient  #important for SAPT in psi4, default
symmetry c1  #important for SAPT in psi4, default
}

set PROPERTIES_ORIGIN ["COM"]
properties('MP2/aug-cc-pvtz', properties = ['dipole'])
--------------------------------------------------------------------------

    Molecular point group: c1
  Charge       = 0
  Multiplicity = 1
  Basis Set: AUG-CC-PVTZ
    Blend: AUG-CC-PVTZ
  Basis Set: (AUG-CC-PVTZ AUX)
    Blend: AUG-CC-PVTZ-JKFIT

    Orbital Energies [Eh]
    ---------------------

    Doubly Occupied:

       1A    -20.558709     2A    -11.286506     3A    -11.225895
       4A    -11.223896     5A    -11.223250     6A    -11.223013
       7A    -11.222031     8A    -11.220737     9A    -11.212896
      10A     -1.360760    11A     -1.097772    12A     -1.061344
      13A     -1.016114    14A     -0.962475    15A     -0.876705
      16A     -0.828666    17A     -0.752451    18A     -0.747479
      19A     -0.695154    20A     -0.636945    21A     -0.627363
      22A     -0.617545    23A     -0.590571    24A     -0.582830
      25A     -0.546700    26A     -0.543308    27A     -0.527316
      28A     -0.518593    29A     -0.501028    30A     -0.492300
      31A     -0.479133    32A     -0.468147    33A     -0.452739
      34A     -0.417816    35A     -0.297489

  @DF-RHF Final Energy:  -386.06195906976205

   => Energetics <=

    Nuclear Repulsion Energy =            418.2658868964161343
    One-Electron Energy =               -1352.4643418542498239
    Two-Electron Energy =                 548.1364958880717495
    Total Energy =                       -386.0619590697619969
  Basis Set: (AUG-CC-PVTZ AUX)
    Blend: AUG-CC-PVTZ-RI
    Molecular point group: c1

    Geometry (in Angstrom), charge = 0, multiplicity = 1:

       Center              X                  Y                   Z               Mass
    ------------   -----------------  -----------------  -----------------  -----------------
         O           -2.784835139385    -0.916068221129    -0.744263887821    15.994914619570
         C           -2.769897139385    -0.044455221129     0.386656112179    12.000000000000
         C           -1.344608139385     0.193108778871     0.772622112179    12.000000000000
         C            3.587363860615    -0.229946221129     0.222673112179    12.000000000000
         C           -3.475569139385     1.269357778871     0.065455112179    12.000000000000
         C           -0.280228139385    -0.295287221129     0.112916112179    12.000000000000
         C            2.166016860615    -0.513822221129    -0.147120887821    12.000000000000
         C            1.092267860615    -0.027330221129     0.502626112179    12.000000000000
         C            4.324438860615     0.533726778871    -0.879910887821    12.000000000000
         H           -3.286551139385    -0.527837221129     1.234059112179     1.007825032230
         H           -1.197040139385     0.825390778871     1.649249112179     1.007825032230
         H            3.613148860615     0.345471778871     1.155264112179     1.007825032230
         H            4.114242860615    -1.172808221129     0.419339112179     1.007825032230
         H           -2.981308139385     1.740668778871    -0.787062887821     1.007825032230
         H           -4.527715139385     1.095015778871    -0.185998887821     1.007825032230
         H           -3.443571139385     1.953539778871     0.918131112179     1.007825032230
         H           -0.446210939385    -0.847029021129    -0.814780487821     1.007825032230
         H            2.006338860615    -1.144707221129    -1.023984887821     1.007825032230
         H            1.247136860615     0.605975778871     1.378557112179     1.007825032230
         H            4.314280860615    -0.029772221129    -1.817320887821     1.007825032230
         H            5.367934860615     0.714456778871    -0.606224887821     1.007825032230
         H            3.844275860615     1.498391778871    -1.062920887821     1.007825032230
         H           -3.717581139385    -1.059827221129    -0.978782887821     1.007825032230

  Basis Set: AUG-CC-PVTZ
    Blend: AUG-CC-PVTZ
  Basis Set: (AUG-CC-PVTZ AUX)
    Blend: AUG-CC-PVTZ-JKFIT
	 Reference Energy          =    -386.0619590697620538 [Eh]
	 Singles Energy            =      -0.0000000000000000 [Eh]
	 Same-Spin Energy          =      -0.4003739629514198 [Eh]
	 Opposite-Spin Energy      =      -1.3783625141036551 [Eh]
	 Correlation Energy        =      -1.7787364770550749 [Eh]
	 Total Energy              =    -387.8406955468171304 [Eh]

	 ================> DF-SCS-MP2 Energies <==================
	-----------------------------------------------------------
	 SCS Same-Spin Scale       =       0.3333333333333333 [-]
	 SCS Opposite-Spin Scale   =       1.2000000000000000 [-]
	 SCS Same-Spin Energy      =      -0.1334579876504733 [Eh]
	 SCS Opposite-Spin Energy  =      -1.6540350169243860 [Eh]
	 SCS Correlation Energy    =      -1.7874930045748594 [Eh]
	 SCS Total Energy          =    -387.8494520743369094 [Eh]
	-----------------------------------------------------------

  Dipole Moment: [D]
     X:    -1.1614      Y:     0.6937      Z:     0.5452     Total:     1.4586

*** Psi4 exiting successfully. Buy a developer a beer!
