                               Psi4 1.4a2.dev612

  ==> Input File <==

--------------------------------------------------------------------------
#psi4
#
memory 32 gb

molecule  {
0 1
  O       -2.7848290    -0.9154220    -0.7447340
  C       -2.7698910    -0.0438090     0.3861860
  C       -1.3446020     0.1937550     0.7721520
  C        3.5873700    -0.2293000     0.2222030
  C       -3.4755630     1.2700040     0.0649850
  C       -0.2802220    -0.2946410     0.1124460
  C        2.1660230    -0.5131760    -0.1475910
  C        1.0922740    -0.0266840     0.5021560
  C        4.3244450     0.5343730    -0.8803810
  H       -3.2865450    -0.5271910     1.2335890
  H       -1.2015022     0.6228326     1.7943400
  H        3.6131550     0.3461180     1.1547940
  H        4.1142490    -1.1721620     0.4188690
  H       -2.9813020     1.7413150    -0.7875330
  H       -4.5277090     1.0956620    -0.1864690
  H       -3.4435650     1.9541860     0.9176610
  H       -0.4470010    -0.9272420    -0.7564190
  H        2.0063450    -1.1440610    -1.0244550
  H        1.2471430     0.6066220     1.3780870
  H        4.3142870    -0.0291260    -1.8177910
  H        5.3679410     0.7151030    -0.6066950
  H        3.8442820     1.4990380    -1.0633910
  H       -3.7175750    -1.0591810    -0.9792530
units angstrom
no_reorient  #important for SAPT in psi4, default
symmetry c1  #important for SAPT in psi4, default
}

set PROPERTIES_ORIGIN ["COM"]
properties('MP2/aug-cc-pvtz', properties = ['dipole'])
--------------------------------------------------------------------------

    Molecular point group: c1
  Charge       = 0
  Multiplicity = 1
  Basis Set: AUG-CC-PVTZ
    Blend: AUG-CC-PVTZ
  Basis Set: (AUG-CC-PVTZ AUX)
    Blend: AUG-CC-PVTZ-JKFIT

    Orbital Energies [Eh]
    ---------------------

    Doubly Occupied:

       1A    -20.558485     2A    -11.286227     3A    -11.226562
       4A    -11.225454     5A    -11.223835     6A    -11.223556
       7A    -11.223056     8A    -11.219781     9A    -11.213057
      10A     -1.360617    11A     -1.097959    12A     -1.060865
      13A     -1.016015    14A     -0.962471    15A     -0.876796
      16A     -0.828682    17A     -0.752568    18A     -0.743741
      19A     -0.695428    20A     -0.637384    21A     -0.625887
      22A     -0.617637    23A     -0.590995    24A     -0.581786
      25A     -0.545549    26A     -0.544149    27A     -0.526061
      28A     -0.519301    29A     -0.499069    30A     -0.492403
      31A     -0.479424    32A     -0.467640    33A     -0.451763
      34A     -0.418069    35A     -0.297591

  @DF-RHF Final Energy:  -386.05872838896755

   => Energetics <=

    Nuclear Repulsion Energy =            418.0999297025210808
    One-Electron Energy =               -1352.1375915642099699
    Two-Electron Energy =                 547.9789334727213372
    Total Energy =                       -386.0587283889675518
  Basis Set: (AUG-CC-PVTZ AUX)
    Blend: AUG-CC-PVTZ-RI
    Molecular point group: c1

    Geometry (in Angstrom), charge = 0, multiplicity = 1:

       Center              X                  Y                   Z               Mass
    ------------   -----------------  -----------------  -----------------  -----------------
         O           -2.784793066378    -0.913797989011    -0.745897390477    15.994914619570
         C           -2.769855066378    -0.042184989011     0.385022609523    12.000000000000
         C           -1.344566066378     0.195379010989     0.770988609523    12.000000000000
         C            3.587405933622    -0.227675989011     0.221039609523    12.000000000000
         C           -3.475527066378     1.271628010989     0.063821609523    12.000000000000
         C           -0.280186066378    -0.293016989011     0.111282609523    12.000000000000
         C            2.166058933622    -0.511551989011    -0.148754390477    12.000000000000
         C            1.092309933622    -0.025059989011     0.500992609523    12.000000000000
         C            4.324480933622     0.535997010989    -0.881544390477    12.000000000000
         H           -3.286509066378    -0.525566989011     1.232425609523     1.007825032230
         H           -1.201466266378     0.624456610989     1.793176609523     1.007825032230
         H            3.613190933622     0.347742010989     1.153630609523     1.007825032230
         H            4.114284933622    -1.170537989011     0.417705609523     1.007825032230
         H           -2.981266066378     1.742939010989    -0.788696390477     1.007825032230
         H           -4.527673066378     1.097286010989    -0.187632390477     1.007825032230
         H           -3.443529066378     1.955810010989     0.916497609523     1.007825032230
         H           -0.446965066378    -0.925617989011    -0.757582390477     1.007825032230
         H            2.006380933622    -1.142436989011    -1.025618390477     1.007825032230
         H            1.247178933622     0.608246010989     1.376923609523     1.007825032230
         H            4.314322933622    -0.027501989011    -1.818954390477     1.007825032230
         H            5.367976933622     0.716727010989    -0.607858390477     1.007825032230
         H            3.844317933622     1.500662010989    -1.064554390477     1.007825032230
         H           -3.717539066378    -1.057556989011    -0.980416390477     1.007825032230

  Basis Set: AUG-CC-PVTZ
    Blend: AUG-CC-PVTZ
  Basis Set: (AUG-CC-PVTZ AUX)
    Blend: AUG-CC-PVTZ-JKFIT
	 Reference Energy          =    -386.0587283889675518 [Eh]
	 Singles Energy            =      -0.0000000000000000 [Eh]
	 Same-Spin Energy          =      -0.4005251122094077 [Eh]
	 Opposite-Spin Energy      =      -1.3788305059925181 [Eh]
	 Correlation Energy        =      -1.7793556182019259 [Eh]
	 Total Energy              =    -387.8380840071694706 [Eh]

	 ================> DF-SCS-MP2 Energies <==================
	-----------------------------------------------------------
	 SCS Same-Spin Scale       =       0.3333333333333333 [-]
	 SCS Opposite-Spin Scale   =       1.2000000000000000 [-]
	 SCS Same-Spin Energy      =      -0.1335083707364692 [Eh]
	 SCS Opposite-Spin Energy  =      -1.6545966071910216 [Eh]
	 SCS Correlation Energy    =      -1.7881049779274909 [Eh]
	 SCS Total Energy          =    -387.8468333668950550 [Eh]
	-----------------------------------------------------------

  Dipole Moment: [D]
     X:    -1.1226      Y:     0.4973      Z:     0.6381     Total:     1.3837

*** Psi4 exiting successfully. Buy a developer a beer!
