                               Psi4 1.4a2.dev612

  ==> Input File <==

--------------------------------------------------------------------------
#psi4
#
memory 32 gb

molecule  {
0 1
  O       -2.7848290    -0.9154220    -0.7447340
  C       -2.7698910    -0.0438090     0.3861860
  C       -1.3446020     0.1937550     0.7721520
  C        3.5873700    -0.2293000     0.2222030
  C       -3.4755630     1.2700040     0.0649850
  C       -0.2802220    -0.2946410     0.1124460
  C        2.1660230    -0.5131760    -0.1475910
  C        1.0922740    -0.0266840     0.5021560
  C        4.3244450     0.5343730    -0.8803810
  H       -3.2865450    -0.5271910     1.2335890
  H       -1.1979276     0.7853961     1.6778912
  H        3.6131550     0.3461180     1.1547940
  H        4.1142490    -1.1721620     0.4188690
  H       -2.9813020     1.7413150    -0.7875330
  H       -4.5277090     1.0956620    -0.1864690
  H       -3.4435650     1.9541860     0.9176610
  H       -0.4470010    -0.9272420    -0.7564190
  H        2.0063450    -1.1440610    -1.0244550
  H        1.2471430     0.6066220     1.3780870
  H        4.3142870    -0.0291260    -1.8177910
  H        5.3679410     0.7151030    -0.6066950
  H        3.8442820     1.4990380    -1.0633910
  H       -3.7175750    -1.0591810    -0.9792530
units angstrom
no_reorient  #important for SAPT in psi4, default
symmetry c1  #important for SAPT in psi4, default
}

set PROPERTIES_ORIGIN ["COM"]
properties('MP2/aug-cc-pvtz', properties = ['dipole'])
--------------------------------------------------------------------------

    Molecular point group: c1
  Charge       = 0
  Multiplicity = 1
  Basis Set: AUG-CC-PVTZ
    Blend: AUG-CC-PVTZ
  Basis Set: (AUG-CC-PVTZ AUX)
    Blend: AUG-CC-PVTZ-JKFIT

    Orbital Energies [Eh]
    ---------------------

    Doubly Occupied:

       1A    -20.558692     2A    -11.286450     3A    -11.225947
       4A    -11.223707     5A    -11.223262     6A    -11.223025
       7A    -11.221830     8A    -11.220503     9A    -11.212861
      10A     -1.360745    11A     -1.097815    12A     -1.061263
      13A     -1.016082    14A     -0.962484    15A     -0.876699
      16A     -0.828606    17A     -0.752400    18A     -0.747811
      19A     -0.695268    20A     -0.637305    21A     -0.627158
      22A     -0.617401    23A     -0.590574    24A     -0.582793
      25A     -0.546446    26A     -0.543738    27A     -0.527078
      28A     -0.519048    29A     -0.500560    30A     -0.492408
      31A     -0.479137    32A     -0.467821    33A     -0.452827
      34A     -0.418263    35A     -0.297471

  @DF-RHF Final Energy:  -386.06245285166762

   => Energetics <=

    Nuclear Repulsion Energy =            418.2540821639369710
    One-Electron Energy =               -1352.4421154320873484
    Two-Electron Energy =                 548.1255804164827623
    Total Energy =                       -386.0624528516675582
  Basis Set: (AUG-CC-PVTZ AUX)
    Blend: AUG-CC-PVTZ-RI
    Molecular point group: c1

    Geometry (in Angstrom), charge = 0, multiplicity = 1:

       Center              X                  Y                   Z               Mass
    ------------   -----------------  -----------------  -----------------  -----------------
         O           -2.784821634529    -0.915097194115    -0.744966733378    15.994914619570
         C           -2.769883634529    -0.043484194115     0.385953266622    12.000000000000
         C           -1.344594634529     0.194079805885     0.771919266622    12.000000000000
         C            3.587377365471    -0.228975194115     0.221970266622    12.000000000000
         C           -3.475555634529     1.270328805885     0.064752266622    12.000000000000
         C           -0.280214634529    -0.294316194115     0.112213266622    12.000000000000
         C            2.166030365471    -0.512851194115    -0.147823733378    12.000000000000
         C            1.092281365471    -0.026359194115     0.501923266622    12.000000000000
         C            4.324452365471     0.534697805885    -0.880613733378    12.000000000000
         H           -3.286537634529    -0.526866194115     1.233356266622     1.007825032230
         H           -1.197920234529     0.785720905885     1.677658466622     1.007825032230
         H            3.613162365471     0.346442805885     1.154561266622     1.007825032230
         H            4.114256365471    -1.171837194115     0.418636266622     1.007825032230
         H           -2.981294634529     1.741639805885    -0.787765733378     1.007825032230
         H           -4.527701634529     1.095986805885    -0.186701733378     1.007825032230
         H           -3.443557634529     1.954510805885     0.917428266622     1.007825032230
         H           -0.446993634529    -0.926917194115    -0.756651733378     1.007825032230
         H            2.006352365471    -1.143736194115    -1.024687733378     1.007825032230
         H            1.247150365471     0.606946805885     1.377854266622     1.007825032230
         H            4.314294365471    -0.028801194115    -1.818023733378     1.007825032230
         H            5.367948365471     0.715427805885    -0.606927733378     1.007825032230
         H            3.844289365471     1.499362805885    -1.063623733378     1.007825032230
         H           -3.717567634529    -1.058856194115    -0.979485733378     1.007825032230

  Basis Set: AUG-CC-PVTZ
    Blend: AUG-CC-PVTZ
  Basis Set: (AUG-CC-PVTZ AUX)
    Blend: AUG-CC-PVTZ-JKFIT
	 Reference Energy          =    -386.0624528516676151 [Eh]
	 Singles Energy            =      -0.0000000000000000 [Eh]
	 Same-Spin Energy          =      -0.4003518933252961 [Eh]
	 Opposite-Spin Energy      =      -1.3783367387024805 [Eh]
	 Correlation Energy        =      -1.7786886320277766 [Eh]
	 Total Energy              =    -387.8411414836953668 [Eh]

	 ================> DF-SCS-MP2 Energies <==================
	-----------------------------------------------------------
	 SCS Same-Spin Scale       =       0.3333333333333333 [-]
	 SCS Opposite-Spin Scale   =       1.2000000000000000 [-]
	 SCS Same-Spin Energy      =      -0.1334506311084320 [Eh]
	 SCS Opposite-Spin Energy  =      -1.6540040864429766 [Eh]
	 SCS Correlation Energy    =      -1.7874547175514086 [Eh]
	 SCS Total Energy          =    -387.8499075692189990 [Eh]
	-----------------------------------------------------------

  Dipole Moment: [D]
     X:    -1.1578      Y:     0.6167      Z:     0.5957     Total:     1.4407

*** Psi4 exiting successfully. Buy a developer a beer!
