                               Psi4 1.4a2.dev612

  ==> Input File <==

--------------------------------------------------------------------------
#psi4
#
memory 32 gb

molecule  {
0 1
  O       -2.7848290    -0.9154220    -0.7447340
  C       -2.7698910    -0.0438090     0.3861860
  C       -1.3446020     0.1937550     0.7721520
  C        3.5873700    -0.2293000     0.2222030
  C       -3.4755630     1.2700040     0.0649850
  C       -0.2802220    -0.2946410     0.1124460
  C        2.1660230    -0.5131760    -0.1475910
  C        1.0922740    -0.0266840     0.5021560
  C        4.3244450     0.5343730    -0.8803810
  H       -3.2865450    -0.5271910     1.2335890
  H       -1.1970340     0.8260370     1.6487790
  H        3.6131550     0.3461180     1.1547940
  H        4.1142490    -1.1721620     0.4188690
  H       -2.9813020     1.7413150    -0.7875330
  H       -4.5277090     1.0956620    -0.1864690
  H       -3.4435650     1.9541860     0.9176610
  H       -0.4450105    -0.7250940    -0.9034980
  H        2.0063450    -1.1440610    -1.0244550
  H        1.2471430     0.6066220     1.3780870
  H        4.3142870    -0.0291260    -1.8177910
  H        5.3679410     0.7151030    -0.6066950
  H        3.8442820     1.4990380    -1.0633910
  H       -3.7175750    -1.0591810    -0.9792530
units angstrom
no_reorient  #important for SAPT in psi4, default
symmetry c1  #important for SAPT in psi4, default
}

set PROPERTIES_ORIGIN ["COM"]
properties('MP2/aug-cc-pvtz', properties = ['dipole'])
--------------------------------------------------------------------------

    Molecular point group: c1
  Charge       = 0
  Multiplicity = 1
  Basis Set: AUG-CC-PVTZ
    Blend: AUG-CC-PVTZ
  Basis Set: (AUG-CC-PVTZ AUX)
    Blend: AUG-CC-PVTZ-JKFIT

    Orbital Energies [Eh]
    ---------------------

    Doubly Occupied:

       1A    -20.558620     2A    -11.286728     3A    -11.225839
       4A    -11.225598     5A    -11.223328     6A    -11.223137
       7A    -11.222871     8A    -11.221044     9A    -11.212885
      10A     -1.360703    11A     -1.097525    12A     -1.061419
      13A     -1.016024    14A     -0.962484    15A     -0.876702
      16A     -0.828664    17A     -0.752416    18A     -0.744761
      19A     -0.695021    20A     -0.635384    21A     -0.627186
      22A     -0.617813    23A     -0.590659    24A     -0.582695
      25A     -0.546912    26A     -0.542926    27A     -0.527328
      28A     -0.518002    29A     -0.500599    30A     -0.491878
      31A     -0.479078    32A     -0.468540    33A     -0.452365
      34A     -0.415630    35A     -0.297582

  @DF-RHF Final Energy:  -386.05828227912576

   => Energetics <=

    Nuclear Repulsion Energy =            418.1865965055313268
    One-Electron Energy =               -1352.3090683555046780
    Two-Electron Energy =                 548.0641895708477023
    Total Energy =                       -386.0582822791257058
  Basis Set: (AUG-CC-PVTZ AUX)
    Blend: AUG-CC-PVTZ-RI
    Molecular point group: c1

    Geometry (in Angstrom), charge = 0, multiplicity = 1:

       Center              X                  Y                   Z               Mass
    ------------   -----------------  -----------------  -----------------  -----------------
         O           -2.784844684213    -0.917037559437    -0.743558615896    15.994914619570
         C           -2.769906684213    -0.045424559437     0.387361384104    12.000000000000
         C           -1.344617684213     0.192139440563     0.773327384104    12.000000000000
         C            3.587354315787    -0.230915559437     0.223378384104    12.000000000000
         C           -3.475578684213     1.268388440563     0.066160384104    12.000000000000
         C           -0.280237684213    -0.296256559437     0.113621384104    12.000000000000
         C            2.166007315787    -0.514791559437    -0.146415615896    12.000000000000
         C            1.092258315787    -0.028299559437     0.503331384104    12.000000000000
         C            4.324429315787     0.532757440563    -0.879205615896    12.000000000000
         H           -3.286560684213    -0.528806559437     1.234764384104     1.007825032230
         H           -1.197049684213     0.824421440563     1.649954384104     1.007825032230
         H            3.613139315787     0.344502440563     1.155969384104     1.007825032230
         H            4.114233315787    -1.173777559437     0.420044384104     1.007825032230
         H           -2.981317684213     1.739699440563    -0.786357615896     1.007825032230
         H           -4.527724684213     1.094046440563    -0.185293615896     1.007825032230
         H           -3.443580684213     1.952570440563     0.918836384104     1.007825032230
         H           -0.445026184213    -0.726709559437    -0.902322615896     1.007825032230
         H            2.006329315787    -1.145676559437    -1.023279615896     1.007825032230
         H            1.247127315787     0.605006440563     1.379262384104     1.007825032230
         H            4.314271315787    -0.030741559437    -1.816615615896     1.007825032230
         H            5.367925315787     0.713487440563    -0.605519615896     1.007825032230
         H            3.844266315787     1.497422440563    -1.062215615896     1.007825032230
         H           -3.717590684213    -1.060796559437    -0.978077615896     1.007825032230

  Basis Set: AUG-CC-PVTZ
    Blend: AUG-CC-PVTZ
  Basis Set: (AUG-CC-PVTZ AUX)
    Blend: AUG-CC-PVTZ-JKFIT
	 Reference Energy          =    -386.0582822791257627 [Eh]
	 Singles Energy            =      -0.0000000000000000 [Eh]
	 Same-Spin Energy          =      -0.4005526372705671 [Eh]
	 Opposite-Spin Energy      =      -1.3787940621686050 [Eh]
	 Correlation Energy        =      -1.7793466994391722 [Eh]
	 Total Energy              =    -387.8376289785649078 [Eh]

	 ================> DF-SCS-MP2 Energies <==================
	-----------------------------------------------------------
	 SCS Same-Spin Scale       =       0.3333333333333333 [-]
	 SCS Opposite-Spin Scale   =       1.2000000000000000 [-]
	 SCS Same-Spin Energy      =      -0.1335175457568557 [Eh]
	 SCS Opposite-Spin Energy  =      -1.6545528746023259 [Eh]
	 SCS Correlation Energy    =      -1.7880704203591815 [Eh]
	 SCS Total Energy          =    -387.8463526994849531 [Eh]
	-----------------------------------------------------------

  Dipole Moment: [D]
     X:    -1.1680      Y:     0.7787      Z:     0.5096     Total:     1.4934

*** Psi4 exiting successfully. Buy a developer a beer!
