                               Psi4 1.4a2.dev612

  ==> Input File <==

--------------------------------------------------------------------------
#psi4
#
memory 32 gb

molecule  {
0 1
  O       -2.7848290    -0.9154220    -0.7447340
  C       -2.7698910    -0.0438090     0.3861860
  C       -1.3446020     0.1937550     0.7721520
  C        3.5873700    -0.2293000     0.2222030
  C       -3.4755630     1.2700040     0.0649850
  C       -0.2802220    -0.2946410     0.1124460
  C        2.1660230    -0.5131760    -0.1475910
  C        1.0922740    -0.0266840     0.5021560
  C        4.3244450     0.5343730    -0.8803810
  H       -3.2865450    -0.5271910     1.2335890
  H       -1.1970340     0.8260370     1.6487790
  H        3.6131550     0.3461180     1.1547940
  H        4.1142490    -1.1721620     0.4188690
  H       -2.9813020     1.7413150    -0.7875330
  H       -4.5277090     1.0956620    -0.1864690
  H       -3.4435650     1.9541860     0.9176610
  H       -0.4470010    -0.9272420    -0.7564190
  H        2.0063450    -1.1440610    -1.0244550
  H        1.2442096     0.3639452     1.5544371
  H        4.3142870    -0.0291260    -1.8177910
  H        5.3679410     0.7151030    -0.6066950
  H        3.8442820     1.4990380    -1.0633910
  H       -3.7175750    -1.0591810    -0.9792530
units angstrom
no_reorient  #important for SAPT in psi4, default
symmetry c1  #important for SAPT in psi4, default
}

set PROPERTIES_ORIGIN ["COM"]
properties('MP2/aug-cc-pvtz', properties = ['dipole'])
--------------------------------------------------------------------------

    Molecular point group: c1
  Charge       = 0
  Multiplicity = 1
  Basis Set: AUG-CC-PVTZ
    Blend: AUG-CC-PVTZ
  Basis Set: (AUG-CC-PVTZ AUX)
    Blend: AUG-CC-PVTZ-JKFIT

    Orbital Energies [Eh]
    ---------------------

    Doubly Occupied:

       1A    -20.558656     2A    -11.286349     3A    -11.228146
       4A    -11.226552     5A    -11.223573     6A    -11.223339
       7A    -11.221714     8A    -11.220457     9A    -11.213228
      10A     -1.360695    11A     -1.097461    12A     -1.061449
      13A     -1.015908    14A     -0.962430    15A     -0.876564
      16A     -0.828474    17A     -0.751092    18A     -0.744995
      19A     -0.694039    20A     -0.636615    21A     -0.627291
      22A     -0.617323    23A     -0.588226    24A     -0.583285
      25A     -0.546357    26A     -0.543069    27A     -0.526661
      28A     -0.519183    29A     -0.499236    30A     -0.492499
      31A     -0.479013    32A     -0.467894    33A     -0.452417
      34A     -0.415121    35A     -0.297742

  @DF-RHF Final Energy:  -386.05635161118232

   => Energetics <=

    Nuclear Repulsion Energy =            418.0658153318821064
    One-Electron Energy =               -1352.0702310245419540
    Two-Electron Energy =                 547.9480640814775825
    Total Energy =                       -386.0563516111823219
  Basis Set: (AUG-CC-PVTZ AUX)
    Blend: AUG-CC-PVTZ-RI
    Molecular point group: c1

    Geometry (in Angstrom), charge = 0, multiplicity = 1:

       Center              X                  Y                   Z               Mass
    ------------   -----------------  -----------------  -----------------  -----------------
         O           -2.784805332477    -0.913482526170    -0.746143456512    15.994914619570
         C           -2.769867332477    -0.041869526170     0.384776543488    12.000000000000
         C           -1.344578332477     0.195694473830     0.770742543488    12.000000000000
         C            3.587393667523    -0.227360526170     0.220793543488    12.000000000000
         C           -3.475539332477     1.271943473830     0.063575543488    12.000000000000
         C           -0.280198332477    -0.292701526170     0.111036543488    12.000000000000
         C            2.166046667523    -0.511236526170    -0.149000456512    12.000000000000
         C            1.092297667523    -0.024744526170     0.500746543488    12.000000000000
         C            4.324468667523     0.536312473830    -0.881790456512    12.000000000000
         H           -3.286521332477    -0.525251526170     1.232179543488     1.007825032230
         H           -1.197010332477     0.827976473830     1.647369543488     1.007825032230
         H            3.613178667523     0.348057473830     1.153384543488     1.007825032230
         H            4.114272667523    -1.170222526170     0.417459543488     1.007825032230
         H           -2.981278332477     1.743254473830    -0.788942456512     1.007825032230
         H           -4.527685332477     1.097601473830    -0.187878456512     1.007825032230
         H           -3.443541332477     1.956125473830     0.916251543488     1.007825032230
         H           -0.446977332477    -0.925302526170    -0.757828456512     1.007825032230
         H            2.006368667523    -1.142121526170    -1.025864456512     1.007825032230
         H            1.244233267523     0.365884673830     1.553027643488     1.007825032230
         H            4.314310667523    -0.027186526170    -1.819200456512     1.007825032230
         H            5.367964667523     0.717042473830    -0.608104456512     1.007825032230
         H            3.844305667523     1.500977473830    -1.064800456512     1.007825032230
         H           -3.717551332477    -1.057241526170    -0.980662456512     1.007825032230

  Basis Set: AUG-CC-PVTZ
    Blend: AUG-CC-PVTZ
  Basis Set: (AUG-CC-PVTZ AUX)
    Blend: AUG-CC-PVTZ-JKFIT
	 Reference Energy          =    -386.0563516111823219 [Eh]
	 Singles Energy            =      -0.0000000000000000 [Eh]
	 Same-Spin Energy          =      -0.4006537578258504 [Eh]
	 Opposite-Spin Energy      =      -1.3790736428275054 [Eh]
	 Correlation Energy        =      -1.7797274006533559 [Eh]
	 Total Energy              =    -387.8360790118356931 [Eh]

	 ================> DF-SCS-MP2 Energies <==================
	-----------------------------------------------------------
	 SCS Same-Spin Scale       =       0.3333333333333333 [-]
	 SCS Opposite-Spin Scale   =       1.2000000000000000 [-]
	 SCS Same-Spin Energy      =      -0.1335512526086168 [Eh]
	 SCS Opposite-Spin Energy  =      -1.6548883713930065 [Eh]
	 SCS Correlation Energy    =      -1.7884396240016232 [Eh]
	 SCS Total Energy          =    -387.8447912351839477 [Eh]
	-----------------------------------------------------------

  Dipole Moment: [D]
     X:    -1.1601      Y:     0.4762      Z:     0.6349     Total:     1.4056

*** Psi4 exiting successfully. Buy a developer a beer!
