                               Psi4 1.4a3.dev225

  ==> Input File <==

--------------------------------------------------------------------------
#psi4
#
memory 32 gb

molecule  {
0 1
  S       -0.9837490    -1.1570500    -0.0000620
  O        1.9818930    -1.3277110    -0.0003480
  C        0.1340568     0.1314128    -0.0000047
  C       -0.4985190     1.3749350     0.0002250
  C        1.5865110    -0.1585480    -0.0001750
  C       -1.9046620     1.2489520     0.0003500
  C        2.5479920     1.0088850    -0.0001140
  C       -2.3081880    -0.0718450     0.0002130
  H        0.0283220     2.3240690     0.0003010
  H       -2.5968940     2.0844950     0.0005320
  H        2.3937560     1.6342750    -0.8845650
  H        3.5659410     0.6177950    -0.0003540
  H        2.3940470     1.6339130     0.8846460
  H       -3.3221070    -0.4534470     0.0002580
units angstrom
no_reorient  #important for SAPT in psi4, default
symmetry c1  #important for SAPT in psi4, default
}

set PROPERTIES_ORIGIN ["COM"]
properties('MP2/aug-cc-pvtz', properties = ['dipole'])
--------------------------------------------------------------------------

    Molecular point group: c1
  Charge       = 0
  Multiplicity = 1
  Basis Set: AUG-CC-PVTZ
    Blend: AUG-CC-PVTZ
  Basis Set: (AUG-CC-PVTZ AUX)
    Blend: AUG-CC-PVTZ-JKFIT

    Orbital Energies [Eh]
    ---------------------

    Doubly Occupied:

       1A    -91.998312     2A    -20.546717     3A    -11.345944
       4A    -11.283064     5A    -11.274400     6A    -11.266427
       7A    -11.252557     8A    -11.241638     9A     -8.998411
      10A     -6.679257    11A     -6.678700    12A     -6.678022
      13A     -1.377802    14A     -1.188928    15A     -1.042125
      16A     -1.006115    17A     -0.982537    18A     -0.838100
      19A     -0.772604    20A     -0.727434    21A     -0.694394
      22A     -0.623382    23A     -0.617417    24A     -0.610169
      25A     -0.574970    26A     -0.557365    27A     -0.542700
      28A     -0.533110    29A     -0.494122    30A     -0.490854
      31A     -0.426264    32A     -0.359775    33A     -0.337242

  @DF-RHF Final Energy:  -703.20440273146596

   => Energetics <=

    Nuclear Repulsion Energy =            412.4261369158494404
    One-Electron Energy =               -1783.1793605048762856
    Two-Electron Energy =                 667.5488208575609406
    Total Energy =                       -703.2044027314659616
  Basis Set: (AUG-CC-PVTZ AUX)
    Blend: AUG-CC-PVTZ-RI
    Molecular point group: c1

    Geometry (in Angstrom), charge = 0, multiplicity = 1:

       Center              X                  Y                   Z               Mass
    ------------   -----------------  -----------------  -----------------  -----------------
         S           -0.963246064810    -1.094184329513    -0.000055711030    31.972071174400
         O            2.002395935190    -1.264845329513    -0.000341711030    15.994914619570
         C            0.154559735190     0.194278470487     0.000001588970    12.000000000000
         C           -0.478016064810     1.437800670487     0.000231288970    12.000000000000
         C            1.607013935190    -0.095682329513    -0.000168711030    12.000000000000
         C           -1.884159064810     1.311817670487     0.000356288970    12.000000000000
         C            2.568494935190     1.071750670487    -0.000107711030    12.000000000000
         C           -2.287685064810    -0.008979329513     0.000219288970    12.000000000000
         H            0.048824935190     2.386934670487     0.000307288970     1.007825032230
         H           -2.576391064810     2.147360670487     0.000538288970     1.007825032230
         H            2.414258935190     1.697140670487    -0.884558711030     1.007825032230
         H            3.586443935190     0.680660670487    -0.000347711030     1.007825032230
         H            2.414549935190     1.696778670487     0.884652288970     1.007825032230
         H           -3.301604064810    -0.390581329513     0.000264288970     1.007825032230

  Basis Set: AUG-CC-PVTZ
    Blend: AUG-CC-PVTZ
  Basis Set: (AUG-CC-PVTZ AUX)
    Blend: AUG-CC-PVTZ-JKFIT
	 Reference Energy          =    -703.2044027314659616 [Eh]
	 Singles Energy            =      -0.0000000000000000 [Eh]
	 Same-Spin Energy          =      -0.3850615625063405 [Eh]
	 Opposite-Spin Energy      =      -1.1756382001708683 [Eh]
	 Correlation Energy        =      -1.5606997626772088 [Eh]
	 Total Energy              =    -704.7651024941432070 [Eh]

	 ================> DF-SCS-MP2 Energies <==================
	-----------------------------------------------------------
	 SCS Same-Spin Scale       =       0.3333333333333333 [-]
	 SCS Opposite-Spin Scale   =       1.2000000000000000 [-]
	 SCS Same-Spin Energy      =      -0.1283538541687801 [Eh]
	 SCS Opposite-Spin Energy  =      -1.4107658402050418 [Eh]
	 SCS Correlation Energy    =      -1.5391196943738219 [Eh]
	 SCS Total Energy          =    -704.7435224258397284 [Eh]
	-----------------------------------------------------------

  Dipole Moment: [D]
     X:    -1.5834      Y:     3.0215      Z:     0.0005     Total:     3.4112

*** Psi4 exiting successfully. Buy a developer a beer!
