                               Psi4 1.3.2 release

  ==> Input File <==

--------------------------------------------------------------------------
#psi4
#
memory 32 gb

molecule  {
0 1
  S       -0.9837490    -1.1570500    -0.0000620
  O        1.9818930    -1.3277110    -0.0003480
  C        0.2126941     0.2220559    -0.0000006
  C       -0.4985190     1.3749350     0.0002250
  C        1.5865110    -0.1585480    -0.0001750
  C       -1.9046620     1.2489520     0.0003500
  C        2.5479920     1.0088850    -0.0001140
  C       -2.3081880    -0.0718450     0.0002130
  H        0.0283220     2.3240690     0.0003010
  H       -2.5968940     2.0844950     0.0005320
  H        2.3937560     1.6342750    -0.8845650
  H        3.5659410     0.6177950    -0.0003540
  H        2.3940470     1.6339130     0.8846460
  H       -3.3221070    -0.4534470     0.0002580
units angstrom
no_reorient  #important for SAPT in psi4, default
symmetry c1  #important for SAPT in psi4, default
}

set PROPERTIES_ORIGIN ["COM"]
properties('MP2/aug-cc-pvtz', properties = ['dipole'])
--------------------------------------------------------------------------

    Molecular point group: c1
  Charge       = 0
  Multiplicity = 1
  Basis Set: AUG-CC-PVTZ
    Blend: AUG-CC-PVTZ
  Basis Set: (AUG-CC-PVTZ AUX)
    Blend: AUG-CC-PVTZ-JKFIT

    Orbital Energies [Eh]
    ---------------------

    Doubly Occupied:

       1A    -91.993416     2A    -20.547266     3A    -11.343275
       4A    -11.291506     5A    -11.276285     6A    -11.272469
       7A    -11.254269     8A    -11.238439     9A     -8.992133
      10A     -6.672964    11A     -6.672167    12A     -6.671694
      13A     -1.377809    14A     -1.184595    15A     -1.055932
      16A     -0.998618    17A     -0.983842    18A     -0.852783
      19A     -0.777102    20A     -0.728119    21A     -0.693002
      22A     -0.627553    23A     -0.622901    24A     -0.611762
      25A     -0.582062    26A     -0.560072    27A     -0.539392
      28A     -0.520417    29A     -0.494157    30A     -0.477579
      31A     -0.424408    32A     -0.365631    33A     -0.339368

  @DF-RHF Final Energy:  -703.19663226771991

   => Energetics <=

    Nuclear Repulsion Energy =            411.4820882630666006
    One-Electron Energy =               -1781.2714681388854387
    Two-Electron Energy =                 666.5927476080989891
    Total Energy =                       -703.1966322677199059
  Basis Set: (AUG-CC-PVTZ AUX)
    Blend: AUG-CC-PVTZ-RI
    Molecular point group: c1

    Geometry (in Angstrom), charge = 0, multiplicity = 1:

       Center              X                  Y                   Z               Mass
    ------------   -----------------  -----------------  -----------------  -----------------
         S           -0.970734503232    -1.102816051008    -0.000056101463    31.972071174400
         O            1.994907496768    -1.273477051008    -0.000342101463    15.994914619570
         C            0.225708596768     0.276289848992     0.000005298537    12.000000000000
         C           -0.485504503232     1.429168948992     0.000230898537    12.000000000000
         C            1.599525496768    -0.104314051008    -0.000169101463    12.000000000000
         C           -1.891647503232     1.303185948992     0.000355898537    12.000000000000
         C            2.561006496768     1.063118948992    -0.000108101463    12.000000000000
         C           -2.295173503232    -0.017611051008     0.000218898537    12.000000000000
         H            0.041336496768     2.378302948992     0.000306898537     1.007825032230
         H           -2.583879503232     2.138728948992     0.000537898537     1.007825032230
         H            2.406770496768     1.688508948992    -0.884559101463     1.007825032230
         H            3.578955496768     0.672028948992    -0.000348101463     1.007825032230
         H            2.407061496768     1.688146948992     0.884651898537     1.007825032230
         H           -3.309092503232    -0.399213051008     0.000263898537     1.007825032230

  Basis Set: AUG-CC-PVTZ
    Blend: AUG-CC-PVTZ
  Basis Set: (AUG-CC-PVTZ AUX)
    Blend: AUG-CC-PVTZ-JKFIT
	 Reference Energy          =    -703.1966322677199059 [Eh]
	 Singles Energy            =      -0.0000000000000000 [Eh]
	 Same-Spin Energy          =      -0.3847556482003058 [Eh]
	 Opposite-Spin Energy      =      -1.1762027691707317 [Eh]
	 Correlation Energy        =      -1.5609584173710376 [Eh]
	 Total Energy              =    -704.7575906850909178 [Eh]

	 ================> DF-SCS-MP2 Energies <==================
	-----------------------------------------------------------
	 SCS Same-Spin Scale       =       0.3333333333333333 [-]
	 SCS Opposite-Spin Scale   =       1.2000000000000000 [-]
	 SCS Same-Spin Energy      =      -0.1282518827334353 [Eh]
	 SCS Opposite-Spin Energy  =      -1.4114433230048780 [Eh]
	 SCS Correlation Energy    =      -1.5396952057383133 [Eh]
	 SCS Total Energy          =    -704.7363274734582319 [Eh]
	-----------------------------------------------------------

  Dipole Moment: [D]
     X:    -1.7200      Y:     3.1925      Z:     0.0006     Total:     3.6264

*** Psi4 exiting successfully. Buy a developer a beer!
