                               Psi4 1.3.2 release

  ==> Input File <==

--------------------------------------------------------------------------
#psi4
#
memory 32 gb

molecule  {
0 1
  S       -1.1138139    -1.0316964    -0.0000321
  O        1.9818930    -1.3277110    -0.0003480
  C        0.1471630     0.1465200    -0.0000040
  C       -0.4985190     1.3749350     0.0002250
  C        1.5865110    -0.1585480    -0.0001750
  C       -1.9046620     1.2489520     0.0003500
  C        2.5479920     1.0088850    -0.0001140
  C       -2.3081880    -0.0718450     0.0002130
  H        0.0283220     2.3240690     0.0003010
  H       -2.5968940     2.0844950     0.0005320
  H        2.3937560     1.6342750    -0.8845650
  H        3.5659410     0.6177950    -0.0003540
  H        2.3940470     1.6339130     0.8846460
  H       -3.3221070    -0.4534470     0.0002580
units angstrom
no_reorient  #important for SAPT in psi4, default
symmetry c1  #important for SAPT in psi4, default
}

set PROPERTIES_ORIGIN ["COM"]
properties('MP2/aug-cc-pvtz', properties = ['dipole'])
--------------------------------------------------------------------------

    Molecular point group: c1
  Charge       = 0
  Multiplicity = 1
  Basis Set: AUG-CC-PVTZ
    Blend: AUG-CC-PVTZ
  Basis Set: (AUG-CC-PVTZ AUX)
    Blend: AUG-CC-PVTZ-JKFIT

    Orbital Energies [Eh]
    ---------------------

    Doubly Occupied:

       1A    -91.993034     2A    -20.543791     3A    -11.346037
       4A    -11.269974     5A    -11.269231     6A    -11.264362
       7A    -11.245432     8A    -11.241394     9A     -8.998686
      10A     -6.680228    11A     -6.678654    12A     -6.678122
      13A     -1.374903    14A     -1.219237    15A     -1.055901
      16A     -1.011517    17A     -0.984567    18A     -0.839659
      19A     -0.777206    20A     -0.728739    21A     -0.695860
      22A     -0.630983    23A     -0.620306    24A     -0.610661
      25A     -0.577205    26A     -0.557949    27A     -0.556323
      28A     -0.547324    29A     -0.497925    30A     -0.476442
      31A     -0.425079    32A     -0.368338    33A     -0.333004

  @DF-RHF Final Energy:  -703.18207380884962

   => Energetics <=

    Nuclear Repulsion Energy =            416.4888543142410526
    One-Electron Energy =               -1791.1457142412143639
    Two-Electron Energy =                 671.4747861181236885
    Total Energy =                       -703.1820738088496228
  Basis Set: (AUG-CC-PVTZ AUX)
    Blend: AUG-CC-PVTZ-RI
    Molecular point group: c1

    Geometry (in Angstrom), charge = 0, multiplicity = 1:

       Center              X                  Y                   Z               Mass
    ------------   -----------------  -----------------  -----------------  -----------------
         S           -1.061559160466    -1.002073883044    -0.000033463874    31.972071174400
         O            2.034147739534    -1.298088483044    -0.000349363874    15.994914619570
         C            0.199417739534     0.176142516956    -0.000005363874    12.000000000000
         C           -0.446264260466     1.404557516956     0.000223636126    12.000000000000
         C            1.638765739534    -0.128925483044    -0.000176363874    12.000000000000
         C           -1.852407260466     1.278574516956     0.000348636126    12.000000000000
         C            2.600246739534     1.038507516956    -0.000115363874    12.000000000000
         C           -2.255933260466    -0.042222483044     0.000211636126    12.000000000000
         H            0.080576739534     2.353691516956     0.000299636126     1.007825032230
         H           -2.544639260466     2.114117516956     0.000530636126     1.007825032230
         H            2.446010739534     1.663897516956    -0.884566363874     1.007825032230
         H            3.618195739534     0.647417516956    -0.000355363874     1.007825032230
         H            2.446301739534     1.663535516956     0.884644636126     1.007825032230
         H           -3.269852260466    -0.423824483044     0.000256636126     1.007825032230

  Basis Set: AUG-CC-PVTZ
    Blend: AUG-CC-PVTZ
  Basis Set: (AUG-CC-PVTZ AUX)
    Blend: AUG-CC-PVTZ-JKFIT
	 Reference Energy          =    -703.1820738088496228 [Eh]
	 Singles Energy            =      -0.0000000000000000 [Eh]
	 Same-Spin Energy          =      -0.3864536228724168 [Eh]
	 Opposite-Spin Energy      =      -1.1740238012640023 [Eh]
	 Correlation Energy        =      -1.5604774241364190 [Eh]
	 Total Energy              =    -704.7425512329859885 [Eh]

	 ================> DF-SCS-MP2 Energies <==================
	-----------------------------------------------------------
	 SCS Same-Spin Scale       =       0.3333333333333333 [-]
	 SCS Opposite-Spin Scale   =       1.2000000000000000 [-]
	 SCS Same-Spin Energy      =      -0.1288178742908056 [Eh]
	 SCS Opposite-Spin Energy  =      -1.4088285615168028 [Eh]
	 SCS Correlation Energy    =      -1.5376464358076083 [Eh]
	 SCS Total Energy          =    -704.7197202446571964 [Eh]
	-----------------------------------------------------------

  Dipole Moment: [D]
     X:    -1.7647      Y:     2.9723      Z:     0.0006     Total:     3.4567

*** Psi4 exiting successfully. Buy a developer a beer!
