                               Psi4 1.3.2 release

  ==> Input File <==

--------------------------------------------------------------------------
#psi4
#
memory 32 gb

molecule  {
0 1
  S       -0.9837490    -1.1570500    -0.0000620
  O        1.9818930    -1.3277110    -0.0003480
  C        0.0534757     0.2222330     0.0000153
  C       -0.4985190     1.3749350     0.0002250
  C        1.5865110    -0.1585480    -0.0001750
  C       -1.9046620     1.2489520     0.0003500
  C        2.5479920     1.0088850    -0.0001140
  C       -2.3081880    -0.0718450     0.0002130
  H        0.0283220     2.3240690     0.0003010
  H       -2.5968940     2.0844950     0.0005320
  H        2.3937560     1.6342750    -0.8845650
  H        3.5659410     0.6177950    -0.0003540
  H        2.3940470     1.6339130     0.8846460
  H       -3.3221070    -0.4534470     0.0002580
units angstrom
no_reorient  #important for SAPT in psi4, default
symmetry c1  #important for SAPT in psi4, default
}

set PROPERTIES_ORIGIN ["COM"]
properties('MP2/aug-cc-pvtz', properties = ['dipole'])
--------------------------------------------------------------------------

    Molecular point group: c1
  Charge       = 0
  Multiplicity = 1
  Basis Set: AUG-CC-PVTZ
    Blend: AUG-CC-PVTZ
  Basis Set: (AUG-CC-PVTZ AUX)
    Blend: AUG-CC-PVTZ-JKFIT

    Orbital Energies [Eh]
    ---------------------

    Doubly Occupied:

       1A    -91.991053     2A    -20.556829     3A    -11.356211
       4A    -11.276602     5A    -11.269684     6A    -11.248497
       7A    -11.247262     8A    -11.243262     9A     -8.991479
      10A     -6.672373    11A     -6.671649    12A     -6.670931
      13A     -1.381882    14A     -1.200128    15A     -1.040582
      16A     -1.005734    17A     -0.985407    18A     -0.817788
      19A     -0.777560    20A     -0.733226    21A     -0.695546
      22A     -0.623817    23A     -0.614589    24A     -0.610841
      25A     -0.571664    26A     -0.562162    27A     -0.547050
      28A     -0.525128    29A     -0.498340    30A     -0.496078
      31A     -0.420332    32A     -0.367371    33A     -0.338908

  @DF-RHF Final Energy:  -703.18955865731891

   => Energetics <=

    Nuclear Repulsion Energy =            412.6114776437024716
    One-Electron Energy =               -1783.5821444779558078
    Two-Electron Energy =                 667.7811081769343673
    Total Energy =                       -703.1895586573189121
  Basis Set: (AUG-CC-PVTZ AUX)
    Blend: AUG-CC-PVTZ-RI
    Molecular point group: c1

    Geometry (in Angstrom), charge = 0, multiplicity = 1:

       Center              X                  Y                   Z               Mass
    ------------   -----------------  -----------------  -----------------  -----------------
         S           -0.955572523051    -1.102832915810    -0.000057615582    31.972071174400
         O            2.010069476949    -1.273493915810    -0.000343615582    15.994914619570
         C            0.081652176949     0.276450084190     0.000019684418    12.000000000000
         C           -0.470342523051     1.429152084190     0.000229384418    12.000000000000
         C            1.614687476949    -0.104330915810    -0.000170615582    12.000000000000
         C           -1.876485523051     1.303169084190     0.000354384418    12.000000000000
         C            2.576168476949     1.063102084190    -0.000109615582    12.000000000000
         C           -2.280011523051    -0.017627915810     0.000217384418    12.000000000000
         H            0.056498476949     2.378286084190     0.000305384418     1.007825032230
         H           -2.568717523051     2.138712084190     0.000536384418     1.007825032230
         H            2.421932476949     1.688492084190    -0.884560615582     1.007825032230
         H            3.594117476949     0.672012084190    -0.000349615582     1.007825032230
         H            2.422223476949     1.688130084190     0.884650384418     1.007825032230
         H           -3.293930523051    -0.399229915810     0.000262384418     1.007825032230

  Basis Set: AUG-CC-PVTZ
    Blend: AUG-CC-PVTZ
  Basis Set: (AUG-CC-PVTZ AUX)
    Blend: AUG-CC-PVTZ-JKFIT
	 Reference Energy          =    -703.1895586573189121 [Eh]
	 Singles Energy            =      -0.0000000000000000 [Eh]
	 Same-Spin Energy          =      -0.3831499029481495 [Eh]
	 Opposite-Spin Energy      =      -1.1740243152106951 [Eh]
	 Correlation Energy        =      -1.5571742181588446 [Eh]
	 Total Energy              =    -704.7467328754777327 [Eh]

	 ================> DF-SCS-MP2 Energies <==================
	-----------------------------------------------------------
	 SCS Same-Spin Scale       =       0.3333333333333333 [-]
	 SCS Opposite-Spin Scale   =       1.2000000000000000 [-]
	 SCS Same-Spin Energy      =      -0.1277166343160498 [Eh]
	 SCS Opposite-Spin Energy  =      -1.4088291782528339 [Eh]
	 SCS Correlation Energy    =      -1.5365458125688838 [Eh]
	 SCS Total Energy          =    -704.7261044698877868 [Eh]
	-----------------------------------------------------------

  Dipole Moment: [D]
     X:    -1.1439      Y:     2.9992      Z:     0.0005     Total:     3.2099

*** Psi4 exiting successfully. Buy a developer a beer!
