                               Psi4 1.3.2 release

  ==> Input File <==

--------------------------------------------------------------------------
#psi4
#
memory 32 gb

molecule  {
0 1
  S       -0.9608263    -1.1765886    -0.0000669
  O        1.9818930    -1.3277110    -0.0003480
  C        0.1471630     0.1465200    -0.0000040
  C       -0.4985190     1.3749350     0.0002250
  C        1.5865110    -0.1585480    -0.0001750
  C       -1.9046620     1.2489520     0.0003500
  C        2.5479920     1.0088850    -0.0001140
  C       -2.3081880    -0.0718450     0.0002130
  H        0.0283220     2.3240690     0.0003010
  H       -2.5968940     2.0844950     0.0005320
  H        2.3937560     1.6342750    -0.8845650
  H        3.5659410     0.6177950    -0.0003540
  H        2.3940470     1.6339130     0.8846460
  H       -3.3221070    -0.4534470     0.0002580
units angstrom
no_reorient  #important for SAPT in psi4, default
symmetry c1  #important for SAPT in psi4, default
}

set PROPERTIES_ORIGIN ["COM"]
properties('MP2/aug-cc-pvtz', properties = ['dipole'])
--------------------------------------------------------------------------

    Molecular point group: c1
  Charge       = 0
  Multiplicity = 1
  Basis Set: AUG-CC-PVTZ
    Blend: AUG-CC-PVTZ
  Basis Set: (AUG-CC-PVTZ AUX)
    Blend: AUG-CC-PVTZ-JKFIT

    Orbital Energies [Eh]
    ---------------------

    Doubly Occupied:

       1A    -91.998141     2A    -20.547177     3A    -11.345217
       4A    -11.286713     5A    -11.275260     6A    -11.267801
       7A    -11.254048     8A    -11.240924     9A     -8.997269
      10A     -6.678069    11A     -6.677471    12A     -6.676850
      13A     -1.378226    14A     -1.184264    15A     -1.043272
      16A     -1.003422    17A     -0.981846    18A     -0.840540
      19A     -0.773246    20A     -0.726924    21A     -0.694032
      22A     -0.624185    23A     -0.617089    24A     -0.610282
      25A     -0.575958    26A     -0.558333    27A     -0.540244
      28A     -0.527483    29A     -0.493366    30A     -0.490030
      31A     -0.426405    32A     -0.360270    33A     -0.337749

  @DF-RHF Final Energy:  -703.20385733064222

   => Energetics <=

    Nuclear Repulsion Energy =            411.6821187283808285
    One-Electron Energy =               -1781.7077444026729154
    Two-Electron Energy =                 666.8217683436498646
    Total Energy =                       -703.2038573306422222
  Basis Set: (AUG-CC-PVTZ AUX)
    Blend: AUG-CC-PVTZ-RI
    Molecular point group: c1

    Geometry (in Angstrom), charge = 0, multiplicity = 1:

       Center              X                  Y                   Z               Mass
    ------------   -----------------  -----------------  -----------------  -----------------
         S           -0.947387350145    -1.110204246390    -0.000059434469    31.972071174400
         O            1.995331949855    -1.261326646390    -0.000340534469    15.994914619570
         C            0.160601949855     0.212904353610     0.000003465531    12.000000000000
         C           -0.485080050145     1.441319353610     0.000232465531    12.000000000000
         C            1.599949949855    -0.092163646390    -0.000167534469    12.000000000000
         C           -1.891223050145     1.315336353610     0.000357465531    12.000000000000
         C            2.561430949855     1.075269353610    -0.000106534469    12.000000000000
         C           -2.294749050145    -0.005460646390     0.000220465531    12.000000000000
         H            0.041760949855     2.390453353610     0.000308465531     1.007825032230
         H           -2.583455050145     2.150879353610     0.000539465531     1.007825032230
         H            2.407194949855     1.700659353610    -0.884557534469     1.007825032230
         H            3.579379949855     0.684179353610    -0.000346534469     1.007825032230
         H            2.407485949855     1.700297353610     0.884653465531     1.007825032230
         H           -3.308668050145    -0.387062646390     0.000265465531     1.007825032230

  Basis Set: AUG-CC-PVTZ
    Blend: AUG-CC-PVTZ
  Basis Set: (AUG-CC-PVTZ AUX)
    Blend: AUG-CC-PVTZ-JKFIT
	 Reference Energy          =    -703.2038573306422222 [Eh]
	 Singles Energy            =      -0.0000000000000000 [Eh]
	 Same-Spin Energy          =      -0.3847588441603499 [Eh]
	 Opposite-Spin Energy      =      -1.1760582524856806 [Eh]
	 Correlation Energy        =      -1.5608170966460304 [Eh]
	 Total Energy              =    -704.7646744272882415 [Eh]

	 ================> DF-SCS-MP2 Energies <==================
	-----------------------------------------------------------
	 SCS Same-Spin Scale       =       0.3333333333333333 [-]
	 SCS Opposite-Spin Scale   =       1.2000000000000000 [-]
	 SCS Same-Spin Energy      =      -0.1282529480534499 [Eh]
	 SCS Opposite-Spin Energy  =      -1.4112699029828166 [Eh]
	 SCS Correlation Energy    =      -1.5395228510362666 [Eh]
	 SCS Total Energy          =    -704.7433801816785035 [Eh]
	-----------------------------------------------------------

  Dipole Moment: [D]
     X:    -1.5941      Y:     3.0654      Z:     0.0005     Total:     3.4551

*** Psi4 exiting successfully. Buy a developer a beer!
