                               Psi4 1.3.2 release

  ==> Input File <==

--------------------------------------------------------------------------
#psi4
#
memory 32 gb

molecule  {
0 1
  S       -0.9837490    -1.1570500    -0.0000620
  O        1.9818930    -1.3277110    -0.0003480
  C        0.2353406     0.0644561    -0.0000236
  C       -0.4985190     1.3749350     0.0002250
  C        1.5865110    -0.1585480    -0.0001750
  C       -1.9046620     1.2489520     0.0003500
  C        2.5479920     1.0088850    -0.0001140
  C       -2.3081880    -0.0718450     0.0002130
  H        0.0283220     2.3240690     0.0003010
  H       -2.5968940     2.0844950     0.0005320
  H        2.3937560     1.6342750    -0.8845650
  H        3.5659410     0.6177950    -0.0003540
  H        2.3940470     1.6339130     0.8846460
  H       -3.3221070    -0.4534470     0.0002580
units angstrom
no_reorient  #important for SAPT in psi4, default
symmetry c1  #important for SAPT in psi4, default
}

set PROPERTIES_ORIGIN ["COM"]
properties('MP2/aug-cc-pvtz', properties = ['dipole'])
--------------------------------------------------------------------------

    Molecular point group: c1
  Charge       = 0
  Multiplicity = 1
  Basis Set: AUG-CC-PVTZ
    Blend: AUG-CC-PVTZ
  Basis Set: (AUG-CC-PVTZ AUX)
    Blend: AUG-CC-PVTZ-JKFIT

    Orbital Energies [Eh]
    ---------------------

    Doubly Occupied:

       1A    -92.005678     2A    -20.532897     3A    -11.329274
       4A    -11.294608     5A    -11.285303     6A    -11.276006
       7A    -11.259054     8A    -11.237952     9A     -9.004706
      10A     -6.685469    11A     -6.685038    12A     -6.684459
      13A     -1.372454    14A     -1.181044    15A     -1.051360
      16A     -1.008342    17A     -0.976705    18A     -0.862247
      19A     -0.770695    20A     -0.720712    21A     -0.691829
      22A     -0.626609    23A     -0.620040    24A     -0.609516
      25A     -0.582175    26A     -0.553991    27A     -0.540055
      28A     -0.532726    29A     -0.490519    30A     -0.477982
      31A     -0.424021    32A     -0.362108    33A     -0.330504

  @DF-RHF Final Energy:  -703.18175201768918

   => Energetics <=

    Nuclear Repulsion Energy =            412.2078047835505572
    One-Electron Energy =               -1782.6469590243295897
    Two-Electron Energy =                 667.2574022230899118
    Total Energy =                       -703.1817520176891776
  Basis Set: (AUG-CC-PVTZ AUX)
    Blend: AUG-CC-PVTZ-RI
    Molecular point group: c1

    Geometry (in Angstrom), charge = 0, multiplicity = 1:

       Center              X                  Y                   Z               Mass
    ------------   -----------------  -----------------  -----------------  -----------------
         S           -0.972891074233    -1.087808206160    -0.000053911229    31.972071174400
         O            1.992750925767    -1.258469206160    -0.000339911229    15.994914619570
         C            0.246198525767     0.133697893840    -0.000015511229    12.000000000000
         C           -0.487661074233     1.444176793840     0.000233088771    12.000000000000
         C            1.597368925767    -0.089306206160    -0.000166911229    12.000000000000
         C           -1.893804074233     1.318193793840     0.000358088771    12.000000000000
         C            2.558849925767     1.078126793840    -0.000105911229    12.000000000000
         C           -2.297330074233    -0.002603206160     0.000221088771    12.000000000000
         H            0.039179925767     2.393310793840     0.000309088771     1.007825032230
         H           -2.586036074233     2.153736793840     0.000540088771     1.007825032230
         H            2.404613925767     1.703516793840    -0.884556911229     1.007825032230
         H            3.576798925767     0.687036793840    -0.000345911229     1.007825032230
         H            2.404904925767     1.703154793840     0.884654088771     1.007825032230
         H           -3.311249074233    -0.384205206160     0.000266088771     1.007825032230

  Basis Set: AUG-CC-PVTZ
    Blend: AUG-CC-PVTZ
  Basis Set: (AUG-CC-PVTZ AUX)
    Blend: AUG-CC-PVTZ-JKFIT
	 Reference Energy          =    -703.1817520176891776 [Eh]
	 Singles Energy            =      -0.0000000000000000 [Eh]
	 Same-Spin Energy          =      -0.3876293744547084 [Eh]
	 Opposite-Spin Energy      =      -1.1793244488664636 [Eh]
	 Correlation Energy        =      -1.5669538233211719 [Eh]
	 Total Energy              =    -704.7487058410104055 [Eh]

	 ================> DF-SCS-MP2 Energies <==================
	-----------------------------------------------------------
	 SCS Same-Spin Scale       =       0.3333333333333333 [-]
	 SCS Opposite-Spin Scale   =       1.2000000000000000 [-]
	 SCS Same-Spin Energy      =      -0.1292097914849028 [Eh]
	 SCS Opposite-Spin Energy  =      -1.4151893386397563 [Eh]
	 SCS Correlation Energy    =      -1.5443991301246591 [Eh]
	 SCS Total Energy          =    -704.7261511478138800 [Eh]
	-----------------------------------------------------------

  Dipole Moment: [D]
     X:    -2.0325      Y:     3.0918      Z:     0.0006     Total:     3.7000

*** Psi4 exiting successfully. Buy a developer a beer!
