                               Psi4 1.3.2 release

  ==> Input File <==

--------------------------------------------------------------------------
#psi4
#
memory 32 gb

molecule  {
0 1
  S       -0.9837490    -1.1570500    -0.0000620
  O        2.0624866    -1.2972825    -0.0003521
  C        0.1471630     0.1465200    -0.0000040
  C       -0.4985190     1.3749350     0.0002250
  C        1.5865110    -0.1585480    -0.0001750
  C       -1.9046620     1.2489520     0.0003500
  C        2.5479920     1.0088850    -0.0001140
  C       -2.3081880    -0.0718450     0.0002130
  H        0.0283220     2.3240690     0.0003010
  H       -2.5968940     2.0844950     0.0005320
  H        2.3937560     1.6342750    -0.8845650
  H        3.5659410     0.6177950    -0.0003540
  H        2.3940470     1.6339130     0.8846460
  H       -3.3221070    -0.4534470     0.0002580
units angstrom
no_reorient  #important for SAPT in psi4, default
symmetry c1  #important for SAPT in psi4, default
}

set PROPERTIES_ORIGIN ["COM"]
properties('MP2/aug-cc-pvtz', properties = ['dipole'])
--------------------------------------------------------------------------

    Molecular point group: c1
  Charge       = 0
  Multiplicity = 1
  Basis Set: AUG-CC-PVTZ
    Blend: AUG-CC-PVTZ
  Basis Set: (AUG-CC-PVTZ AUX)
    Blend: AUG-CC-PVTZ-JKFIT

    Orbital Energies [Eh]
    ---------------------

    Doubly Occupied:

       1A    -92.000047     2A    -20.545849     3A    -11.344433
       4A    -11.287055     5A    -11.277853     6A    -11.270195
       7A    -11.255010     8A    -11.236280     9A     -8.999861
      10A     -6.680700    11A     -6.680122    12A     -6.679478
      13A     -1.376568    14A     -1.190501    15A     -1.043509
      16A     -1.006577    17A     -0.982209    18A     -0.842111
      19A     -0.775336    20A     -0.729523    21A     -0.693336
      22A     -0.623190    23A     -0.617515    24A     -0.608236
      25A     -0.577995    26A     -0.557298    27A     -0.542464
      28A     -0.531729    29A     -0.493024    30A     -0.491361
      31A     -0.423878    32A     -0.362151    33A     -0.340990

  @DF-RHF Final Energy:  -703.20366903657884

   => Energetics <=

    Nuclear Repulsion Energy =            411.5363173388120686
    One-Electron Energy =               -1781.3472058657314392
    Two-Electron Energy =                 666.6072194903405261
    Total Energy =                       -703.2036690365788445
  Basis Set: (AUG-CC-PVTZ AUX)
    Blend: AUG-CC-PVTZ-RI
    Molecular point group: c1

    Geometry (in Angstrom), charge = 0, multiplicity = 1:

       Center              X                  Y                   Z               Mass
    ------------   -----------------  -----------------  -----------------  -----------------
         S           -0.974723860020    -1.099485232578    -0.000055257278    31.972071174400
         O            2.071511739980    -1.239717732578    -0.000345357278    15.994914619570
         C            0.156188139980     0.204084767422     0.000002742722    12.000000000000
         C           -0.489493860020     1.432499767422     0.000231742722    12.000000000000
         C            1.595536139980    -0.100983232578    -0.000168257278    12.000000000000
         C           -1.895636860020     1.306516767422     0.000356742722    12.000000000000
         C            2.557017139980     1.066449767422    -0.000107257278    12.000000000000
         C           -2.299162860020    -0.014280232578     0.000219742722    12.000000000000
         H            0.037347139980     2.381633767422     0.000307742722     1.007825032230
         H           -2.587868860020     2.142059767422     0.000538742722     1.007825032230
         H            2.402781139980     1.691839767422    -0.884558257278     1.007825032230
         H            3.574966139980     0.675359767422    -0.000347257278     1.007825032230
         H            2.403072139980     1.691477767422     0.884652742722     1.007825032230
         H           -3.313081860020    -0.395882232578     0.000264742722     1.007825032230

  Basis Set: AUG-CC-PVTZ
    Blend: AUG-CC-PVTZ
  Basis Set: (AUG-CC-PVTZ AUX)
    Blend: AUG-CC-PVTZ-JKFIT
	 Reference Energy          =    -703.2036690365788445 [Eh]
	 Singles Energy            =      -0.0000000000000000 [Eh]
	 Same-Spin Energy          =      -0.3849328260348662 [Eh]
	 Opposite-Spin Energy      =      -1.1756683717530318 [Eh]
	 Correlation Energy        =      -1.5606011977878980 [Eh]
	 Total Energy              =    -704.7642702343667906 [Eh]

	 ================> DF-SCS-MP2 Energies <==================
	-----------------------------------------------------------
	 SCS Same-Spin Scale       =       0.3333333333333333 [-]
	 SCS Opposite-Spin Scale   =       1.2000000000000000 [-]
	 SCS Same-Spin Energy      =      -0.1283109420116220 [Eh]
	 SCS Opposite-Spin Energy  =      -1.4108020461036381 [Eh]
	 SCS Correlation Energy    =      -1.5391129881152601 [Eh]
	 SCS Total Energy          =    -704.7427820246940655 [Eh]
	-----------------------------------------------------------

  Dipole Moment: [D]
     X:    -1.8991      Y:     2.9828      Z:     0.0006     Total:     3.5360

*** Psi4 exiting successfully. Buy a developer a beer!
