                               Psi4 1.3.2 release

  ==> Input File <==

--------------------------------------------------------------------------
#psi4
#
memory 32 gb

molecule  {
0 1
  S       -0.8900617    -1.2327630    -0.0000816
  O        1.9818930    -1.3277110    -0.0003480
  C        0.1471630     0.1465200    -0.0000040
  C       -0.4985190     1.3749350     0.0002250
  C        1.5865110    -0.1585480    -0.0001750
  C       -1.9046620     1.2489520     0.0003500
  C        2.5479920     1.0088850    -0.0001140
  C       -2.3081880    -0.0718450     0.0002130
  H        0.0283220     2.3240690     0.0003010
  H       -2.5968940     2.0844950     0.0005320
  H        2.3937560     1.6342750    -0.8845650
  H        3.5659410     0.6177950    -0.0003540
  H        2.3940470     1.6339130     0.8846460
  H       -3.3221070    -0.4534470     0.0002580
units angstrom
no_reorient  #important for SAPT in psi4, default
symmetry c1  #important for SAPT in psi4, default
}

set PROPERTIES_ORIGIN ["COM"]
properties('MP2/aug-cc-pvtz', properties = ['dipole'])
--------------------------------------------------------------------------

    Molecular point group: c1
  Charge       = 0
  Multiplicity = 1
  Basis Set: AUG-CC-PVTZ
    Blend: AUG-CC-PVTZ
  Basis Set: (AUG-CC-PVTZ AUX)
    Blend: AUG-CC-PVTZ-JKFIT

    Orbital Energies [Eh]
    ---------------------

    Doubly Occupied:

       1A    -91.999118     2A    -20.548431     3A    -11.344793
       4A    -11.292613     5A    -11.277210     6A    -11.269083
       7A    -11.257451     8A    -11.240621     9A     -8.996676
      10A     -6.677415    11A     -6.676662    12A     -6.676117
      13A     -1.379670    14A     -1.175376    15A     -1.041800
      16A     -1.002549    17A     -0.975727    18A     -0.840351
      19A     -0.774202    20A     -0.724354    21A     -0.693777
      22A     -0.625370    23A     -0.614201    24A     -0.610275
      25A     -0.576226    26A     -0.558973    27A     -0.536231
      28A     -0.519189    29A     -0.491221    30A     -0.488080
      31A     -0.426505    32A     -0.362813    33A     -0.334486

  @DF-RHF Final Energy:  -703.19526759662199

   => Energetics <=

    Nuclear Repulsion Energy =            410.1645918506362136
    One-Electron Energy =               -1778.7045831265088509
    Two-Electron Energy =                 665.3447236792505919
    Total Energy =                       -703.1952675966219886
  Basis Set: (AUG-CC-PVTZ AUX)
    Blend: AUG-CC-PVTZ-RI
    Molecular point group: c1

    Geometry (in Angstrom), charge = 0, multiplicity = 1:

       Center              X                  Y                   Z               Mass
    ------------   -----------------  -----------------  -----------------  -----------------
         S           -0.894577040757    -1.152126159941    -0.000070404806    31.972071174400
         O            1.977377659243    -1.247074159941    -0.000336804806    15.994914619570
         C            0.142647659243     0.227156840059     0.000007195194    12.000000000000
         C           -0.503034340757     1.455571840059     0.000236195194    12.000000000000
         C            1.581995659243    -0.077911159941    -0.000163804806    12.000000000000
         C           -1.909177340757     1.329588840059     0.000361195194    12.000000000000
         C            2.543476659243     1.089521840059    -0.000102804806    12.000000000000
         C           -2.312703340757     0.008791840059     0.000224195194    12.000000000000
         H            0.023806659243     2.404705840059     0.000312195194     1.007825032230
         H           -2.601409340757     2.165131840059     0.000543195194     1.007825032230
         H            2.389240659243     1.714911840059    -0.884553804806     1.007825032230
         H            3.561425659243     0.698431840059    -0.000342804806     1.007825032230
         H            2.389531659243     1.714549840059     0.884657195194     1.007825032230
         H           -3.326622340757    -0.372810159941     0.000269195194     1.007825032230

  Basis Set: AUG-CC-PVTZ
    Blend: AUG-CC-PVTZ
  Basis Set: (AUG-CC-PVTZ AUX)
    Blend: AUG-CC-PVTZ-JKFIT
	 Reference Energy          =    -703.1952675966219886 [Eh]
	 Singles Energy            =      -0.0000000000000000 [Eh]
	 Same-Spin Energy          =      -0.3844617492100327 [Eh]
	 Opposite-Spin Energy      =      -1.1776920488493956 [Eh]
	 Correlation Energy        =      -1.5621537980594282 [Eh]
	 Total Energy              =    -704.7574213946813870 [Eh]

	 ================> DF-SCS-MP2 Energies <==================
	-----------------------------------------------------------
	 SCS Same-Spin Scale       =       0.3333333333333333 [-]
	 SCS Opposite-Spin Scale   =       1.2000000000000000 [-]
	 SCS Same-Spin Energy      =      -0.1281539164033442 [Eh]
	 SCS Opposite-Spin Energy  =      -1.4132304586192748 [Eh]
	 SCS Correlation Energy    =      -1.5413843750226190 [Eh]
	 SCS Total Energy          =    -704.7366519716446192 [Eh]
	-----------------------------------------------------------

  Dipole Moment: [D]
     X:    -1.5486      Y:     3.1201      Z:     0.0006     Total:     3.4833

*** Psi4 exiting successfully. Buy a developer a beer!
