                               Psi4 1.3.2 release

  ==> Input File <==

--------------------------------------------------------------------------
#psi4
#
memory 32 gb

molecule  {
0 1
  S       -0.9375661    -1.1957242    -0.0000718
  O        1.9818930    -1.3277110    -0.0003480
  C        0.1471630     0.1465200    -0.0000040
  C       -0.4985190     1.3749350     0.0002250
  C        1.5865110    -0.1585480    -0.0001750
  C       -1.9046620     1.2489520     0.0003500
  C        2.5479920     1.0088850    -0.0001140
  C       -2.3081880    -0.0718450     0.0002130
  H        0.0283220     2.3240690     0.0003010
  H       -2.5968940     2.0844950     0.0005320
  H        2.3937560     1.6342750    -0.8845650
  H        3.5659410     0.6177950    -0.0003540
  H        2.3940470     1.6339130     0.8846460
  H       -3.3221070    -0.4534470     0.0002580
units angstrom
no_reorient  #important for SAPT in psi4, default
symmetry c1  #important for SAPT in psi4, default
}

set PROPERTIES_ORIGIN ["COM"]
properties('MP2/aug-cc-pvtz', properties = ['dipole'])
--------------------------------------------------------------------------

    Molecular point group: c1
  Charge       = 0
  Multiplicity = 1
  Basis Set: AUG-CC-PVTZ
    Blend: AUG-CC-PVTZ
  Basis Set: (AUG-CC-PVTZ AUX)
    Blend: AUG-CC-PVTZ-JKFIT

    Orbital Energies [Eh]
    ---------------------

    Doubly Occupied:

       1A    -91.998528     2A    -20.547601     3A    -11.345072
       4A    -11.288770     5A    -11.275946     6A    -11.268241
       7A    -11.255216     8A    -11.240825     9A     -8.997071
      10A     -6.677848    11A     -6.677206    12A     -6.676614
      13A     -1.378696    14A     -1.180988    15A     -1.042582
      16A     -1.002932    17A     -0.980031    18A     -0.840515
      19A     -0.773451    20A     -0.726113    21A     -0.693928
      22A     -0.624562    23A     -0.615988    24A     -0.610271
      25A     -0.576000    26A     -0.558564    27A     -0.538721
      28A     -0.524341    29A     -0.492644    30A     -0.490163
      31A     -0.426465    32A     -0.360862    33A     -0.336879

  @DF-RHF Final Energy:  -703.20180979036445

   => Energetics <=

    Nuclear Repulsion Energy =            411.1422579355030393
    One-Electron Energy =               -1780.6408652833977158
    Two-Electron Energy =                 666.2967975575302262
    Total Energy =                       -703.2018097903644502
  Basis Set: (AUG-CC-PVTZ AUX)
    Blend: AUG-CC-PVTZ-RI
    Molecular point group: c1

    Geometry (in Angstrom), charge = 0, multiplicity = 1:

       Center              X                  Y                   Z               Mass
    ------------   -----------------  -----------------  -----------------  -----------------
         S           -0.930028694003    -1.124484789999    -0.000063091248    31.972071174400
         O            1.989430405997    -1.256471589999    -0.000339291248    15.994914619570
         C            0.154700405997     0.217759410001     0.000004708752    12.000000000000
         C           -0.490981594003     1.446174410001     0.000233708752    12.000000000000
         C            1.594048405997    -0.087308589999    -0.000166291248    12.000000000000
         C           -1.897124594003     1.320191410001     0.000358708752    12.000000000000
         C            2.555529405997     1.080124410001    -0.000105291248    12.000000000000
         C           -2.300650594003    -0.000605589999     0.000221708752    12.000000000000
         H            0.035859405997     2.395308410001     0.000309708752     1.007825032230
         H           -2.589356594003     2.155734410001     0.000540708752     1.007825032230
         H            2.401293405997     1.705514410001    -0.884556291248     1.007825032230
         H            3.573478405997     0.689034410001    -0.000345291248     1.007825032230
         H            2.401584405997     1.705152410001     0.884654708752     1.007825032230
         H           -3.314569594003    -0.382207589999     0.000266708752     1.007825032230

  Basis Set: AUG-CC-PVTZ
    Blend: AUG-CC-PVTZ
  Basis Set: (AUG-CC-PVTZ AUX)
    Blend: AUG-CC-PVTZ-JKFIT
	 Reference Energy          =    -703.2018097903644502 [Eh]
	 Singles Energy            =      -0.0000000000000000 [Eh]
	 Same-Spin Energy          =      -0.3846277450991090 [Eh]
	 Opposite-Spin Energy      =      -1.1765545360799723 [Eh]
	 Correlation Energy        =      -1.5611822811790814 [Eh]
	 Total Energy              =    -704.7629920715435219 [Eh]

	 ================> DF-SCS-MP2 Energies <==================
	-----------------------------------------------------------
	 SCS Same-Spin Scale       =       0.3333333333333333 [-]
	 SCS Opposite-Spin Scale   =       1.2000000000000000 [-]
	 SCS Same-Spin Energy      =      -0.1282092483663697 [Eh]
	 SCS Opposite-Spin Energy  =      -1.4118654432959667 [Eh]
	 SCS Correlation Energy    =      -1.5400746916623365 [Eh]
	 SCS Total Energy          =    -704.7418844820267623 [Eh]
	-----------------------------------------------------------

  Dipole Moment: [D]
     X:    -1.5780      Y:     3.0829      Z:     0.0005     Total:     3.4633

*** Psi4 exiting successfully. Buy a developer a beer!
