                               Psi4 1.3.2 release

  ==> Input File <==

--------------------------------------------------------------------------
#psi4
#
memory 32 gb

molecule  {
0 1
  S       -0.9837490    -1.1570500    -0.0000620
  O        1.9818930    -1.3277110    -0.0003480
  C        0.1471630     0.1465200    -0.0000040
  C       -0.3665776     1.4356978     0.0002217
  C        1.5865110    -0.1585480    -0.0001750
  C       -1.9046620     1.2489520     0.0003500
  C        2.5479920     1.0088850    -0.0001140
  C       -2.3081880    -0.0718450     0.0002130
  H        0.0283220     2.3240690     0.0003010
  H       -2.5968940     2.0844950     0.0005320
  H        2.3937560     1.6342750    -0.8845650
  H        3.5659410     0.6177950    -0.0003540
  H        2.3940470     1.6339130     0.8846460
  H       -3.3221070    -0.4534470     0.0002580
units angstrom
no_reorient  #important for SAPT in psi4, default
symmetry c1  #important for SAPT in psi4, default
}

set PROPERTIES_ORIGIN ["COM"]
properties('MP2/aug-cc-pvtz', properties = ['dipole'])
--------------------------------------------------------------------------

    Molecular point group: c1
  Charge       = 0
  Multiplicity = 1
  Basis Set: AUG-CC-PVTZ
    Blend: AUG-CC-PVTZ
  Basis Set: (AUG-CC-PVTZ AUX)
    Blend: AUG-CC-PVTZ-JKFIT

    Orbital Energies [Eh]
    ---------------------

    Doubly Occupied:

       1A    -91.995952     2A    -20.547878     3A    -11.343440
       4A    -11.282170     5A    -11.281801     6A    -11.271416
       7A    -11.263694     8A    -11.241673     9A     -8.996013
      10A     -6.676971    11A     -6.676238    12A     -6.675510
      13A     -1.378456    14A     -1.174980    15A     -1.048407
      16A     -0.992810    17A     -0.985140    18A     -0.843954
      19A     -0.777888    20A     -0.740756    21A     -0.691458
      22A     -0.627577    23A     -0.617759    24A     -0.610936
      25A     -0.578051    26A     -0.547683    27A     -0.536252
      28A     -0.530775    29A     -0.492169    30A     -0.491298
      31A     -0.424201    32A     -0.354304    33A     -0.342096

  @DF-RHF Final Energy:  -703.18072387630070

   => Energetics <=

    Nuclear Repulsion Energy =            410.8284719380715160
    One-Electron Energy =               -1779.9389789200131418
    Two-Electron Energy =                 665.9297831056409223
    Total Energy =                       -703.1807238763007035
  Basis Set: (AUG-CC-PVTZ AUX)
    Blend: AUG-CC-PVTZ-RI
    Molecular point group: c1

    Geometry (in Angstrom), charge = 0, multiplicity = 1:

       Center              X                  Y                   Z               Mass
    ------------   -----------------  -----------------  -----------------  -----------------
         S           -0.977058594244    -1.101409244701    -0.000055463439    31.972071174400
         O            1.988583405756    -1.272070244701    -0.000341463439    15.994914619570
         C            0.153853405756     0.202160755299     0.000002536561    12.000000000000
         C           -0.359887194244     1.491338555299     0.000228236561    12.000000000000
         C            1.593201405756    -0.102907244701    -0.000168463439    12.000000000000
         C           -1.897971594244     1.304592755299     0.000356536561    12.000000000000
         C            2.554682405756     1.064525755299    -0.000107463439    12.000000000000
         C           -2.301497594244    -0.016204244701     0.000219536561    12.000000000000
         H            0.035012405756     2.379709755299     0.000307536561     1.007825032230
         H           -2.590203594244     2.140135755299     0.000538536561     1.007825032230
         H            2.400446405756     1.689915755299    -0.884558463439     1.007825032230
         H            3.572631405756     0.673435755299    -0.000347463439     1.007825032230
         H            2.400737405756     1.689553755299     0.884652536561     1.007825032230
         H           -3.315416594244    -0.397806244701     0.000264536561     1.007825032230

  Basis Set: AUG-CC-PVTZ
    Blend: AUG-CC-PVTZ
  Basis Set: (AUG-CC-PVTZ AUX)
    Blend: AUG-CC-PVTZ-JKFIT
	 Reference Energy          =    -703.1807238763007035 [Eh]
	 Singles Energy            =      -0.0000000000000000 [Eh]
	 Same-Spin Energy          =      -0.3830269561726129 [Eh]
	 Opposite-Spin Energy      =      -1.1758283361093049 [Eh]
	 Correlation Energy        =      -1.5588552922819179 [Eh]
	 Total Energy              =    -704.7395791685826225 [Eh]

	 ================> DF-SCS-MP2 Energies <==================
	-----------------------------------------------------------
	 SCS Same-Spin Scale       =       0.3333333333333333 [-]
	 SCS Opposite-Spin Scale   =       1.2000000000000000 [-]
	 SCS Same-Spin Energy      =      -0.1276756520575376 [Eh]
	 SCS Opposite-Spin Energy  =      -1.4109940033311659 [Eh]
	 SCS Correlation Energy    =      -1.5386696553887034 [Eh]
	 SCS Total Energy          =    -704.7193935316894340 [Eh]
	-----------------------------------------------------------

  Dipole Moment: [D]
     X:    -1.5538      Y:     3.0332      Z:     0.0005     Total:     3.4080

*** Psi4 exiting successfully. Buy a developer a beer!
