                               Psi4 1.3.2 release

  ==> Input File <==

--------------------------------------------------------------------------
#psi4
#
memory 32 gb

molecule  {
0 1
  S       -0.9837490    -1.1570500    -0.0000620
  O        1.9818930    -1.3277110    -0.0003480
  C        0.1471630     0.1465200    -0.0000040
  C       -0.4985190     1.3749350     0.0002250
  C        1.4886842    -0.1378137    -0.0001634
  C       -1.9046620     1.2489520     0.0003500
  C        2.5479920     1.0088850    -0.0001140
  C       -2.3081880    -0.0718450     0.0002130
  H        0.0283220     2.3240690     0.0003010
  H       -2.5968940     2.0844950     0.0005320
  H        2.3937560     1.6342750    -0.8845650
  H        3.5659410     0.6177950    -0.0003540
  H        2.3940470     1.6339130     0.8846460
  H       -3.3221070    -0.4534470     0.0002580
units angstrom
no_reorient  #important for SAPT in psi4, default
symmetry c1  #important for SAPT in psi4, default
}

set PROPERTIES_ORIGIN ["COM"]
properties('MP2/aug-cc-pvtz', properties = ['dipole'])
--------------------------------------------------------------------------

    Molecular point group: c1
  Charge       = 0
  Multiplicity = 1
  Basis Set: AUG-CC-PVTZ
    Blend: AUG-CC-PVTZ
  Basis Set: (AUG-CC-PVTZ AUX)
    Blend: AUG-CC-PVTZ-JKFIT

    Orbital Energies [Eh]
    ---------------------

    Doubly Occupied:

       1A    -92.004257     2A    -20.533500     3A    -11.339373
       4A    -11.295802     5A    -11.279774     6A    -11.271944
       7A    -11.259614     8A    -11.238878     9A     -9.004010
      10A     -6.684803    11A     -6.684183    12A     -6.683549
      13A     -1.337049    14A     -1.197789    15A     -1.054001
      16A     -1.012782    17A     -0.977052    18A     -0.863388
      19A     -0.782193    20A     -0.734519    21A     -0.681546
      22A     -0.618330    23A     -0.609530    24A     -0.601794
      25A     -0.582660    26A     -0.552944    27A     -0.547250
      28A     -0.531082    29A     -0.494248    30A     -0.476425
      31A     -0.416590    32A     -0.366542    33A     -0.343923

  @DF-RHF Final Energy:  -703.18604451771012

   => Energetics <=

    Nuclear Repulsion Energy =            413.0166793185410938
    One-Electron Energy =               -1784.2827973753130664
    Two-Electron Energy =                 668.0800735390619138
    Total Energy =                       -703.1860445177101155
  Basis Set: (AUG-CC-PVTZ AUX)
    Blend: AUG-CC-PVTZ-RI
    Molecular point group: c1

    Geometry (in Angstrom), charge = 0, multiplicity = 1:

       Center              X                  Y                   Z               Mass
    ------------   -----------------  -----------------  -----------------  -----------------
         S           -0.955178328555    -1.097597428204    -0.000056882329    31.972071174400
         O            2.010463671445    -1.268258428204    -0.000342882329    15.994914619570
         C            0.175733671445     0.205972571796     0.000001117671    12.000000000000
         C           -0.469948328555     1.434387571796     0.000230117671    12.000000000000
         C            1.517254871445    -0.078361128204    -0.000158282329    12.000000000000
         C           -1.876091328555     1.308404571796     0.000355117671    12.000000000000
         C            2.576562671445     1.068337571796    -0.000108882329    12.000000000000
         C           -2.279617328555    -0.012392428204     0.000218117671    12.000000000000
         H            0.056892671445     2.383521571796     0.000306117671     1.007825032230
         H           -2.568323328555     2.143947571796     0.000537117671     1.007825032230
         H            2.422326671445     1.693727571796    -0.884559882329     1.007825032230
         H            3.594511671445     0.677247571796    -0.000348882329     1.007825032230
         H            2.422617671445     1.693365571796     0.884651117671     1.007825032230
         H           -3.293536328555    -0.393994428204     0.000263117671     1.007825032230

  Basis Set: AUG-CC-PVTZ
    Blend: AUG-CC-PVTZ
  Basis Set: (AUG-CC-PVTZ AUX)
    Blend: AUG-CC-PVTZ-JKFIT
	 Reference Energy          =    -703.1860445177101155 [Eh]
	 Singles Energy            =      -0.0000000000000000 [Eh]
	 Same-Spin Energy          =      -0.3873213383291123 [Eh]
	 Opposite-Spin Energy      =      -1.1800266412319931 [Eh]
	 Correlation Energy        =      -1.5673479795611054 [Eh]
	 Total Energy              =    -704.7533924972711930 [Eh]

	 ================> DF-SCS-MP2 Energies <==================
	-----------------------------------------------------------
	 SCS Same-Spin Scale       =       0.3333333333333333 [-]
	 SCS Opposite-Spin Scale   =       1.2000000000000000 [-]
	 SCS Same-Spin Energy      =      -0.1291071127763707 [Eh]
	 SCS Opposite-Spin Energy  =      -1.4160319694783916 [Eh]
	 SCS Correlation Energy    =      -1.5451390822547624 [Eh]
	 SCS Total Energy          =    -704.7311835999648792 [Eh]
	-----------------------------------------------------------

  Dipole Moment: [D]
     X:    -2.4012      Y:     3.1412      Z:     0.0006     Total:     3.9538

*** Psi4 exiting successfully. Buy a developer a beer!
