                               Psi4 1.4a3.dev225

  ==> Input File <==

--------------------------------------------------------------------------
#psi4
#
memory 32 gb

molecule  {
0 1
  S       -0.9837490    -1.1570500    -0.0000620
  O        1.9818930    -1.3277110    -0.0003480
  C        0.1799286     0.1842879    -0.0000023
  C       -0.4985190     1.3749350     0.0002250
  C        1.5865110    -0.1585480    -0.0001750
  C       -1.9046620     1.2489520     0.0003500
  C        2.5479920     1.0088850    -0.0001140
  C       -2.3081880    -0.0718450     0.0002130
  H        0.0283220     2.3240690     0.0003010
  H       -2.5968940     2.0844950     0.0005320
  H        2.3937560     1.6342750    -0.8845650
  H        3.5659410     0.6177950    -0.0003540
  H        2.3940470     1.6339130     0.8846460
  H       -3.3221070    -0.4534470     0.0002580
units angstrom
no_reorient  #important for SAPT in psi4, default
symmetry c1  #important for SAPT in psi4, default
}

set PROPERTIES_ORIGIN ["COM"]
properties('MP2/aug-cc-pvtz', properties = ['dipole'])
--------------------------------------------------------------------------

    Molecular point group: c1
  Charge       = 0
  Multiplicity = 1
  Basis Set: AUG-CC-PVTZ
    Blend: AUG-CC-PVTZ
  Basis Set: (AUG-CC-PVTZ AUX)
    Blend: AUG-CC-PVTZ-JKFIT

    Orbital Energies [Eh]
    ---------------------

    Doubly Occupied:

       1A    -91.995801     2A    -20.546927     3A    -11.344140
       4A    -11.288153     5A    -11.275150     6A    -11.269783
       7A    -11.253575     8A    -11.239608     9A     -8.994948
      10A     -6.675778    11A     -6.675096    12A     -6.674542
      13A     -1.377735    14A     -1.185897    15A     -1.049823
      16A     -1.000345    17A     -0.984402    18A     -0.846633
      19A     -0.774954    20A     -0.728008    21A     -0.693569
      22A     -0.625367    23A     -0.620687    24A     -0.610857
      25A     -0.578889    26A     -0.559349    27A     -0.540483
      28A     -0.525181    29A     -0.494070    30A     -0.484215
      31A     -0.425857    32A     -0.362134    33A     -0.339545

  @DF-RHF Final Energy:  -703.20293655588387

   => Energetics <=

    Nuclear Repulsion Energy =            411.8563281121844284
    One-Electron Energy =               -1782.0355293139091373
    Two-Electron Energy =                 666.9762646458408426
    Total Energy =                       -703.2029365558838663
  Basis Set: (AUG-CC-PVTZ AUX)
    Blend: AUG-CC-PVTZ-RI
    Molecular point group: c1

    Geometry (in Angstrom), charge = 0, multiplicity = 1:

       Center              X                  Y                   Z               Mass
    ------------   -----------------  -----------------  -----------------  -----------------
         S           -0.967614324524    -1.099219496417    -0.000055939576    31.972071174400
         O            1.998027675476    -1.269880496417    -0.000341939576    15.994914619570
         C            0.196063275476     0.242118403583     0.000003760424    12.000000000000
         C           -0.482384324524     1.432765503583     0.000231060424    12.000000000000
         C            1.602645675476    -0.100717496417    -0.000168939576    12.000000000000
         C           -1.888527324524     1.306782503583     0.000356060424    12.000000000000
         C            2.564126675476     1.066715503583    -0.000107939576    12.000000000000
         C           -2.292053324524    -0.014014496417     0.000219060424    12.000000000000
         H            0.044456675476     2.381899503583     0.000307060424     1.007825032230
         H           -2.580759324524     2.142325503583     0.000538060424     1.007825032230
         H            2.409890675476     1.692105503583    -0.884558939576     1.007825032230
         H            3.582075675476     0.675625503583    -0.000347939576     1.007825032230
         H            2.410181675476     1.691743503583     0.884652060424     1.007825032230
         H           -3.305972324524    -0.395616496417     0.000264060424     1.007825032230

  Basis Set: AUG-CC-PVTZ
    Blend: AUG-CC-PVTZ
  Basis Set: (AUG-CC-PVTZ AUX)
    Blend: AUG-CC-PVTZ-JKFIT
	 Reference Energy          =    -703.2029365558838663 [Eh]
	 Singles Energy            =      -0.0000000000000000 [Eh]
	 Same-Spin Energy          =      -0.3847254003432969 [Eh]
	 Opposite-Spin Energy      =      -1.1757605074827546 [Eh]
	 Correlation Energy        =      -1.5604859078260516 [Eh]
	 Total Energy              =    -704.7634224637099578 [Eh]

	 ================> DF-SCS-MP2 Energies <==================
	-----------------------------------------------------------
	 SCS Same-Spin Scale       =       0.3333333333333333 [-]
	 SCS Opposite-Spin Scale   =       1.2000000000000000 [-]
	 SCS Same-Spin Energy      =      -0.1282418001144323 [Eh]
	 SCS Opposite-Spin Energy  =      -1.4109126089793056 [Eh]
	 SCS Correlation Energy    =      -1.5391544090937379 [Eh]
	 SCS Total Energy          =    -704.7420909649775922 [Eh]
	-----------------------------------------------------------

  Dipole Moment: [D]
     X:    -1.6729      Y:     3.1191      Z:     0.0006     Total:     3.5394

*** Psi4 exiting successfully. Buy a developer a beer!
