                               Psi4 1.4a3.dev225

  ==> Input File <==

--------------------------------------------------------------------------
#psi4
#
memory 32 gb

molecule  {
0 1
  S       -0.9837490    -1.1570500    -0.0000620
  O        1.9818930    -1.3277110    -0.0003480
  C        0.1471630     0.1465200    -0.0000040
  C       -0.4985190     1.3749350     0.0002250
  C        1.6354244    -0.1689151    -0.0001808
  C       -1.9046620     1.2489520     0.0003500
  C        2.5479920     1.0088850    -0.0001140
  C       -2.3081880    -0.0718450     0.0002130
  H        0.0283220     2.3240690     0.0003010
  H       -2.5968940     2.0844950     0.0005320
  H        2.3937560     1.6342750    -0.8845650
  H        3.5659410     0.6177950    -0.0003540
  H        2.3940470     1.6339130     0.8846460
  H       -3.3221070    -0.4534470     0.0002580
units angstrom
no_reorient  #important for SAPT in psi4, default
symmetry c1  #important for SAPT in psi4, default
}

set PROPERTIES_ORIGIN ["COM"]
properties('MP2/aug-cc-pvtz', properties = ['dipole'])
--------------------------------------------------------------------------

    Molecular point group: c1
  Charge       = 0
  Multiplicity = 1
  Basis Set: AUG-CC-PVTZ
    Blend: AUG-CC-PVTZ
  Basis Set: (AUG-CC-PVTZ AUX)
    Blend: AUG-CC-PVTZ-JKFIT

    Orbital Energies [Eh]
    ---------------------

    Doubly Occupied:

       1A    -91.994437     2A    -20.552529     3A    -11.347752
       4A    -11.279556     5A    -11.274038     6A    -11.261622
       7A    -11.249679     8A    -11.242584     9A     -8.994244
      10A     -6.675097    11A     -6.674532    12A     -6.673885
      13A     -1.397755    14A     -1.183180    15A     -1.044413
      16A     -0.999898    17A     -0.983296    18A     -0.829433
      19A     -0.768988    20A     -0.725058    21A     -0.699842
      22A     -0.632663    23A     -0.619802    24A     -0.615817
      25A     -0.572780    26A     -0.559876    27A     -0.539750
      28A     -0.528651    29A     -0.502836    30A     -0.486408
      31A     -0.426844    32A     -0.356939    33A     -0.334790

  @DF-RHF Final Energy:  -703.20510156540377

   => Energetics <=

    Nuclear Repulsion Energy =            411.9283354693450860
    One-Electron Energy =               -1782.2089301268299550
    Two-Electron Energy =                 667.0754930920811603
    Total Energy =                       -703.2051015654037656
  Basis Set: (AUG-CC-PVTZ AUX)
    Blend: AUG-CC-PVTZ-RI
    Molecular point group: c1

    Geometry (in Angstrom), charge = 0, multiplicity = 1:

       Center              X                  Y                   Z               Mass
    ------------   -----------------  -----------------  -----------------  -----------------
         S           -0.969152040162    -1.094635717683    -0.000055225370    31.972071174400
         O            1.996489959838    -1.265296717683    -0.000341225370    15.994914619570
         C            0.161759959838     0.208934282317     0.000002774630    12.000000000000
         C           -0.483922040162     1.437349282317     0.000231774630    12.000000000000
         C            1.650021359838    -0.106500817683    -0.000174025370    12.000000000000
         C           -1.890065040162     1.311366282317     0.000356774630    12.000000000000
         C            2.562588959838     1.071299282317    -0.000107225370    12.000000000000
         C           -2.293591040162    -0.009430717683     0.000219774630    12.000000000000
         H            0.042918959838     2.386483282317     0.000307774630     1.007825032230
         H           -2.582297040162     2.146909282317     0.000538774630     1.007825032230
         H            2.408352959838     1.696689282317    -0.884558225370     1.007825032230
         H            3.580537959838     0.680209282317    -0.000347225370     1.007825032230
         H            2.408643959838     1.696327282317     0.884652774630     1.007825032230
         H           -3.307510040162    -0.391032717683     0.000264774630     1.007825032230

  Basis Set: AUG-CC-PVTZ
    Blend: AUG-CC-PVTZ
  Basis Set: (AUG-CC-PVTZ AUX)
    Blend: AUG-CC-PVTZ-JKFIT
	 Reference Energy          =    -703.2051015654037656 [Eh]
	 Singles Energy            =      -0.0000000000000000 [Eh]
	 Same-Spin Energy          =      -0.3841067426910358 [Eh]
	 Opposite-Spin Energy      =      -1.1740616557090378 [Eh]
	 Correlation Energy        =      -1.5581683984000736 [Eh]
	 Total Energy              =    -704.7632699638038503 [Eh]

	 ================> DF-SCS-MP2 Energies <==================
	-----------------------------------------------------------
	 SCS Same-Spin Scale       =       0.3333333333333333 [-]
	 SCS Opposite-Spin Scale   =       1.2000000000000000 [-]
	 SCS Same-Spin Energy      =      -0.1280355808970119 [Eh]
	 SCS Opposite-Spin Energy  =      -1.4088739868508453 [Eh]
	 SCS Correlation Energy    =      -1.5369095677478573 [Eh]
	 SCS Total Energy          =    -704.7420111331516637 [Eh]
	-----------------------------------------------------------

  Dipole Moment: [D]
     X:    -1.1924      Y:     2.9957      Z:     0.0005     Total:     3.2243

*** Psi4 exiting successfully. Buy a developer a beer!
