                               Psi4 1.3.2 release

  ==> Input File <==

--------------------------------------------------------------------------
#psi4
#
memory 32 gb

molecule  {
0 1
  S       -1.0719266    -1.0749861    -0.0000436
  O        1.9818930    -1.3277110    -0.0003480
  C        0.1471630     0.1465200    -0.0000040
  C       -0.4985190     1.3749350     0.0002250
  C        1.5865110    -0.1585480    -0.0001750
  C       -1.9046620     1.2489520     0.0003500
  C        2.5479920     1.0088850    -0.0001140
  C       -2.3081880    -0.0718450     0.0002130
  H        0.0283220     2.3240690     0.0003010
  H       -2.5968940     2.0844950     0.0005320
  H        2.3937560     1.6342750    -0.8845650
  H        3.5659410     0.6177950    -0.0003540
  H        2.3940470     1.6339130     0.8846460
  H       -3.3221070    -0.4534470     0.0002580
units angstrom
no_reorient  #important for SAPT in psi4, default
symmetry c1  #important for SAPT in psi4, default
}

set PROPERTIES_ORIGIN ["COM"]
properties('MP2/aug-cc-pvtz', properties = ['dipole'])
--------------------------------------------------------------------------

    Molecular point group: c1
  Charge       = 0
  Multiplicity = 1
  Basis Set: AUG-CC-PVTZ
    Blend: AUG-CC-PVTZ
  Basis Set: (AUG-CC-PVTZ AUX)
    Blend: AUG-CC-PVTZ-JKFIT

    Orbital Energies [Eh]
    ---------------------

    Doubly Occupied:

       1A    -91.995013     2A    -20.544852     3A    -11.345866
       4A    -11.275135     5A    -11.271193     6A    -11.265395
       7A    -11.247900     8A    -11.241314     9A     -8.998272
      10A     -6.679477    11A     -6.678464    12A     -6.677851
      13A     -1.375887    14A     -1.206752    15A     -1.050825
      16A     -1.008998    17A     -0.985355    18A     -0.840089
      19A     -0.774942    20A     -0.729133    21A     -0.695053
      22A     -0.626525    23A     -0.621045    24A     -0.610474
      25A     -0.576566    26A     -0.556910    27A     -0.551423
      28A     -0.542842    29A     -0.496782    30A     -0.482078
      31A     -0.425641    32A     -0.364061    33A     -0.336056

  @DF-RHF Final Energy:  -703.19655497910878

   => Energetics <=

    Nuclear Repulsion Energy =            414.9229801540870994
    One-Electron Energy =               -1788.0827359992499623
    Two-Electron Energy =                 669.9632008660540805
    Total Energy =                       -703.1965549791087824
  Basis Set: (AUG-CC-PVTZ AUX)
    Blend: AUG-CC-PVTZ-RI
    Molecular point group: c1

    Geometry (in Angstrom), charge = 0, multiplicity = 1:

       Center              X                  Y                   Z               Mass
    ------------   -----------------  -----------------  -----------------  -----------------
         S           -1.030299444839    -1.034380183798    -0.000042046111    31.972071174400
         O            2.023520155161    -1.287105083798    -0.000346446111    15.994914619570
         C            0.188790155161     0.187125916202    -0.000002446111    12.000000000000
         C           -0.456891844839     1.415540916202     0.000226553889    12.000000000000
         C            1.628138155161    -0.117942083798    -0.000173446111    12.000000000000
         C           -1.863034844839     1.289557916202     0.000351553889    12.000000000000
         C            2.589619155161     1.049490916202    -0.000112446111    12.000000000000
         C           -2.266560844839    -0.031239083798     0.000214553889    12.000000000000
         H            0.069949155161     2.364674916202     0.000302553889     1.007825032230
         H           -2.555266844839     2.125100916202     0.000533553889     1.007825032230
         H            2.435383155161     1.674880916202    -0.884563446111     1.007825032230
         H            3.607568155161     0.658400916202    -0.000352446111     1.007825032230
         H            2.435674155161     1.674518916202     0.884647553889     1.007825032230
         H           -3.280479844839    -0.412841083798     0.000259553889     1.007825032230

  Basis Set: AUG-CC-PVTZ
    Blend: AUG-CC-PVTZ
  Basis Set: (AUG-CC-PVTZ AUX)
    Blend: AUG-CC-PVTZ-JKFIT
	 Reference Energy          =    -703.1965549791087824 [Eh]
	 Singles Energy            =      -0.0000000000000000 [Eh]
	 Same-Spin Energy          =      -0.3858481230204202 [Eh]
	 Opposite-Spin Energy      =      -1.1743373804342923 [Eh]
	 Correlation Energy        =      -1.5601855034547125 [Eh]
	 Total Energy              =    -704.7567404825634867 [Eh]

	 ================> DF-SCS-MP2 Energies <==================
	-----------------------------------------------------------
	 SCS Same-Spin Scale       =       0.3333333333333333 [-]
	 SCS Opposite-Spin Scale   =       1.2000000000000000 [-]
	 SCS Same-Spin Energy      =      -0.1286160410068067 [Eh]
	 SCS Opposite-Spin Energy  =      -1.4092048565211506 [Eh]
	 SCS Correlation Energy    =      -1.5378208975279573 [Eh]
	 SCS Total Energy          =    -704.7343758766367046 [Eh]
	-----------------------------------------------------------

  Dipole Moment: [D]
     X:    -1.7027      Y:     2.9928      Z:     0.0005     Total:     3.4433

*** Psi4 exiting successfully. Buy a developer a beer!
