                               Psi4 1.4a3.dev225

  ==> Input File <==

--------------------------------------------------------------------------
#psi4
#
memory 32 gb

molecule  {
0 1
  S       -0.9837490    -1.1570500    -0.0000620
  O        1.9818930    -1.3277110    -0.0003480
  C        0.1471630     0.1465200    -0.0000040
  C       -0.5217823     1.4191936     0.0002333
  C        1.5865110    -0.1585480    -0.0001750
  C       -1.9046620     1.2489520     0.0003500
  C        2.5479920     1.0088850    -0.0001140
  C       -2.3081880    -0.0718450     0.0002130
  H        0.0283220     2.3240690     0.0003010
  H       -2.5968940     2.0844950     0.0005320
  H        2.3937560     1.6342750    -0.8845650
  H        3.5659410     0.6177950    -0.0003540
  H        2.3940470     1.6339130     0.8846460
  H       -3.3221070    -0.4534470     0.0002580
units angstrom
no_reorient  #important for SAPT in psi4, default
symmetry c1  #important for SAPT in psi4, default
}

set PROPERTIES_ORIGIN ["COM"]
properties('MP2/aug-cc-pvtz', properties = ['dipole'])
--------------------------------------------------------------------------

    Molecular point group: c1
  Charge       = 0
  Multiplicity = 1
  Basis Set: AUG-CC-PVTZ
    Blend: AUG-CC-PVTZ
  Basis Set: (AUG-CC-PVTZ AUX)
    Blend: AUG-CC-PVTZ-JKFIT

    Orbital Energies [Eh]
    ---------------------

    Doubly Occupied:

       1A    -92.001629     2A    -20.544945     3A    -11.344265
       4A    -11.285325     5A    -11.278533     6A    -11.269181
       7A    -11.252517     8A    -11.240421     9A     -9.001015
      10A     -6.681817    11A     -6.681236    12A     -6.680678
      13A     -1.376336    14A     -1.184568    15A     -1.041478
      16A     -1.009291    17A     -0.979355    18A     -0.841208
      19A     -0.773095    20A     -0.728344    21A     -0.693724
      22A     -0.621376    23A     -0.615110    24A     -0.609162
      25A     -0.588406    26A     -0.554644    27A     -0.540145
      28A     -0.528078    29A     -0.493704    30A     -0.490632
      31A     -0.425214    32A     -0.362317    33A     -0.332223

  @DF-RHF Final Energy:  -703.19940449788760

   => Energetics <=

    Nuclear Repulsion Energy =            411.4310122400174237
    One-Electron Energy =               -1781.1608913109655532
    Two-Electron Energy =                 666.5304745730604736
    Total Energy =                       -703.1994044978875991
  Basis Set: (AUG-CC-PVTZ AUX)
    Blend: AUG-CC-PVTZ-RI
    Molecular point group: c1

    Geometry (in Angstrom), charge = 0, multiplicity = 1:

       Center              X                  Y                   Z               Mass
    ------------   -----------------  -----------------  -----------------  -----------------
         S           -0.962278828932    -1.099837589959    -0.000056568078    31.972071174400
         O            2.003363171068    -1.270498589959    -0.000342568078    15.994914619570
         C            0.168633171068     0.203732410041     0.000001431922    12.000000000000
         C           -0.500312128932     1.476406010041     0.000238731922    12.000000000000
         C            1.607981171068    -0.101335589959    -0.000169568078    12.000000000000
         C           -1.883191828932     1.306164410041     0.000355431922    12.000000000000
         C            2.569462171068     1.066097410041    -0.000108568078    12.000000000000
         C           -2.286717828932    -0.014632589959     0.000218431922    12.000000000000
         H            0.049792171068     2.381281410041     0.000306431922     1.007825032230
         H           -2.575423828932     2.141707410041     0.000537431922     1.007825032230
         H            2.415226171068     1.691487410041    -0.884559568078     1.007825032230
         H            3.587411171068     0.675007410041    -0.000348568078     1.007825032230
         H            2.415517171068     1.691125410041     0.884651431922     1.007825032230
         H           -3.300636828932    -0.396234589959     0.000263431922     1.007825032230

  Basis Set: AUG-CC-PVTZ
    Blend: AUG-CC-PVTZ
  Basis Set: (AUG-CC-PVTZ AUX)
    Blend: AUG-CC-PVTZ-JKFIT
	 Reference Energy          =    -703.1994044978875991 [Eh]
	 Singles Energy            =      -0.0000000000000000 [Eh]
	 Same-Spin Energy          =      -0.3861134062890281 [Eh]
	 Opposite-Spin Energy      =      -1.1771324843065052 [Eh]
	 Correlation Energy        =      -1.5632458905955333 [Eh]
	 Total Energy              =    -704.7626503884831664 [Eh]

	 ================> DF-SCS-MP2 Energies <==================
	-----------------------------------------------------------
	 SCS Same-Spin Scale       =       0.3333333333333333 [-]
	 SCS Opposite-Spin Scale   =       1.2000000000000000 [-]
	 SCS Same-Spin Energy      =      -0.1287044687630094 [Eh]
	 SCS Opposite-Spin Energy  =      -1.4125589811678061 [Eh]
	 SCS Correlation Energy    =      -1.5412634499308155 [Eh]
	 SCS Total Energy          =    -704.7406679478184515 [Eh]
	-----------------------------------------------------------

  Dipole Moment: [D]
     X:    -1.6594      Y:     2.9996      Z:     0.0005     Total:     3.4280

*** Psi4 exiting successfully. Buy a developer a beer!
