                               Psi4 1.3.2 release

  ==> Input File <==

--------------------------------------------------------------------------
#psi4
#
memory 32 gb

molecule  {
0 1
  S       -0.9837490    -1.1570500    -0.0000620
  O        1.9818930    -1.3277110    -0.0003480
  C        0.1919680     0.1062576    -0.0000138
  C       -0.4985190     1.3749350     0.0002250
  C        1.5865110    -0.1585480    -0.0001750
  C       -1.9046620     1.2489520     0.0003500
  C        2.5479920     1.0088850    -0.0001140
  C       -2.3081880    -0.0718450     0.0002130
  H        0.0283220     2.3240690     0.0003010
  H       -2.5968940     2.0844950     0.0005320
  H        2.3937560     1.6342750    -0.8845650
  H        3.5659410     0.6177950    -0.0003540
  H        2.3940470     1.6339130     0.8846460
  H       -3.3221070    -0.4534470     0.0002580
units angstrom
no_reorient  #important for SAPT in psi4, default
symmetry c1  #important for SAPT in psi4, default
}

set PROPERTIES_ORIGIN ["COM"]
properties('MP2/aug-cc-pvtz', properties = ['dipole'])
--------------------------------------------------------------------------

    Molecular point group: c1
  Charge       = 0
  Multiplicity = 1
  Basis Set: AUG-CC-PVTZ
    Blend: AUG-CC-PVTZ
  Basis Set: (AUG-CC-PVTZ AUX)
    Blend: AUG-CC-PVTZ-JKFIT

    Orbital Energies [Eh]
    ---------------------

    Doubly Occupied:

       1A    -92.001561     2A    -20.540236     3A    -11.337871
       4A    -11.289351     5A    -11.276900     6A    -11.275477
       7A    -11.255837     8A    -11.239558     9A     -9.000975
      10A     -6.681774    11A     -6.681270    12A     -6.680659
      13A     -1.375145    14A     -1.183898    15A     -1.047448
      16A     -1.006100    17A     -0.979904    18A     -0.851671
      19A     -0.771590    20A     -0.724347    21A     -0.693034
      22A     -0.624545    23A     -0.619793    24A     -0.609894
      25A     -0.579025    26A     -0.555907    27A     -0.540717
      28A     -0.532341    29A     -0.492110    30A     -0.484249
      31A     -0.426070    32A     -0.360259    33A     -0.334968

  @DF-RHF Final Energy:  -703.19781161873493

   => Energetics <=

    Nuclear Repulsion Energy =            412.1963029586565881
    One-Electron Energy =               -1782.6792575747272167
    Two-Electron Energy =                 667.2851429973356971
    Total Energy =                       -703.1978116187349315
  Basis Set: (AUG-CC-PVTZ AUX)
    Blend: AUG-CC-PVTZ-RI
    Molecular point group: c1

    Geometry (in Angstrom), charge = 0, multiplicity = 1:

       Center              X                  Y                   Z               Mass
    ------------   -----------------  -----------------  -----------------  -----------------
         S           -0.968760807243    -1.091788861126    -0.000054844459    31.972071174400
         O            1.996881192757    -1.262449861126    -0.000340844459    15.994914619570
         C            0.206956192757     0.171518738874    -0.000006644459    12.000000000000
         C           -0.483530807243     1.440196138874     0.000232155541    12.000000000000
         C            1.601499192757    -0.093286861126    -0.000167844459    12.000000000000
         C           -1.889673807243     1.314213138874     0.000357155541    12.000000000000
         C            2.562980192757     1.074146138874    -0.000106844459    12.000000000000
         C           -2.293199807243    -0.006583861126     0.000220155541    12.000000000000
         H            0.043310192757     2.389330138874     0.000308155541     1.007825032230
         H           -2.581905807243     2.149756138874     0.000539155541     1.007825032230
         H            2.408744192757     1.699536138874    -0.884557844459     1.007825032230
         H            3.580929192757     0.683056138874    -0.000346844459     1.007825032230
         H            2.409035192757     1.699174138874     0.884653155541     1.007825032230
         H           -3.307118807243    -0.388185861126     0.000265155541     1.007825032230

  Basis Set: AUG-CC-PVTZ
    Blend: AUG-CC-PVTZ
  Basis Set: (AUG-CC-PVTZ AUX)
    Blend: AUG-CC-PVTZ-JKFIT
	 Reference Energy          =    -703.1978116187349315 [Eh]
	 Singles Energy            =      -0.0000000000000000 [Eh]
	 Same-Spin Energy          =      -0.3861858451254885 [Eh]
	 Opposite-Spin Energy      =      -1.1772265543608254 [Eh]
	 Correlation Energy        =      -1.5634123994863138 [Eh]
	 Total Energy              =    -704.7612240182212417 [Eh]

	 ================> DF-SCS-MP2 Energies <==================
	-----------------------------------------------------------
	 SCS Same-Spin Scale       =       0.3333333333333333 [-]
	 SCS Opposite-Spin Scale   =       1.2000000000000000 [-]
	 SCS Same-Spin Energy      =      -0.1287286150418295 [Eh]
	 SCS Opposite-Spin Energy  =      -1.4126718652329904 [Eh]
	 SCS Correlation Energy    =      -1.5414004802748198 [Eh]
	 SCS Total Energy          =    -704.7392120990097055 [Eh]
	-----------------------------------------------------------

  Dipole Moment: [D]
     X:    -1.8379      Y:     3.0748      Z:     0.0006     Total:     3.5822

*** Psi4 exiting successfully. Buy a developer a beer!
