                               Psi4 1.3.2 release

  ==> Input File <==

--------------------------------------------------------------------------
#psi4
#
memory 32 gb

molecule  {
0 1
  S       -0.9837490    -1.1570500    -0.0000620
  O        1.9818930    -1.3277110    -0.0003480
  C        0.1471630     0.1465200    -0.0000040
  C       -0.4519925     1.2864179     0.0002085
  C        1.5865110    -0.1585480    -0.0001750
  C       -1.9046620     1.2489520     0.0003500
  C        2.5479920     1.0088850    -0.0001140
  C       -2.3081880    -0.0718450     0.0002130
  H        0.0283220     2.3240690     0.0003010
  H       -2.5968940     2.0844950     0.0005320
  H        2.3937560     1.6342750    -0.8845650
  H        3.5659410     0.6177950    -0.0003540
  H        2.3940470     1.6339130     0.8846460
  H       -3.3221070    -0.4534470     0.0002580
units angstrom
no_reorient  #important for SAPT in psi4, default
symmetry c1  #important for SAPT in psi4, default
}

set PROPERTIES_ORIGIN ["COM"]
properties('MP2/aug-cc-pvtz', properties = ['dipole'])
--------------------------------------------------------------------------

    Molecular point group: c1
  Charge       = 0
  Multiplicity = 1
  Basis Set: AUG-CC-PVTZ
    Blend: AUG-CC-PVTZ
  Basis Set: (AUG-CC-PVTZ AUX)
    Blend: AUG-CC-PVTZ-JKFIT

    Orbital Energies [Eh]
    ---------------------

    Doubly Occupied:

       1A    -91.990309     2A    -20.550479     3A    -11.347566
       4A    -11.283032     5A    -11.265043     6A    -11.262396
       7A    -11.254180     8A    -11.242208     9A     -8.990862
      10A     -6.671746    11A     -6.671178    12A     -6.670357
      13A     -1.380732    14A     -1.197127    15A     -1.051108
      16A     -0.993580    17A     -0.992112    18A     -0.840208
      19A     -0.777368    20A     -0.721678    21A     -0.695082
      22A     -0.631711    23A     -0.622126    24A     -0.612949
      25A     -0.565308    26A     -0.550598    27A     -0.547033
      28A     -0.532916    29A     -0.495046    30A     -0.484710
      31A     -0.427499    32A     -0.363791    33A     -0.344486

  @DF-RHF Final Energy:  -703.19599164081683

   => Energetics <=

    Nuclear Repulsion Energy =            414.0187061122371119
    One-Electron Energy =               -1786.3763451963541229
    Two-Electron Energy =                 669.1616474433001258
    Total Energy =                       -703.1959916408168283
  Basis Set: (AUG-CC-PVTZ AUX)
    Blend: AUG-CC-PVTZ-RI
    Molecular point group: c1

    Geometry (in Angstrom), charge = 0, multiplicity = 1:

       Center              X                  Y                   Z               Mass
    ------------   -----------------  -----------------  -----------------  -----------------
         S           -0.968924741493    -1.087193683652    -0.000054206435    31.972071174400
         O            1.996717258507    -1.257854683652    -0.000340206435    15.994914619570
         C            0.161987258507     0.216376316348     0.000003793565    12.000000000000
         C           -0.437168241493     1.356274216348     0.000216293565    12.000000000000
         C            1.601335258507    -0.088691683652    -0.000167206435    12.000000000000
         C           -1.889837741493     1.318808316348     0.000357793565    12.000000000000
         C            2.562816258507     1.078741316348    -0.000106206435    12.000000000000
         C           -2.293363741493    -0.001988683652     0.000220793565    12.000000000000
         H            0.043146258507     2.393925316348     0.000308793565     1.007825032230
         H           -2.582069741493     2.154351316348     0.000539793565     1.007825032230
         H            2.408580258507     1.704131316348    -0.884557206435     1.007825032230
         H            3.580765258507     0.687651316348    -0.000346206435     1.007825032230
         H            2.408871258507     1.703769316348     0.884653793565     1.007825032230
         H           -3.307282741493    -0.383590683652     0.000265793565     1.007825032230

  Basis Set: AUG-CC-PVTZ
    Blend: AUG-CC-PVTZ
  Basis Set: (AUG-CC-PVTZ AUX)
    Blend: AUG-CC-PVTZ-JKFIT
	 Reference Energy          =    -703.1959916408168283 [Eh]
	 Singles Energy            =      -0.0000000000000000 [Eh]
	 Same-Spin Energy          =      -0.3828579333850478 [Eh]
	 Opposite-Spin Energy      =      -1.1734091537091789 [Eh]
	 Correlation Energy        =      -1.5562670870942266 [Eh]
	 Total Energy              =    -704.7522587279109985 [Eh]

	 ================> DF-SCS-MP2 Energies <==================
	-----------------------------------------------------------
	 SCS Same-Spin Scale       =       0.3333333333333333 [-]
	 SCS Opposite-Spin Scale   =       1.2000000000000000 [-]
	 SCS Same-Spin Energy      =      -0.1276193111283493 [Eh]
	 SCS Opposite-Spin Energy  =      -1.4080909844510145 [Eh]
	 SCS Correlation Energy    =      -1.5357102955793638 [Eh]
	 SCS Total Energy          =    -704.7317019363962345 [Eh]
	-----------------------------------------------------------

  Dipole Moment: [D]
     X:    -1.4954      Y:     3.1523      Z:     0.0006     Total:     3.4890

*** Psi4 exiting successfully. Buy a developer a beer!
