                               Psi4 1.4a3.dev225

  ==> Input File <==

--------------------------------------------------------------------------
#psi4
#
memory 32 gb

molecule  {
0 1
  S       -0.9837490    -1.1570500    -0.0000620
  O        1.9818930    -1.3277110    -0.0003480
  C        0.1143974     0.1087521    -0.0000057
  C       -0.4985190     1.3749350     0.0002250
  C        1.5865110    -0.1585480    -0.0001750
  C       -1.9046620     1.2489520     0.0003500
  C        2.5479920     1.0088850    -0.0001140
  C       -2.3081880    -0.0718450     0.0002130
  H        0.0283220     2.3240690     0.0003010
  H       -2.5968940     2.0844950     0.0005320
  H        2.3937560     1.6342750    -0.8845650
  H        3.5659410     0.6177950    -0.0003540
  H        2.3940470     1.6339130     0.8846460
  H       -3.3221070    -0.4534470     0.0002580
units angstrom
no_reorient  #important for SAPT in psi4, default
symmetry c1  #important for SAPT in psi4, default
}

set PROPERTIES_ORIGIN ["COM"]
properties('MP2/aug-cc-pvtz', properties = ['dipole'])
--------------------------------------------------------------------------

    Molecular point group: c1
  Charge       = 0
  Multiplicity = 1
  Basis Set: AUG-CC-PVTZ
    Blend: AUG-CC-PVTZ
  Basis Set: (AUG-CC-PVTZ AUX)
    Blend: AUG-CC-PVTZ-JKFIT

    Orbital Energies [Eh]
    ---------------------

    Doubly Occupied:

       1A    -91.999127     2A    -20.546735     3A    -11.346913
       4A    -11.280733     5A    -11.274285     6A    -11.265093
       7A    -11.252111     8A    -11.242620     9A     -8.999777
      10A     -6.680658    11A     -6.680094    12A     -6.679379
      13A     -1.377899    14A     -1.190759    15A     -1.039225
      16A     -1.009378    17A     -0.981053    18A     -0.834481
      19A     -0.771858    20A     -0.727034    21A     -0.694734
      22A     -0.622779    23A     -0.616193    24A     -0.610061
      25A     -0.573745    26A     -0.556038    27A     -0.543936
      28A     -0.536579    29A     -0.494212    30A     -0.492717
      31A     -0.425948    32A     -0.359914    33A     -0.335154

  @DF-RHF Final Energy:  -703.20206069257188

   => Energetics <=

    Nuclear Repulsion Energy =            412.6908182584135147
    One-Electron Energy =               -1783.7033159560394324
    Two-Electron Energy =                 667.8104370050539274
    Total Energy =                       -703.2020606925718766
  Basis Set: (AUG-CC-PVTZ AUX)
    Blend: AUG-CC-PVTZ-RI
    Molecular point group: c1

    Geometry (in Angstrom), charge = 0, multiplicity = 1:

       Center              X                  Y                   Z               Mass
    ------------   -----------------  -----------------  -----------------  -----------------
         S           -0.961373948062    -1.092026406281    -0.000055615803    31.972071174400
         O            2.004268051938    -1.262687406281    -0.000341615803    15.994914619570
         C            0.136772451938     0.173775693719     0.000000684197    12.000000000000
         C           -0.476143948062     1.439958593719     0.000231384197    12.000000000000
         C            1.608886051938    -0.093524406281    -0.000168615803    12.000000000000
         C           -1.882286948062     1.313975593719     0.000356384197    12.000000000000
         C            2.570367051938     1.073908593719    -0.000107615803    12.000000000000
         C           -2.285812948062    -0.006821406281     0.000219384197    12.000000000000
         H            0.050697051938     2.389092593719     0.000307384197     1.007825032230
         H           -2.574518948062     2.149518593719     0.000538384197     1.007825032230
         H            2.416131051938     1.699298593719    -0.884558615803     1.007825032230
         H            3.588316051938     0.682818593719    -0.000347615803     1.007825032230
         H            2.416422051938     1.698936593719     0.884652384197     1.007825032230
         H           -3.299731948062    -0.388423406281     0.000264384197     1.007825032230

  Basis Set: AUG-CC-PVTZ
    Blend: AUG-CC-PVTZ
  Basis Set: (AUG-CC-PVTZ AUX)
    Blend: AUG-CC-PVTZ-JKFIT
	 Reference Energy          =    -703.2020606925718766 [Eh]
	 Singles Energy            =      -0.0000000000000000 [Eh]
	 Same-Spin Energy          =      -0.3853378368339890 [Eh]
	 Opposite-Spin Energy      =      -1.1757726801279325 [Eh]
	 Correlation Energy        =      -1.5611105169619215 [Eh]
	 Total Energy              =    -704.7631712095337662 [Eh]

	 ================> DF-SCS-MP2 Energies <==================
	-----------------------------------------------------------
	 SCS Same-Spin Scale       =       0.3333333333333333 [-]
	 SCS Opposite-Spin Scale   =       1.2000000000000000 [-]
	 SCS Same-Spin Energy      =      -0.1284459456113297 [Eh]
	 SCS Opposite-Spin Energy  =      -1.4109272161535189 [Eh]
	 SCS Correlation Energy    =      -1.5393731617648485 [Eh]
	 SCS Total Energy          =    -704.7414338543367194 [Eh]
	-----------------------------------------------------------

  Dipole Moment: [D]
     X:    -1.5372      Y:     2.9816      Z:     0.0005     Total:     3.3545

*** Psi4 exiting successfully. Buy a developer a beer!
