                               Psi4 1.4a3.dev225

  ==> Input File <==

--------------------------------------------------------------------------
#psi4
#
memory 32 gb

molecule  {
0 1
  S       -0.9837490    -1.1570500    -0.0000620
  O        1.9818930    -1.3277110    -0.0003480
  C        0.1471630     0.1465200    -0.0000040
  C       -0.4985190     1.3749350     0.0002250
  C        1.5669456    -0.1544011    -0.0001727
  C       -1.9046620     1.2489520     0.0003500
  C        2.5479920     1.0088850    -0.0001140
  C       -2.3081880    -0.0718450     0.0002130
  H        0.0283220     2.3240690     0.0003010
  H       -2.5968940     2.0844950     0.0005320
  H        2.3937560     1.6342750    -0.8845650
  H        3.5659410     0.6177950    -0.0003540
  H        2.3940470     1.6339130     0.8846460
  H       -3.3221070    -0.4534470     0.0002580
units angstrom
no_reorient  #important for SAPT in psi4, default
symmetry c1  #important for SAPT in psi4, default
}

set PROPERTIES_ORIGIN ["COM"]
properties('MP2/aug-cc-pvtz', properties = ['dipole'])
--------------------------------------------------------------------------

    Molecular point group: c1
  Charge       = 0
  Multiplicity = 1
  Basis Set: AUG-CC-PVTZ
    Blend: AUG-CC-PVTZ
  Basis Set: (AUG-CC-PVTZ AUX)
    Blend: AUG-CC-PVTZ-JKFIT

    Orbital Energies [Eh]
    ---------------------

    Doubly Occupied:

       1A    -91.998978     2A    -20.544324     3A    -11.344358
       4A    -11.286666     5A    -11.274421     6A    -11.269675
       7A    -11.254147     8A    -11.240504     9A     -8.998753
      10A     -6.679580    11A     -6.678994    12A     -6.678350
      13A     -1.369684    14A     -1.189824    15A     -1.045105
      16A     -1.005874    17A     -0.982695    18A     -0.845077
      19A     -0.774913    20A     -0.728872    21A     -0.691723
      22A     -0.621395    23A     -0.617125    24A     -0.608320
      25A     -0.577308    26A     -0.557165    27A     -0.543003
      28A     -0.531471    29A     -0.490481    30A     -0.490377
      31A     -0.425244    32A     -0.361328    33A     -0.339558

  @DF-RHF Final Energy:  -703.20322415710814

   => Energetics <=

    Nuclear Repulsion Energy =            412.3967555296791829
    One-Electron Energy =               -1783.1093764960346562
    Two-Electron Energy =                 667.5093968092472778
    Total Energy =                       -703.2032241571081386
  Basis Set: (AUG-CC-PVTZ AUX)
    Blend: AUG-CC-PVTZ-RI
    Molecular point group: c1

    Geometry (in Angstrom), charge = 0, multiplicity = 1:

       Center              X                  Y                   Z               Mass
    ------------   -----------------  -----------------  -----------------  -----------------
         S           -0.962630970936    -1.096017850529    -0.000055996713    31.972071174400
         O            2.003011029064    -1.266678850529    -0.000341996713    15.994914619570
         C            0.168281029064     0.207552149471     0.000002003287    12.000000000000
         C           -0.477400970936     1.435967149471     0.000231003287    12.000000000000
         C            1.588063629064    -0.093368950529    -0.000166696713    12.000000000000
         C           -1.883543970936     1.309984149471     0.000356003287    12.000000000000
         C            2.569110029064     1.069917149471    -0.000107996713    12.000000000000
         C           -2.287069970936    -0.010812850529     0.000219003287    12.000000000000
         H            0.049440029064     2.385101149471     0.000307003287     1.007825032230
         H           -2.575775970936     2.145527149471     0.000538003287     1.007825032230
         H            2.414874029064     1.695307149471    -0.884558996713     1.007825032230
         H            3.587059029064     0.678827149471    -0.000347996713     1.007825032230
         H            2.415165029064     1.694945149471     0.884652003287     1.007825032230
         H           -3.300988970936    -0.392414850529     0.000264003287     1.007825032230

  Basis Set: AUG-CC-PVTZ
    Blend: AUG-CC-PVTZ
  Basis Set: (AUG-CC-PVTZ AUX)
    Blend: AUG-CC-PVTZ-JKFIT
	 Reference Energy          =    -703.2032241571081386 [Eh]
	 Singles Energy            =      -0.0000000000000000 [Eh]
	 Same-Spin Energy          =      -0.3853233813829225 [Eh]
	 Opposite-Spin Energy      =      -1.1763620714415102 [Eh]
	 Correlation Energy        =      -1.5616854528244328 [Eh]
	 Total Energy              =    -704.7649096099326016 [Eh]

	 ================> DF-SCS-MP2 Energies <==================
	-----------------------------------------------------------
	 SCS Same-Spin Scale       =       0.3333333333333333 [-]
	 SCS Opposite-Spin Scale   =       1.2000000000000000 [-]
	 SCS Same-Spin Energy      =      -0.1284411271276408 [Eh]
	 SCS Opposite-Spin Energy  =      -1.4116344857298122 [Eh]
	 SCS Correlation Energy    =      -1.5400756128574531 [Eh]
	 SCS Total Energy          =    -704.7432997699655743 [Eh]
	-----------------------------------------------------------

  Dipole Moment: [D]
     X:    -1.7750      Y:     3.0688      Z:     0.0006     Total:     3.5451

*** Psi4 exiting successfully. Buy a developer a beer!
