                               Psi4 1.3.2 release

  ==> Input File <==

--------------------------------------------------------------------------
#psi4
#
memory 32 gb

molecule  {
0 1
  S       -0.9837490    -1.1570500    -0.0000620
  O        1.9818930    -1.3277110    -0.0003480
  C        0.1471630     0.1465200    -0.0000040
  C       -0.6233862     1.3007135     0.0002258
  C        1.5865110    -0.1585480    -0.0001750
  C       -1.9046620     1.2489520     0.0003500
  C        2.5479920     1.0088850    -0.0001140
  C       -2.3081880    -0.0718450     0.0002130
  H        0.0283220     2.3240690     0.0003010
  H       -2.5968940     2.0844950     0.0005320
  H        2.3937560     1.6342750    -0.8845650
  H        3.5659410     0.6177950    -0.0003540
  H        2.3940470     1.6339130     0.8846460
  H       -3.3221070    -0.4534470     0.0002580
units angstrom
no_reorient  #important for SAPT in psi4, default
symmetry c1  #important for SAPT in psi4, default
}

set PROPERTIES_ORIGIN ["COM"]
properties('MP2/aug-cc-pvtz', properties = ['dipole'])
--------------------------------------------------------------------------

    Molecular point group: c1
  Charge       = 0
  Multiplicity = 1
  Basis Set: AUG-CC-PVTZ
    Blend: AUG-CC-PVTZ
  Basis Set: (AUG-CC-PVTZ AUX)
    Blend: AUG-CC-PVTZ-JKFIT

    Orbital Energies [Eh]
    ---------------------

    Doubly Occupied:

       1A    -92.001195     2A    -20.544851     3A    -11.347030
       4A    -11.289276     5A    -11.269450     6A    -11.264015
       7A    -11.240337     8A    -11.239733     9A     -9.000677
      10A     -6.681359    11A     -6.680938    12A     -6.680374
      13A     -1.376562    14A     -1.208583    15A     -1.044649
      16A     -1.018852    17A     -0.980068    18A     -0.841352
      19A     -0.775805    20A     -0.717057    21A     -0.698445
      22A     -0.636784    23A     -0.619810    24A     -0.609744
      25A     -0.576881    26A     -0.552209    27A     -0.544619
      28A     -0.521084    29A     -0.497086    30A     -0.478042
      31A     -0.426705    32A     -0.373410    33A     -0.331747

  @DF-RHF Final Energy:  -703.17274323732875

   => Energetics <=

    Nuclear Repulsion Energy =            414.1478941634389344
    One-Electron Energy =               -1786.5038175319193670
    Two-Electron Energy =                 669.1831801311517438
    Total Energy =                       -703.1727432373287456
  Basis Set: (AUG-CC-PVTZ AUX)
    Blend: AUG-CC-PVTZ-RI
    Molecular point group: c1

    Geometry (in Angstrom), charge = 0, multiplicity = 1:

       Center              X                  Y                   Z               Mass
    ------------   -----------------  -----------------  -----------------  -----------------
         S           -0.952603337166    -1.088555018798    -0.000055853872    31.972071174400
         O            2.013038662834    -1.259216018798    -0.000341853872    15.994914619570
         C            0.178308662834     0.215014981202     0.000002146128    12.000000000000
         C           -0.592240537166     1.369208481202     0.000231946128    12.000000000000
         C            1.617656662834    -0.090053018798    -0.000168853872    12.000000000000
         C           -1.873516337166     1.317446981202     0.000356146128    12.000000000000
         C            2.579137662834     1.077379981202    -0.000107853872    12.000000000000
         C           -2.277042337166    -0.003350018798     0.000219146128    12.000000000000
         H            0.059467662834     2.392563981202     0.000307146128     1.007825032230
         H           -2.565748337166     2.152989981202     0.000538146128     1.007825032230
         H            2.424901662834     1.702769981202    -0.884558853872     1.007825032230
         H            3.597086662834     0.686289981202    -0.000347853872     1.007825032230
         H            2.425192662834     1.702407981202     0.884652146128     1.007825032230
         H           -3.290961337166    -0.384952018798     0.000264146128     1.007825032230

  Basis Set: AUG-CC-PVTZ
    Blend: AUG-CC-PVTZ
  Basis Set: (AUG-CC-PVTZ AUX)
    Blend: AUG-CC-PVTZ-JKFIT
	 Reference Energy          =    -703.1727432373287456 [Eh]
	 Singles Energy            =      -0.0000000000000000 [Eh]
	 Same-Spin Energy          =      -0.3877336170877688 [Eh]
	 Opposite-Spin Energy      =      -1.1782911489145980 [Eh]
	 Correlation Energy        =      -1.5660247660023667 [Eh]
	 Total Energy              =    -704.7387680033310744 [Eh]

	 ================> DF-SCS-MP2 Energies <==================
	-----------------------------------------------------------
	 SCS Same-Spin Scale       =       0.3333333333333333 [-]
	 SCS Opposite-Spin Scale   =       1.2000000000000000 [-]
	 SCS Same-Spin Energy      =      -0.1292445390292563 [Eh]
	 SCS Opposite-Spin Energy  =      -1.4139493786975175 [Eh]
	 SCS Correlation Energy    =      -1.5431939177267737 [Eh]
	 SCS Total Energy          =    -704.7159371550554852 [Eh]
	-----------------------------------------------------------

  Dipole Moment: [D]
     X:    -1.6992      Y:     3.0065      Z:     0.0006     Total:     3.4535

*** Psi4 exiting successfully. Buy a developer a beer!
