                               Psi4 1.3.2 release

  ==> Input File <==

--------------------------------------------------------------------------
#psi4
#
memory 32 gb

molecule  {
0 1
  S       -0.9837490    -1.1570500    -0.0000620
  O        1.9818930    -1.3277110    -0.0003480
  C        0.1471630     0.1465200    -0.0000040
  C       -0.5915721     1.5519692     0.0002580
  C        1.5865110    -0.1585480    -0.0001750
  C       -1.9046620     1.2489520     0.0003500
  C        2.5479920     1.0088850    -0.0001140
  C       -2.3081880    -0.0718450     0.0002130
  H        0.0283220     2.3240690     0.0003010
  H       -2.5968940     2.0844950     0.0005320
  H        2.3937560     1.6342750    -0.8845650
  H        3.5659410     0.6177950    -0.0003540
  H        2.3940470     1.6339130     0.8846460
  H       -3.3221070    -0.4534470     0.0002580
units angstrom
no_reorient  #important for SAPT in psi4, default
symmetry c1  #important for SAPT in psi4, default
}

set PROPERTIES_ORIGIN ["COM"]
properties('MP2/aug-cc-pvtz', properties = ['dipole'])
--------------------------------------------------------------------------

    Molecular point group: c1
  Charge       = 0
  Multiplicity = 1
  Basis Set: AUG-CC-PVTZ
    Blend: AUG-CC-PVTZ
  Basis Set: (AUG-CC-PVTZ AUX)
    Blend: AUG-CC-PVTZ-JKFIT

    Orbital Energies [Eh]
    ---------------------

    Doubly Occupied:

       1A    -92.013582     2A    -20.540312     3A    -11.341189
       4A    -11.286956     5A    -11.286870     6A    -11.274029
       7A    -11.253240     8A    -11.238798     9A     -9.011793
      10A     -6.692477    11A     -6.691909    12A     -6.691604
      13A     -1.372636    14A     -1.177747    15A     -1.035982
      16A     -1.023063    17A     -0.970219    18A     -0.844612
      19A     -0.782414    20A     -0.722574    21A     -0.692729
      22A     -0.623310    23A     -0.616957    24A     -0.606327
      25A     -0.604096    26A     -0.545361    27A     -0.536439
      28A     -0.515781    29A     -0.492922    30A     -0.486763
      31A     -0.420771    32A     -0.372335    33A     -0.315168

  @DF-RHF Final Energy:  -703.15495005771049

   => Energetics <=

    Nuclear Repulsion Energy =            409.1018342237564980
    One-Electron Energy =               -1776.3516351575667613
    Two-Electron Energy =                 664.0948508760998266
    Total Energy =                       -703.1549500577104936
  Basis Set: (AUG-CC-PVTZ AUX)
    Blend: AUG-CC-PVTZ-RI
    Molecular point group: c1

    Geometry (in Angstrom), charge = 0, multiplicity = 1:

       Center              X                  Y                   Z               Mass
    ------------   -----------------  -----------------  -----------------  -----------------
         S           -0.955632916371    -1.112481486743    -0.000058920199    31.972071174400
         O            2.010009083629    -1.283142486743    -0.000344920199    15.994914619570
         C            0.175279083629     0.191088513257    -0.000000920199    12.000000000000
         C           -0.563456016371     1.596537713257     0.000261079801    12.000000000000
         C            1.614627083629    -0.113979486743    -0.000171920199    12.000000000000
         C           -1.876545916371     1.293520513257     0.000353079801    12.000000000000
         C            2.576108083629     1.053453513257    -0.000110920199    12.000000000000
         C           -2.280071916371    -0.027276486743     0.000216079801    12.000000000000
         H            0.056438083629     2.368637513257     0.000304079801     1.007825032230
         H           -2.568777916371     2.129063513257     0.000535079801     1.007825032230
         H            2.421872083629     1.678843513257    -0.884561920199     1.007825032230
         H            3.594057083629     0.662363513257    -0.000350920199     1.007825032230
         H            2.422163083629     1.678481513257     0.884649079801     1.007825032230
         H           -3.293990916371    -0.408878486743     0.000261079801     1.007825032230

  Basis Set: AUG-CC-PVTZ
    Blend: AUG-CC-PVTZ
  Basis Set: (AUG-CC-PVTZ AUX)
    Blend: AUG-CC-PVTZ-JKFIT
	 Reference Energy          =    -703.1549500577104936 [Eh]
	 Singles Energy            =      -0.0000000000000000 [Eh]
	 Same-Spin Energy          =      -0.3900562194664366 [Eh]
	 Opposite-Spin Energy      =      -1.1831493902931651 [Eh]
	 Correlation Energy        =      -1.5732056097596017 [Eh]
	 Total Energy              =    -704.7281556674701051 [Eh]

	 ================> DF-SCS-MP2 Energies <==================
	-----------------------------------------------------------
	 SCS Same-Spin Scale       =       0.3333333333333333 [-]
	 SCS Opposite-Spin Scale   =       1.2000000000000000 [-]
	 SCS Same-Spin Energy      =      -0.1300187398221455 [Eh]
	 SCS Opposite-Spin Energy  =      -1.4197792683517980 [Eh]
	 SCS Correlation Energy    =      -1.5497980081739435 [Eh]
	 SCS Total Energy          =    -704.7047480658844734 [Eh]
	-----------------------------------------------------------

  Dipole Moment: [D]
     X:    -1.7682      Y:     2.8868      Z:     0.0005     Total:     3.3853

*** Psi4 exiting successfully. Buy a developer a beer!
