                               Psi4 1.4a3.dev225

  ==> Input File <==

--------------------------------------------------------------------------
#psi4
#
memory 32 gb

molecule  {
0 1
  S       -0.9837490    -1.1570500    -0.0000620
  O        1.9818930    -1.3277110    -0.0003480
  C        0.1471630     0.1465200    -0.0000040
  C       -0.5078243     1.3926384     0.0002283
  C        1.5865110    -0.1585480    -0.0001750
  C       -1.9046620     1.2489520     0.0003500
  C        2.5479920     1.0088850    -0.0001140
  C       -2.3081880    -0.0718450     0.0002130
  H        0.0283220     2.3240690     0.0003010
  H       -2.5968940     2.0844950     0.0005320
  H        2.3937560     1.6342750    -0.8845650
  H        3.5659410     0.6177950    -0.0003540
  H        2.3940470     1.6339130     0.8846460
  H       -3.3221070    -0.4534470     0.0002580
units angstrom
no_reorient  #important for SAPT in psi4, default
symmetry c1  #important for SAPT in psi4, default
}

set PROPERTIES_ORIGIN ["COM"]
properties('MP2/aug-cc-pvtz', properties = ['dipole'])
--------------------------------------------------------------------------

    Molecular point group: c1
  Charge       = 0
  Multiplicity = 1
  Basis Set: AUG-CC-PVTZ
    Blend: AUG-CC-PVTZ
  Basis Set: (AUG-CC-PVTZ AUX)
    Blend: AUG-CC-PVTZ-JKFIT

    Orbital Energies [Eh]
    ---------------------

    Doubly Occupied:

       1A    -91.999249     2A    -20.546014     3A    -11.344921
       4A    -11.284876     5A    -11.276208     6A    -11.268110
       7A    -11.252689     8A    -11.240778     9A     -8.998873
      10A     -6.679695    11A     -6.679115    12A     -6.678505
      13A     -1.377183    14A     -1.186480    15A     -1.043057
      16A     -1.006232    17A     -0.981688    18A     -0.840763
      19A     -0.772942    20A     -0.728133    21A     -0.693982
      22A     -0.622716    23A     -0.617134    24A     -0.609833
      25A     -0.580947    26A     -0.556779    27A     -0.541197
      28A     -0.529804    29A     -0.493925    30A     -0.489914
      31A     -0.425904    32A     -0.360816    33A     -0.335910

  @DF-RHF Final Energy:  -703.20341198443703

   => Energetics <=

    Nuclear Repulsion Energy =            411.9227971785425098
    One-Electron Energy =               -1782.1636715560418907
    Two-Electron Energy =                 667.0374623930624693
    Total Energy =                       -703.2034119844370252
  Basis Set: (AUG-CC-PVTZ AUX)
    Blend: AUG-CC-PVTZ-RI
    Molecular point group: c1

    Geometry (in Angstrom), charge = 0, multiplicity = 1:

       Center              X                  Y                   Z               Mass
    ------------   -----------------  -----------------  -----------------  -----------------
         S           -0.963608015253    -1.097308802984    -0.000056091941    31.972071174400
         O            2.002033984747    -1.267969802984    -0.000342091941    15.994914619570
         C            0.167303984747     0.206261197016     0.000001908059    12.000000000000
         C           -0.487683315253     1.452379597016     0.000234208059    12.000000000000
         C            1.606651984747    -0.098806802984    -0.000169091941    12.000000000000
         C           -1.884521015253     1.308693197016     0.000355908059    12.000000000000
         C            2.568132984747     1.068626197016    -0.000108091941    12.000000000000
         C           -2.288047015253    -0.012103802984     0.000218908059    12.000000000000
         H            0.048462984747     2.383810197016     0.000306908059     1.007825032230
         H           -2.576753015253     2.144236197016     0.000537908059     1.007825032230
         H            2.413896984747     1.694016197016    -0.884559091941     1.007825032230
         H            3.586081984747     0.677536197016    -0.000348091941     1.007825032230
         H            2.414187984747     1.693654197016     0.884651908059     1.007825032230
         H           -3.301966015253    -0.393705802984     0.000263908059     1.007825032230

  Basis Set: AUG-CC-PVTZ
    Blend: AUG-CC-PVTZ
  Basis Set: (AUG-CC-PVTZ AUX)
    Blend: AUG-CC-PVTZ-JKFIT
	 Reference Energy          =    -703.2034119844370252 [Eh]
	 Singles Energy            =      -0.0000000000000000 [Eh]
	 Same-Spin Energy          =      -0.3853878495420712 [Eh]
	 Opposite-Spin Energy      =      -1.1761884500420758 [Eh]
	 Correlation Energy        =      -1.5615762995841469 [Eh]
	 Total Energy              =    -704.7649882840212285 [Eh]

	 ================> DF-SCS-MP2 Energies <==================
	-----------------------------------------------------------
	 SCS Same-Spin Scale       =       0.3333333333333333 [-]
	 SCS Opposite-Spin Scale   =       1.2000000000000000 [-]
	 SCS Same-Spin Energy      =      -0.1284626165140237 [Eh]
	 SCS Opposite-Spin Energy  =      -1.4114261400504911 [Eh]
	 SCS Correlation Energy    =      -1.5398887565645147 [Eh]
	 SCS Total Energy          =    -704.7433007410015762 [Eh]
	-----------------------------------------------------------

  Dipole Moment: [D]
     X:    -1.6316      Y:     3.0286      Z:     0.0005     Total:     3.4402

*** Psi4 exiting successfully. Buy a developer a beer!
