                               Psi4 1.3.2 release

  ==> Input File <==

--------------------------------------------------------------------------
#psi4
#
memory 32 gb

molecule  {
0 1
  S       -0.9837490    -1.1570500    -0.0000620
  O        1.9818930    -1.3277110    -0.0003480
  C        0.2782253     0.2975918     0.0000027
  C       -0.4985190     1.3749350     0.0002250
  C        1.5865110    -0.1585480    -0.0001750
  C       -1.9046620     1.2489520     0.0003500
  C        2.5479920     1.0088850    -0.0001140
  C       -2.3081880    -0.0718450     0.0002130
  H        0.0283220     2.3240690     0.0003010
  H       -2.5968940     2.0844950     0.0005320
  H        2.3937560     1.6342750    -0.8845650
  H        3.5659410     0.6177950    -0.0003540
  H        2.3940470     1.6339130     0.8846460
  H       -3.3221070    -0.4534470     0.0002580
units angstrom
no_reorient  #important for SAPT in psi4, default
symmetry c1  #important for SAPT in psi4, default
}

set PROPERTIES_ORIGIN ["COM"]
properties('MP2/aug-cc-pvtz', properties = ['dipole'])
--------------------------------------------------------------------------

    Molecular point group: c1
  Charge       = 0
  Multiplicity = 1
  Basis Set: AUG-CC-PVTZ
    Blend: AUG-CC-PVTZ
  Basis Set: (AUG-CC-PVTZ AUX)
    Blend: AUG-CC-PVTZ-JKFIT

    Orbital Energies [Eh]
    ---------------------

    Doubly Occupied:

       1A    -91.986847     2A    -20.548318     3A    -11.342702
       4A    -11.297542     5A    -11.280719     6A    -11.278727
       7A    -11.255515     8A    -11.237073     9A     -8.985228
      10A     -6.666048    11A     -6.665056    12A     -6.664703
      13A     -1.378221    14A     -1.183618    15A     -1.069099
      16A     -1.000775    17A     -0.979040    18A     -0.865029
      19A     -0.782138    20A     -0.727746    21A     -0.692082
      22A     -0.633769    23A     -0.626317    24A     -0.614781
      25A     -0.588062    26A     -0.560861    27A     -0.538247
      28A     -0.513459    29A     -0.494597    30A     -0.462673
      31A     -0.417058    32A     -0.374191    33A     -0.336999

  @DF-RHF Final Energy:  -703.17329052868160

   => Energetics <=

    Nuclear Repulsion Energy =            410.7874767750469118
    One-Electron Energy =               -1779.8270530634163151
    Two-Electron Energy =                 665.8662857596879121
    Total Energy =                       -703.1732905286816049
  Basis Set: (AUG-CC-PVTZ AUX)
    Blend: AUG-CC-PVTZ-RI
    Molecular point group: c1

    Geometry (in Angstrom), charge = 0, multiplicity = 1:

       Center              X                  Y                   Z               Mass
    ------------   -----------------  -----------------  -----------------  -----------------
         S           -0.976974879694    -1.110009150667    -0.000056415714    31.972071174400
         O            1.988667120306    -1.280670150667    -0.000342415714    15.994914619570
         C            0.284999420306     0.344632649333     0.000008284286    12.000000000000
         C           -0.491744879694     1.421975849333     0.000230584286    12.000000000000
         C            1.593285120306    -0.111507150667    -0.000169415714    12.000000000000
         C           -1.897887879694     1.295992849333     0.000355584286    12.000000000000
         C            2.554766120306     1.055925849333    -0.000108415714    12.000000000000
         C           -2.301413879694    -0.024804150667     0.000218584286    12.000000000000
         H            0.035096120306     2.371109849333     0.000306584286     1.007825032230
         H           -2.590119879694     2.131535849333     0.000537584286     1.007825032230
         H            2.400530120306     1.681315849333    -0.884559415714     1.007825032230
         H            3.572715120306     0.664835849333    -0.000348415714     1.007825032230
         H            2.400821120306     1.680953849333     0.884651584286     1.007825032230
         H           -3.315332879694    -0.406406150667     0.000263584286     1.007825032230

  Basis Set: AUG-CC-PVTZ
    Blend: AUG-CC-PVTZ
  Basis Set: (AUG-CC-PVTZ AUX)
    Blend: AUG-CC-PVTZ-JKFIT
	 Reference Energy          =    -703.1732905286816049 [Eh]
	 Singles Energy            =      -0.0000000000000000 [Eh]
	 Same-Spin Energy          =      -0.3854567368584192 [Eh]
	 Opposite-Spin Energy      =      -1.1778284989560899 [Eh]
	 Correlation Energy        =      -1.5632852358145091 [Eh]
	 Total Energy              =    -704.7365757644961377 [Eh]

	 ================> DF-SCS-MP2 Energies <==================
	-----------------------------------------------------------
	 SCS Same-Spin Scale       =       0.3333333333333333 [-]
	 SCS Opposite-Spin Scale   =       1.2000000000000000 [-]
	 SCS Same-Spin Energy      =      -0.1284855789528064 [Eh]
	 SCS Opposite-Spin Energy  =      -1.4133941987473078 [Eh]
	 SCS Correlation Energy    =      -1.5418797777001141 [Eh]
	 SCS Total Energy          =    -704.7151703063817649 [Eh]
	-----------------------------------------------------------

  Dipole Moment: [D]
     X:    -1.7667      Y:     3.3484      Z:     0.0006     Total:     3.7859

*** Psi4 exiting successfully. Buy a developer a beer!
