                               Psi4 1.3.2 release

  ==> Input File <==

--------------------------------------------------------------------------
#psi4
#
memory 32 gb

molecule  {
0 1
  S       -0.9837490    -1.1570500    -0.0000620
  O        1.9818930    -1.3277110    -0.0003480
  C        0.1471630     0.1465200    -0.0000040
  C       -0.5826361     1.3269021     0.0002258
  C        1.5865110    -0.1585480    -0.0001750
  C       -1.9046620     1.2489520     0.0003500
  C        2.5479920     1.0088850    -0.0001140
  C       -2.3081880    -0.0718450     0.0002130
  H        0.0283220     2.3240690     0.0003010
  H       -2.5968940     2.0844950     0.0005320
  H        2.3937560     1.6342750    -0.8845650
  H        3.5659410     0.6177950    -0.0003540
  H        2.3940470     1.6339130     0.8846460
  H       -3.3221070    -0.4534470     0.0002580
units angstrom
no_reorient  #important for SAPT in psi4, default
symmetry c1  #important for SAPT in psi4, default
}

set PROPERTIES_ORIGIN ["COM"]
properties('MP2/aug-cc-pvtz', properties = ['dipole'])
--------------------------------------------------------------------------

    Molecular point group: c1
  Charge       = 0
  Multiplicity = 1
  Basis Set: AUG-CC-PVTZ
    Blend: AUG-CC-PVTZ
  Basis Set: (AUG-CC-PVTZ AUX)
    Blend: AUG-CC-PVTZ-JKFIT

    Orbital Energies [Eh]
    ---------------------

    Doubly Occupied:

       1A    -91.999826     2A    -20.545540     3A    -11.346497
       4A    -11.287393     5A    -11.270865     6A    -11.265005
       7A    -11.244503     8A    -11.240249     9A     -8.999407
      10A     -6.680142    11A     -6.679669    12A     -6.679079
      13A     -1.377000    14A     -1.200692    15A     -1.043574
      16A     -1.014224    17A     -0.981202    18A     -0.840841
      19A     -0.774186    20A     -0.720009    21A     -0.696708
      22A     -0.630660    23A     -0.619997    24A     -0.609904
      25A     -0.576983    26A     -0.549260    27A     -0.548155
      28A     -0.525343    29A     -0.496092    30A     -0.483595
      31A     -0.426736    32A     -0.368474    33A     -0.333812

  @DF-RHF Final Energy:  -703.19026797240610

   => Energetics <=

    Nuclear Repulsion Energy =            413.4656313475252318
    One-Electron Energy =               -1785.2005552668472319
    Two-Electron Energy =                 668.5446559469158956
    Total Energy =                       -703.1902679724061045
  Basis Set: (AUG-CC-PVTZ AUX)
    Blend: AUG-CC-PVTZ-RI
    Molecular point group: c1

    Geometry (in Angstrom), charge = 0, multiplicity = 1:

       Center              X                  Y                   Z               Mass
    ------------   -----------------  -----------------  -----------------  -----------------
         S           -0.956483869872    -1.091048895349    -0.000055853872    31.972071174400
         O            2.009158130128    -1.261709895349    -0.000341853872    15.994914619570
         C            0.174428130128     0.212521104651     0.000002146128    12.000000000000
         C           -0.555370969872     1.392903204651     0.000231946128    12.000000000000
         C            1.613776130128    -0.092546895349    -0.000168853872    12.000000000000
         C           -1.877396869872     1.314953104651     0.000356146128    12.000000000000
         C            2.575257130128     1.074886104651    -0.000107853872    12.000000000000
         C           -2.280922869872    -0.005843895349     0.000219146128    12.000000000000
         H            0.055587130128     2.390070104651     0.000307146128     1.007825032230
         H           -2.569628869872     2.150496104651     0.000538146128     1.007825032230
         H            2.421021130128     1.700276104651    -0.884558853872     1.007825032230
         H            3.593206130128     0.683796104651    -0.000347853872     1.007825032230
         H            2.421312130128     1.699914104651     0.884652146128     1.007825032230
         H           -3.294841869872    -0.387445895349     0.000264146128     1.007825032230

  Basis Set: AUG-CC-PVTZ
    Blend: AUG-CC-PVTZ
  Basis Set: (AUG-CC-PVTZ AUX)
    Blend: AUG-CC-PVTZ-JKFIT
	 Reference Energy          =    -703.1902679724061045 [Eh]
	 Singles Energy            =      -0.0000000000000000 [Eh]
	 Same-Spin Energy          =      -0.3867260566573937 [Eh]
	 Opposite-Spin Energy      =      -1.1771253881154053 [Eh]
	 Correlation Energy        =      -1.5638514447727991 [Eh]
	 Total Energy              =    -704.7541194171789130 [Eh]

	 ================> DF-SCS-MP2 Energies <==================
	-----------------------------------------------------------
	 SCS Same-Spin Scale       =       0.3333333333333333 [-]
	 SCS Opposite-Spin Scale   =       1.2000000000000000 [-]
	 SCS Same-Spin Energy      =      -0.1289086855524646 [Eh]
	 SCS Opposite-Spin Energy  =      -1.4125504657384864 [Eh]
	 SCS Correlation Energy    =      -1.5414591512909510 [Eh]
	 SCS Total Energy          =    -704.7317271236970555 [Eh]
	-----------------------------------------------------------

  Dipole Moment: [D]
     X:    -1.6657      Y:     3.0295      Z:     0.0006     Total:     3.4572

*** Psi4 exiting successfully. Buy a developer a beer!
