                               Psi4 1.3.2 release

  ==> Input File <==

--------------------------------------------------------------------------
#psi4
#
memory 32 gb

molecule  {
0 1
  S       -0.9837490    -1.1570500    -0.0000620
  O        1.9818930    -1.3277110    -0.0003480
  C        0.1527064     0.1715936    -0.0000013
  C       -0.4985190     1.3749350     0.0002250
  C        1.5865110    -0.1585480    -0.0001750
  C       -1.9046620     1.2489520     0.0003500
  C        2.5479920     1.0088850    -0.0001140
  C       -2.3081880    -0.0718450     0.0002130
  H        0.0283220     2.3240690     0.0003010
  H       -2.5968940     2.0844950     0.0005320
  H        2.3937560     1.6342750    -0.8845650
  H        3.5659410     0.6177950    -0.0003540
  H        2.3940470     1.6339130     0.8846460
  H       -3.3221070    -0.4534470     0.0002580
units angstrom
no_reorient  #important for SAPT in psi4, default
symmetry c1  #important for SAPT in psi4, default
}

set PROPERTIES_ORIGIN ["COM"]
properties('MP2/aug-cc-pvtz', properties = ['dipole'])
--------------------------------------------------------------------------

    Molecular point group: c1
  Charge       = 0
  Multiplicity = 1
  Basis Set: AUG-CC-PVTZ
    Blend: AUG-CC-PVTZ
  Basis Set: (AUG-CC-PVTZ AUX)
    Blend: AUG-CC-PVTZ-JKFIT

    Orbital Energies [Eh]
    ---------------------

    Doubly Occupied:

       1A    -91.996128     2A    -20.548082     3A    -11.346227
       4A    -11.285265     5A    -11.274405     6A    -11.266390
       7A    -11.252593     8A    -11.240655     9A     -8.995666
      10A     -6.676503    11A     -6.675869    12A     -6.675256
      13A     -1.378291    14A     -1.187868    15A     -1.046083
      16A     -1.002012    17A     -0.984539    18A     -0.840967
      19A     -0.774344    20A     -0.728420    21A     -0.694135
      22A     -0.624410    23A     -0.619069    24A     -0.610605
      25A     -0.576652    26A     -0.559201    27A     -0.541596
      28A     -0.527640    29A     -0.494516    30A     -0.488120
      31A     -0.426062    32A     -0.361237    33A     -0.339323

  @DF-RHF Final Energy:  -703.20491644150070

   => Energetics <=

    Nuclear Repulsion Energy =            412.0923433975407306
    One-Electron Energy =               -1782.5182659790425532
    Two-Electron Energy =                 667.2210061400010090
    Total Energy =                       -703.2049164415006999
  Basis Set: (AUG-CC-PVTZ AUX)
    Blend: AUG-CC-PVTZ-RI
    Molecular point group: c1

    Geometry (in Angstrom), charge = 0, multiplicity = 1:

       Center              X                  Y                   Z               Mass
    ------------   -----------------  -----------------  -----------------  -----------------
         S           -0.965022020765    -1.098010649167    -0.000056034804    31.972071174400
         O            2.000619979235    -1.268671649167    -0.000342034804    15.994914619570
         C            0.171433379235     0.230632950833     0.000004665196    12.000000000000
         C           -0.479792020765     1.433974350833     0.000230965196    12.000000000000
         C            1.605237979235    -0.099508649167    -0.000169034804    12.000000000000
         C           -1.885935020765     1.307991350833     0.000355965196    12.000000000000
         C            2.566718979235     1.067924350833    -0.000108034804    12.000000000000
         C           -2.289461020765    -0.012805649167     0.000218965196    12.000000000000
         H            0.047048979235     2.383108350833     0.000306965196     1.007825032230
         H           -2.578167020765     2.143534350833     0.000537965196     1.007825032230
         H            2.412482979235     1.693314350833    -0.884559034804     1.007825032230
         H            3.584667979235     0.676834350833    -0.000348034804     1.007825032230
         H            2.412773979235     1.692952350833     0.884651965196     1.007825032230
         H           -3.303380020765    -0.394407649167     0.000263965196     1.007825032230

  Basis Set: AUG-CC-PVTZ
    Blend: AUG-CC-PVTZ
  Basis Set: (AUG-CC-PVTZ AUX)
    Blend: AUG-CC-PVTZ-JKFIT
	 Reference Energy          =    -703.2049164415006999 [Eh]
	 Singles Energy            =      -0.0000000000000000 [Eh]
	 Same-Spin Energy          =      -0.3845665746683635 [Eh]
	 Opposite-Spin Energy      =      -1.1753691683984195 [Eh]
	 Correlation Energy        =      -1.5599357430667831 [Eh]
	 Total Energy              =    -704.7648521845675305 [Eh]

	 ================> DF-SCS-MP2 Energies <==================
	-----------------------------------------------------------
	 SCS Same-Spin Scale       =       0.3333333333333333 [-]
	 SCS Opposite-Spin Scale   =       1.2000000000000000 [-]
	 SCS Same-Spin Energy      =      -0.1281888582227878 [Eh]
	 SCS Opposite-Spin Energy  =      -1.4104430020781034 [Eh]
	 SCS Correlation Energy    =      -1.5386318603008913 [Eh]
	 SCS Total Energy          =    -704.7435483018016384 [Eh]
	-----------------------------------------------------------

  Dipole Moment: [D]
     X:    -1.5915      Y:     3.0751      Z:     0.0006     Total:     3.4626

*** Psi4 exiting successfully. Buy a developer a beer!
