                               Psi4 1.3.2 release

  ==> Input File <==

--------------------------------------------------------------------------
#psi4
#
memory 32 gb

molecule  {
0 1
  S       -0.9837490    -1.1570500    -0.0000620
  O        1.9818930    -1.3277110    -0.0003480
  C        0.2772279     0.0211664    -0.0000335
  C       -0.4985190     1.3749350     0.0002250
  C        1.5865110    -0.1585480    -0.0001750
  C       -1.9046620     1.2489520     0.0003500
  C        2.5479920     1.0088850    -0.0001140
  C       -2.3081880    -0.0718450     0.0002130
  H        0.0283220     2.3240690     0.0003010
  H       -2.5968940     2.0844950     0.0005320
  H        2.3937560     1.6342750    -0.8845650
  H        3.5659410     0.6177950    -0.0003540
  H        2.3940470     1.6339130     0.8846460
  H       -3.3221070    -0.4534470     0.0002580
units angstrom
no_reorient  #important for SAPT in psi4, default
symmetry c1  #important for SAPT in psi4, default
}

set PROPERTIES_ORIGIN ["COM"]
properties('MP2/aug-cc-pvtz', properties = ['dipole'])
--------------------------------------------------------------------------

    Molecular point group: c1
  Charge       = 0
  Multiplicity = 1
  Basis Set: AUG-CC-PVTZ
    Blend: AUG-CC-PVTZ
  Basis Set: (AUG-CC-PVTZ AUX)
    Blend: AUG-CC-PVTZ-JKFIT

    Orbital Energies [Eh]
    ---------------------

    Doubly Occupied:

       1A    -92.009931     2A    -20.524857     3A    -11.319819
       4A    -11.300311     5A    -11.292966     6A    -11.275618
       7A    -11.262355     8A    -11.236250     9A     -9.008563
      10A     -6.689294    11A     -6.688930    12A     -6.688381
      13A     -1.369951    14A     -1.179123    15A     -1.055606
      16A     -1.010473    17A     -0.974214    18A     -0.872020
      19A     -0.770597    20A     -0.717034    21A     -0.690629
      22A     -0.629496    23A     -0.619467    24A     -0.609281
      25A     -0.585163    26A     -0.552477    27A     -0.539856
      28A     -0.531902    29A     -0.489497    30A     -0.470492
      31A     -0.420287    32A     -0.364686    33A     -0.325723

  @DF-RHF Final Energy:  -703.15724845606428

   => Energetics <=

    Nuclear Repulsion Energy =            412.2855928055184904
    One-Electron Energy =               -1782.7351855026579415
    Two-Electron Energy =                 667.2923442410751704
    Total Energy =                       -703.1572484560642806
  Basis Set: (AUG-CC-PVTZ AUX)
    Blend: AUG-CC-PVTZ-RI
    Molecular point group: c1

    Geometry (in Angstrom), charge = 0, multiplicity = 1:

       Center              X                  Y                   Z               Mass
    ------------   -----------------  -----------------  -----------------  -----------------
         S           -0.976879899723    -1.083685833536    -0.000052968477    31.972071174400
         O            1.988762100277    -1.254346833536    -0.000338968477    15.994914619570
         C            0.284097000277     0.094530566464    -0.000024468477    12.000000000000
         C           -0.491649899723     1.448299166464     0.000234031523    12.000000000000
         C            1.593380100277    -0.085183833536    -0.000165968477    12.000000000000
         C           -1.897792899723     1.322316166464     0.000359031523    12.000000000000
         C            2.554861100277     1.082249166464    -0.000104968477    12.000000000000
         C           -2.301318899723     0.001519166464     0.000222031523    12.000000000000
         H            0.035191100277     2.397433166464     0.000310031523     1.007825032230
         H           -2.590024899723     2.157859166464     0.000541031523     1.007825032230
         H            2.400625100277     1.707639166464    -0.884555968477     1.007825032230
         H            3.572810100277     0.691159166464    -0.000344968477     1.007825032230
         H            2.400916100277     1.707277166464     0.884655031523     1.007825032230
         H           -3.315237899723    -0.380082833536     0.000267031523     1.007825032230

  Basis Set: AUG-CC-PVTZ
    Blend: AUG-CC-PVTZ
  Basis Set: (AUG-CC-PVTZ AUX)
    Blend: AUG-CC-PVTZ-JKFIT
	 Reference Energy          =    -703.1572484560642806 [Eh]
	 Singles Energy            =      -0.0000000000000000 [Eh]
	 Same-Spin Energy          =      -0.3891935238600361 [Eh]
	 Opposite-Spin Energy      =      -1.1818073112114291 [Eh]
	 Correlation Energy        =      -1.5710008350714653 [Eh]
	 Total Energy              =    -704.7282492911357394 [Eh]

	 ================> DF-SCS-MP2 Energies <==================
	-----------------------------------------------------------
	 SCS Same-Spin Scale       =       0.3333333333333333 [-]
	 SCS Opposite-Spin Scale   =       1.2000000000000000 [-]
	 SCS Same-Spin Energy      =      -0.1297311746200120 [Eh]
	 SCS Opposite-Spin Energy  =      -1.4181687734537149 [Eh]
	 SCS Correlation Energy    =      -1.5478999480737270 [Eh]
	 SCS Total Energy          =    -704.7051484041379581 [Eh]
	-----------------------------------------------------------

  Dipole Moment: [D]
     X:    -2.1729      Y:     3.0893      Z:     0.0006     Total:     3.7770

*** Psi4 exiting successfully. Buy a developer a beer!
