                               Psi4 1.3.2 release

  ==> Input File <==

--------------------------------------------------------------------------
#psi4
#
memory 32 gb

molecule  {
0 1
  S       -0.9837490    -1.1570500    -0.0000620
  O        1.9818930    -1.3277110    -0.0003480
  C        0.0816319     0.0709841    -0.0000074
  C       -0.4985190     1.3749350     0.0002250
  C        1.5865110    -0.1585480    -0.0001750
  C       -1.9046620     1.2489520     0.0003500
  C        2.5479920     1.0088850    -0.0001140
  C       -2.3081880    -0.0718450     0.0002130
  H        0.0283220     2.3240690     0.0003010
  H       -2.5968940     2.0844950     0.0005320
  H        2.3937560     1.6342750    -0.8845650
  H        3.5659410     0.6177950    -0.0003540
  H        2.3940470     1.6339130     0.8846460
  H       -3.3221070    -0.4534470     0.0002580
units angstrom
no_reorient  #important for SAPT in psi4, default
symmetry c1  #important for SAPT in psi4, default
}

set PROPERTIES_ORIGIN ["COM"]
properties('MP2/aug-cc-pvtz', properties = ['dipole'])
--------------------------------------------------------------------------

    Molecular point group: c1
  Charge       = 0
  Multiplicity = 1
  Basis Set: AUG-CC-PVTZ
    Blend: AUG-CC-PVTZ
  Basis Set: (AUG-CC-PVTZ AUX)
    Blend: AUG-CC-PVTZ-JKFIT

    Orbital Energies [Eh]
    ---------------------

    Doubly Occupied:

       1A    -92.000169     2A    -20.546928     3A    -11.348769
       4A    -11.276635     5A    -11.274239     6A    -11.262947
       7A    -11.251358     8A    -11.244372     9A     -9.001953
      10A     -6.682967    11A     -6.682236    12A     -6.681512
      13A     -1.378164    14A     -1.194684    15A     -1.035067
      16A     -1.015420    17A     -0.977855    18A     -0.828504
      19A     -0.770951    20A     -0.726178    21A     -0.695246
      22A     -0.622007    23A     -0.614602    24A     -0.610105
      25A     -0.572565    26A     -0.553343    27A     -0.546440
      28A     -0.541655    29A     -0.494703    30A     -0.494464
      31A     -0.424783    32A     -0.361423    33A     -0.330524

  @DF-RHF Final Energy:  -703.19370067904208

   => Energetics <=

    Nuclear Repulsion Energy =            413.1650236238213552
    One-Electron Energy =               -1784.6319101053461509
    Two-Electron Energy =                 668.2731858024827716
    Total Energy =                       -703.1937006790420810
  Basis Set: (AUG-CC-PVTZ AUX)
    Blend: AUG-CC-PVTZ-RI
    Molecular point group: c1

    Geometry (in Angstrom), charge = 0, multiplicity = 1:

       Center              X                  Y                   Z               Mass
    ------------   -----------------  -----------------  -----------------  -----------------
         S           -0.958253769354    -1.088429851690    -0.000055453916    31.972071174400
         O            2.007388230646    -1.259090851690    -0.000341453916    15.994914619570
         C            0.107127130646     0.139604248310    -0.000000853916    12.000000000000
         C           -0.473023769354     1.443555148310     0.000231546084    12.000000000000
         C            1.612006230646    -0.089927851690    -0.000168453916    12.000000000000
         C           -1.879166769354     1.317572148310     0.000356546084    12.000000000000
         C            2.573487230646     1.077505148310    -0.000107453916    12.000000000000
         C           -2.282692769354    -0.003224851690     0.000219546084    12.000000000000
         H            0.053817230646     2.392689148310     0.000307546084     1.007825032230
         H           -2.571398769354     2.153115148310     0.000538546084     1.007825032230
         H            2.419251230646     1.702895148310    -0.884558453916     1.007825032230
         H            3.591436230646     0.686415148310    -0.000347453916     1.007825032230
         H            2.419542230646     1.702533148310     0.884652546084     1.007825032230
         H           -3.296611769354    -0.384826851690     0.000264546084     1.007825032230

  Basis Set: AUG-CC-PVTZ
    Blend: AUG-CC-PVTZ
  Basis Set: (AUG-CC-PVTZ AUX)
    Blend: AUG-CC-PVTZ-JKFIT
	 Reference Energy          =    -703.1937006790420810 [Eh]
	 Singles Energy            =      -0.0000000000000000 [Eh]
	 Same-Spin Energy          =      -0.3859613891720733 [Eh]
	 Opposite-Spin Energy      =      -1.1762459909820420 [Eh]
	 Correlation Energy        =      -1.5622073801541152 [Eh]
	 Total Energy              =    -704.7559080591961447 [Eh]

	 ================> DF-SCS-MP2 Energies <==================
	-----------------------------------------------------------
	 SCS Same-Spin Scale       =       0.3333333333333333 [-]
	 SCS Opposite-Spin Scale   =       1.2000000000000000 [-]
	 SCS Same-Spin Energy      =      -0.1286537963906911 [Eh]
	 SCS Opposite-Spin Energy  =      -1.4114951891784504 [Eh]
	 SCS Correlation Energy    =      -1.5401489855691415 [Eh]
	 SCS Total Energy          =    -704.7338496646111707 [Eh]
	-----------------------------------------------------------

  Dipole Moment: [D]
     X:    -1.4505      Y:     2.9180      Z:     0.0005     Total:     3.2586

*** Psi4 exiting successfully. Buy a developer a beer!
