                               Psi4 1.3.2 release

  ==> Input File <==

--------------------------------------------------------------------------
#psi4
#
memory 32 gb

molecule  {
0 1
  S       -0.9837490    -1.1570500    -0.0000620
  O        1.9818930    -1.3277110    -0.0003480
  C        0.1293887     0.0453730    -0.0000153
  C       -0.4985190     1.3749350     0.0002250
  C        1.5865110    -0.1585480    -0.0001750
  C       -1.9046620     1.2489520     0.0003500
  C        2.5479920     1.0088850    -0.0001140
  C       -2.3081880    -0.0718450     0.0002130
  H        0.0283220     2.3240690     0.0003010
  H       -2.5968940     2.0844950     0.0005320
  H        2.3937560     1.6342750    -0.8845650
  H        3.5659410     0.6177950    -0.0003540
  H        2.3940470     1.6339130     0.8846460
  H       -3.3221070    -0.4534470     0.0002580
units angstrom
no_reorient  #important for SAPT in psi4, default
symmetry c1  #important for SAPT in psi4, default
}

set PROPERTIES_ORIGIN ["COM"]
properties('MP2/aug-cc-pvtz', properties = ['dipole'])
--------------------------------------------------------------------------

    Molecular point group: c1
  Charge       = 0
  Multiplicity = 1
  Basis Set: AUG-CC-PVTZ
    Blend: AUG-CC-PVTZ
  Basis Set: (AUG-CC-PVTZ AUX)
    Blend: AUG-CC-PVTZ-JKFIT

    Orbital Energies [Eh]
    ---------------------

    Doubly Occupied:

       1A    -92.003097     2A    -20.542371     3A    -11.343392
       4A    -11.281078     5A    -11.275563     6A    -11.270234
       7A    -11.253752     8A    -11.243130     9A     -9.004207
      10A     -6.685155    11A     -6.684552    12A     -6.683858
      13A     -1.376720    14A     -1.189877    15A     -1.038464
      16A     -1.015184    17A     -0.975911    18A     -0.839701
      19A     -0.770085    20A     -0.722843    21A     -0.694690
      22A     -0.622332    23A     -0.617672    24A     -0.610004
      25A     -0.574898    26A     -0.553573    27A     -0.544617
      28A     -0.539838    29A     -0.492938    30A     -0.490010
      31A     -0.425824    32A     -0.362645    33A     -0.327658

  @DF-RHF Final Energy:  -703.19152254043945

   => Energetics <=

    Nuclear Repulsion Energy =            412.9558783892291558
    One-Electron Energy =               -1784.1830594391931299
    Two-Electron Energy =                 668.0356585095245237
    Total Energy =                       -703.1915225404394505
  Basis Set: (AUG-CC-PVTZ AUX)
    Blend: AUG-CC-PVTZ-RI
    Molecular point group: c1

    Geometry (in Angstrom), charge = 0, multiplicity = 1:

       Center              X                  Y                   Z               Mass
    ------------   -----------------  -----------------  -----------------  -----------------
         S           -0.962801533024    -1.085990969057    -0.000054701618    31.972071174400
         O            2.002840466976    -1.256651969057    -0.000340701618    15.994914619570
         C            0.150336166976     0.116432030943    -0.000008001618    12.000000000000
         C           -0.477571533024     1.445994030943     0.000232298382    12.000000000000
         C            1.607458466976    -0.087488969057    -0.000167701618    12.000000000000
         C           -1.883714533024     1.320011030943     0.000357298382    12.000000000000
         C            2.568939466976     1.079944030943    -0.000106701618    12.000000000000
         C           -2.287240533024    -0.000785969057     0.000220298382    12.000000000000
         H            0.049269466976     2.395128030943     0.000308298382     1.007825032230
         H           -2.575946533024     2.155554030943     0.000539298382     1.007825032230
         H            2.414703466976     1.705334030943    -0.884557701618     1.007825032230
         H            3.586888466976     0.688854030943    -0.000346701618     1.007825032230
         H            2.414994466976     1.704972030943     0.884653298382     1.007825032230
         H           -3.301159533024    -0.382387969057     0.000265298382     1.007825032230

  Basis Set: AUG-CC-PVTZ
    Blend: AUG-CC-PVTZ
  Basis Set: (AUG-CC-PVTZ AUX)
    Blend: AUG-CC-PVTZ-JKFIT
	 Reference Energy          =    -703.1915225404394505 [Eh]
	 Singles Energy            =      -0.0000000000000000 [Eh]
	 Same-Spin Energy          =      -0.3867355598748279 [Eh]
	 Opposite-Spin Energy      =      -1.1773213261728510 [Eh]
	 Correlation Energy        =      -1.5640568860476789 [Eh]
	 Total Energy              =    -704.7555794264870883 [Eh]

	 ================> DF-SCS-MP2 Energies <==================
	-----------------------------------------------------------
	 SCS Same-Spin Scale       =       0.3333333333333333 [-]
	 SCS Opposite-Spin Scale   =       1.2000000000000000 [-]
	 SCS Same-Spin Energy      =      -0.1289118532916093 [Eh]
	 SCS Opposite-Spin Energy  =      -1.4127855914074212 [Eh]
	 SCS Correlation Energy    =      -1.5416974446990306 [Eh]
	 SCS Total Energy          =    -704.7332199851384757 [Eh]
	-----------------------------------------------------------

  Dipole Moment: [D]
     X:    -1.6523      Y:     2.9693      Z:     0.0005     Total:     3.3981

*** Psi4 exiting successfully. Buy a developer a beer!
