                               Psi4 1.3.2 release

  ==> Input File <==

--------------------------------------------------------------------------
#psi4
#
memory 32 gb

molecule  {
0 1
  S       -0.9837490    -1.1570500    -0.0000620
  O        1.9818930    -1.3277110    -0.0003480
  C        0.0161007    -0.0045518    -0.0000107
  C       -0.4985190     1.3749350     0.0002250
  C        1.5865110    -0.1585480    -0.0001750
  C       -1.9046620     1.2489520     0.0003500
  C        2.5479920     1.0088850    -0.0001140
  C       -2.3081880    -0.0718450     0.0002130
  H        0.0283220     2.3240690     0.0003010
  H       -2.5968940     2.0844950     0.0005320
  H        2.3937560     1.6342750    -0.8845650
  H        3.5659410     0.6177950    -0.0003540
  H        2.3940470     1.6339130     0.8846460
  H       -3.3221070    -0.4534470     0.0002580
units angstrom
no_reorient  #important for SAPT in psi4, default
symmetry c1  #important for SAPT in psi4, default
}

set PROPERTIES_ORIGIN ["COM"]
properties('MP2/aug-cc-pvtz', properties = ['dipole'])
--------------------------------------------------------------------------

    Molecular point group: c1
  Charge       = 0
  Multiplicity = 1
  Basis Set: AUG-CC-PVTZ
    Blend: AUG-CC-PVTZ
  Basis Set: (AUG-CC-PVTZ AUX)
    Blend: AUG-CC-PVTZ-JKFIT

    Orbital Energies [Eh]
    ---------------------

    Doubly Occupied:

       1A    -92.001046     2A    -20.548000     3A    -11.353285
       4A    -11.274113     5A    -11.267609     6A    -11.258710
       7A    -11.249847     8A    -11.248195     9A     -9.006103
      10A     -6.687651    11A     -6.686015    12A     -6.685418
      13A     -1.379135    14A     -1.206654    15A     -1.031413
      16A     -1.026558    17A     -0.968962    18A     -0.816757
      19A     -0.770129    20A     -0.723948    21A     -0.695924
      22A     -0.621248    23A     -0.613498    24A     -0.610963
      25A     -0.573143    26A     -0.553481    27A     -0.551362
      28A     -0.543320    29A     -0.495402    30A     -0.495381
      31A     -0.419728    32A     -0.367489    33A     -0.318935

  @DF-RHF Final Energy:  -703.15758600560821

   => Energetics <=

    Nuclear Repulsion Energy =            414.2654033116623395
    One-Electron Energy =               -1786.7471352920870231
    Two-Electron Energy =                 669.3241459748164743
    Total Energy =                       -703.1575860056082092
  Basis Set: (AUG-CC-PVTZ AUX)
    Blend: AUG-CC-PVTZ-RI
    Molecular point group: c1

    Geometry (in Angstrom), charge = 0, multiplicity = 1:

       Center              X                  Y                   Z               Mass
    ------------   -----------------  -----------------  -----------------  -----------------
         S           -0.952013392892    -1.081236752031    -0.000055139665    31.972071174400
         O            2.013628607108    -1.251897752031    -0.000341139665    15.994914619570
         C            0.047836307108     0.071261447969    -0.000003839665    12.000000000000
         C           -0.466783392892     1.450748247969     0.000231860335    12.000000000000
         C            1.618246607108    -0.082734752031    -0.000168139665    12.000000000000
         C           -1.872926392892     1.324765247969     0.000356860335    12.000000000000
         C            2.579727607108     1.084698247969    -0.000107139665    12.000000000000
         C           -2.276452392892     0.003968247969     0.000219860335    12.000000000000
         H            0.060057607108     2.399882247969     0.000307860335     1.007825032230
         H           -2.565158392892     2.160308247969     0.000538860335     1.007825032230
         H            2.425491607108     1.710088247969    -0.884558139665     1.007825032230
         H            3.597676607108     0.693608247969    -0.000347139665     1.007825032230
         H            2.425782607108     1.709726247969     0.884652860335     1.007825032230
         H           -3.290371392892    -0.377633752031     0.000264860335     1.007825032230

  Basis Set: AUG-CC-PVTZ
    Blend: AUG-CC-PVTZ
  Basis Set: (AUG-CC-PVTZ AUX)
    Blend: AUG-CC-PVTZ-JKFIT
	 Reference Energy          =    -703.1575860056082092 [Eh]
	 Singles Energy            =      -0.0000000000000000 [Eh]
	 Same-Spin Energy          =      -0.3877120695658644 [Eh]
	 Opposite-Spin Energy      =      -1.1780757143657503 [Eh]
	 Correlation Energy        =      -1.5657877839316148 [Eh]
	 Total Energy              =    -704.7233737895397780 [Eh]

	 ================> DF-SCS-MP2 Energies <==================
	-----------------------------------------------------------
	 SCS Same-Spin Scale       =       0.3333333333333333 [-]
	 SCS Opposite-Spin Scale   =       1.2000000000000000 [-]
	 SCS Same-Spin Energy      =      -0.1292373565219548 [Eh]
	 SCS Opposite-Spin Energy  =      -1.4136908572389004 [Eh]
	 SCS Correlation Energy    =      -1.5429282137608551 [Eh]
	 SCS Total Energy          =    -704.7005142193690972 [Eh]
	-----------------------------------------------------------

  Dipole Moment: [D]
     X:    -1.2398      Y:     2.8034      Z:     0.0005     Total:     3.0653

*** Psi4 exiting successfully. Buy a developer a beer!
