                               Psi4 1.4a3.dev225

  ==> Input File <==

--------------------------------------------------------------------------
#psi4
#
memory 32 gb

molecule  {
0 1
  S       -0.9837490    -1.1570500    -0.0000620
  O        1.9818930    -1.3277110    -0.0003480
  C        0.1602692     0.1616272    -0.0000033
  C       -0.4985190     1.3749350     0.0002250
  C        1.5865110    -0.1585480    -0.0001750
  C       -1.9046620     1.2489520     0.0003500
  C        2.5479920     1.0088850    -0.0001140
  C       -2.3081880    -0.0718450     0.0002130
  H        0.0283220     2.3240690     0.0003010
  H       -2.5968940     2.0844950     0.0005320
  H        2.3937560     1.6342750    -0.8845650
  H        3.5659410     0.6177950    -0.0003540
  H        2.3940470     1.6339130     0.8846460
  H       -3.3221070    -0.4534470     0.0002580
units angstrom
no_reorient  #important for SAPT in psi4, default
symmetry c1  #important for SAPT in psi4, default
}

set PROPERTIES_ORIGIN ["COM"]
properties('MP2/aug-cc-pvtz', properties = ['dipole'])
--------------------------------------------------------------------------

    Molecular point group: c1
  Charge       = 0
  Multiplicity = 1
  Basis Set: AUG-CC-PVTZ
    Blend: AUG-CC-PVTZ
  Basis Set: (AUG-CC-PVTZ AUX)
    Blend: AUG-CC-PVTZ-JKFIT

    Orbital Energies [Eh]
    ---------------------

    Doubly Occupied:

       1A    -91.996987     2A    -20.546796     3A    -11.344831
       4A    -11.286031     5A    -11.274728     6A    -11.268295
       7A    -11.253144     8A    -11.240428     9A     -8.996489
      10A     -6.677319    11A     -6.676704    12A     -6.676095
      13A     -1.377738    14A     -1.187004    15A     -1.046382
      16A     -1.002425    17A     -0.983923    18A     -0.842962
      19A     -0.773845    20A     -0.727824    21A     -0.693924
      22A     -0.624395    23A     -0.619255    24A     -0.610484
      25A     -0.577079    26A     -0.558673    27A     -0.541327
      28A     -0.528460    29A     -0.494066    30A     -0.487468
      31A     -0.426237    32A     -0.360675    33A     -0.338995

  @DF-RHF Final Energy:  -703.20468772966183

   => Energetics <=

    Nuclear Repulsion Energy =            412.0931217575516712
    One-Electron Energy =               -1782.5136384074316993
    Two-Electron Energy =                 667.2158289202182004
    Total Energy =                       -703.2046877296618277
  Basis Set: (AUG-CC-PVTZ AUX)
    Blend: AUG-CC-PVTZ-RI
    Molecular point group: c1

    Geometry (in Angstrom), charge = 0, multiplicity = 1:

       Center              X                  Y                   Z               Mass
    ------------   -----------------  -----------------  -----------------  -----------------
         S           -0.965742207776    -1.097061573185    -0.000055844349    31.972071174400
         O            1.999899792224    -1.267722573185    -0.000341844349    15.994914619570
         C            0.178275992224     0.221615626815     0.000002855651    12.000000000000
         C           -0.480512207776     1.434923426815     0.000231155651    12.000000000000
         C            1.604517792224    -0.098559573185    -0.000168844349    12.000000000000
         C           -1.886655207776     1.308940426815     0.000356155651    12.000000000000
         C            2.565998792224     1.068873426815    -0.000107844349    12.000000000000
         C           -2.290181207776    -0.011856573185     0.000219155651    12.000000000000
         H            0.046328792224     2.384057426815     0.000307155651     1.007825032230
         H           -2.578887207776     2.144483426815     0.000538155651     1.007825032230
         H            2.411762792224     1.694263426815    -0.884558844349     1.007825032230
         H            3.583947792224     0.677783426815    -0.000347844349     1.007825032230
         H            2.412053792224     1.693901426815     0.884652155651     1.007825032230
         H           -3.304100207776    -0.393458573185     0.000264155651     1.007825032230

  Basis Set: AUG-CC-PVTZ
    Blend: AUG-CC-PVTZ
  Basis Set: (AUG-CC-PVTZ AUX)
    Blend: AUG-CC-PVTZ-JKFIT
	 Reference Energy          =    -703.2046877296618277 [Eh]
	 Singles Energy            =      -0.0000000000000000 [Eh]
	 Same-Spin Energy          =      -0.3848155324371604 [Eh]
	 Opposite-Spin Energy      =      -1.1756343914115039 [Eh]
	 Correlation Energy        =      -1.5604499238486644 [Eh]
	 Total Energy              =    -704.7651376535104646 [Eh]

	 ================> DF-SCS-MP2 Energies <==================
	-----------------------------------------------------------
	 SCS Same-Spin Scale       =       0.3333333333333333 [-]
	 SCS Opposite-Spin Scale   =       1.2000000000000000 [-]
	 SCS Same-Spin Energy      =      -0.1282718441457201 [Eh]
	 SCS Opposite-Spin Energy  =      -1.4107612696938048 [Eh]
	 SCS Correlation Energy    =      -1.5390331138395250 [Eh]
	 SCS Total Energy          =    -704.7437208435013645 [Eh]
	-----------------------------------------------------------

  Dipole Moment: [D]
     X:    -1.6378      Y:     3.0765      Z:     0.0006     Total:     3.4853

*** Psi4 exiting successfully. Buy a developer a beer!
