                               Psi4 1.3.2 release

  ==> Input File <==

--------------------------------------------------------------------------
#psi4
#
memory 32 gb

molecule  {
0 1
  S       -0.9837490    -1.1570500    -0.0000620
  O        1.9818930    -1.3277110    -0.0003480
  C        0.1471630     0.1465200    -0.0000040
  C       -0.5409967     1.3516527     0.0002255
  C        1.5865110    -0.1585480    -0.0001750
  C       -1.9046620     1.2489520     0.0003500
  C        2.5479920     1.0088850    -0.0001140
  C       -2.3081880    -0.0718450     0.0002130
  H        0.0283220     2.3240690     0.0003010
  H       -2.5968940     2.0844950     0.0005320
  H        2.3937560     1.6342750    -0.8845650
  H        3.5659410     0.6177950    -0.0003540
  H        2.3940470     1.6339130     0.8846460
  H       -3.3221070    -0.4534470     0.0002580
units angstrom
no_reorient  #important for SAPT in psi4, default
symmetry c1  #important for SAPT in psi4, default
}

set PROPERTIES_ORIGIN ["COM"]
properties('MP2/aug-cc-pvtz', properties = ['dipole'])
--------------------------------------------------------------------------

    Molecular point group: c1
  Charge       = 0
  Multiplicity = 1
  Basis Set: AUG-CC-PVTZ
    Blend: AUG-CC-PVTZ
  Basis Set: (AUG-CC-PVTZ AUX)
    Blend: AUG-CC-PVTZ-JKFIT

    Orbital Energies [Eh]
    ---------------------

    Doubly Occupied:

       1A    -91.998656     2A    -20.546180     3A    -11.345945
       4A    -11.285834     5A    -11.272573     6A    -11.266138
       7A    -11.248721     8A    -11.240675     9A     -8.998338
      10A     -6.679124    11A     -6.678598    12A     -6.677981
      13A     -1.377406    14A     -1.193820    15A     -1.043554
      16A     -1.009154    17A     -0.982302    18A     -0.840534
      19A     -0.773282    20A     -0.723567    21A     -0.695316
      22A     -0.625814    23A     -0.619715    24A     -0.610098
      25A     -0.576667    26A     -0.554400    27A     -0.544775
      28A     -0.528570    29A     -0.495086    30A     -0.487090
      31A     -0.426610    32A     -0.363991    33A     -0.336030

  @DF-RHF Final Energy:  -703.20089467184221

   => Energetics <=

    Nuclear Repulsion Energy =            412.8352157299779037
    One-Electron Energy =               -1783.9791319448841023
    Two-Electron Energy =                 667.9430215430641056
    Total Energy =                       -703.2008946718422067
  Basis Set: (AUG-CC-PVTZ AUX)
    Blend: AUG-CC-PVTZ-RI
    Molecular point group: c1

    Geometry (in Angstrom), charge = 0, multiplicity = 1:

       Center              X                  Y                   Z               Mass
    ------------   -----------------  -----------------  -----------------  -----------------
         S           -0.960449088450    -1.093405834664    -0.000055825303    31.972071174400
         O            2.005192911550    -1.264066834664    -0.000341825303    15.994914619570
         C            0.170462911550     0.210164165336     0.000002174697    12.000000000000
         C           -0.517696788450     1.415296865336     0.000231674697    12.000000000000
         C            1.609810911550    -0.094903834664    -0.000168825303    12.000000000000
         C           -1.881362088450     1.312596165336     0.000356174697    12.000000000000
         C            2.571291911550     1.072529165336    -0.000107825303    12.000000000000
         C           -2.284888088450    -0.008200834664     0.000219174697    12.000000000000
         H            0.051621911550     2.387713165336     0.000307174697     1.007825032230
         H           -2.573594088450     2.148139165336     0.000538174697     1.007825032230
         H            2.417055911550     1.697919165336    -0.884558825303     1.007825032230
         H            3.589240911550     0.681439165336    -0.000347825303     1.007825032230
         H            2.417346911550     1.697557165336     0.884652174697     1.007825032230
         H           -3.298807088450    -0.389802834664     0.000264174697     1.007825032230

  Basis Set: AUG-CC-PVTZ
    Blend: AUG-CC-PVTZ
  Basis Set: (AUG-CC-PVTZ AUX)
    Blend: AUG-CC-PVTZ-JKFIT
	 Reference Energy          =    -703.2008946718422067 [Eh]
	 Singles Energy            =      -0.0000000000000000 [Eh]
	 Same-Spin Energy          =      -0.3857828392000061 [Eh]
	 Opposite-Spin Energy      =      -1.1762206118742831 [Eh]
	 Correlation Energy        =      -1.5620034510742893 [Eh]
	 Total Energy              =    -704.7628981229164538 [Eh]

	 ================> DF-SCS-MP2 Energies <==================
	-----------------------------------------------------------
	 SCS Same-Spin Scale       =       0.3333333333333333 [-]
	 SCS Opposite-Spin Scale   =       1.2000000000000000 [-]
	 SCS Same-Spin Energy      =      -0.1285942797333354 [Eh]
	 SCS Opposite-Spin Energy  =      -1.4114647342491395 [Eh]
	 SCS Correlation Energy    =      -1.5400590139824750 [Eh]
	 SCS Total Energy          =    -704.7409536858247066 [Eh]
	-----------------------------------------------------------

  Dipole Moment: [D]
     X:    -1.6368      Y:     3.0430      Z:     0.0006     Total:     3.4552

*** Psi4 exiting successfully. Buy a developer a beer!
