                               Psi4 1.3.2 release

  ==> Input File <==

--------------------------------------------------------------------------
#psi4
#
memory 32 gb

molecule  {
0 1
  S       -0.9837490    -1.1570500    -0.0000620
  O        1.9818930    -1.3277110    -0.0003480
  C        0.1471630     0.1465200    -0.0000040
  C       -0.4769819     1.3860166     0.0002246
  C        1.5865110    -0.1585480    -0.0001750
  C       -1.9046620     1.2489520     0.0003500
  C        2.5479920     1.0088850    -0.0001140
  C       -2.3081880    -0.0718450     0.0002130
  H        0.0283220     2.3240690     0.0003010
  H       -2.5968940     2.0844950     0.0005320
  H        2.3937560     1.6342750    -0.8845650
  H        3.5659410     0.6177950    -0.0003540
  H        2.3940470     1.6339130     0.8846460
  H       -3.3221070    -0.4534470     0.0002580
units angstrom
no_reorient  #important for SAPT in psi4, default
symmetry c1  #important for SAPT in psi4, default
}

set PROPERTIES_ORIGIN ["COM"]
properties('MP2/aug-cc-pvtz', properties = ['dipole'])
--------------------------------------------------------------------------

    Molecular point group: c1
  Charge       = 0
  Multiplicity = 1
  Basis Set: AUG-CC-PVTZ
    Blend: AUG-CC-PVTZ
  Basis Set: (AUG-CC-PVTZ AUX)
    Blend: AUG-CC-PVTZ-JKFIT

    Orbital Energies [Eh]
    ---------------------

    Doubly Occupied:

       1A    -91.997273     2A    -20.546990     3A    -11.345056
       4A    -11.284033     5A    -11.275604     6A    -11.267971
       7A    -11.254850     8A    -11.241162     9A     -8.997105
      10A     -6.677962    11A     -6.677357    12A     -6.676697
      13A     -1.377915    14A     -1.185266    15A     -1.044702
      16A     -1.001804    17A     -0.983790    18A     -0.840675
      19A     -0.773469    20A     -0.729834    21A     -0.693645
      22A     -0.623826    23A     -0.617582    24A     -0.610404
      25A     -0.575726    26A     -0.558614    27A     -0.540768
      28A     -0.531538    29A     -0.493592    30A     -0.490084
      31A     -0.426101    32A     -0.358365    33A     -0.339340

  @DF-RHF Final Energy:  -703.20458207139450

   => Energetics <=

    Nuclear Repulsion Energy =            411.9873319112165859
    One-Electron Energy =               -1782.3056314075388400
    Two-Electron Energy =                 667.1137174249276995
    Total Energy =                       -703.2045820713944977
  Basis Set: (AUG-CC-PVTZ AUX)
    Blend: AUG-CC-PVTZ-RI
    Molecular point group: c1

    Geometry (in Angstrom), charge = 0, multiplicity = 1:

       Center              X                  Y                   Z               Mass
    ------------   -----------------  -----------------  -----------------  -----------------
         S           -0.966545061835    -1.096678225109    -0.000055739599    31.972071174400
         O            1.999096938165    -1.267339225109    -0.000341739599    15.994914619570
         C            0.164366938165     0.206891774891     0.000002260401    12.000000000000
         C           -0.459777961835     1.446388374891     0.000230860401    12.000000000000
         C            1.603714938165    -0.098176225109    -0.000168739599    12.000000000000
         C           -1.887458061835     1.309323774891     0.000356260401    12.000000000000
         C            2.565195938165     1.069256774891    -0.000107739599    12.000000000000
         C           -2.290984061835    -0.011473225109     0.000219260401    12.000000000000
         H            0.045525938165     2.384440774891     0.000307260401     1.007825032230
         H           -2.579690061835     2.144866774891     0.000538260401     1.007825032230
         H            2.410959938165     1.694646774891    -0.884558739599     1.007825032230
         H            3.583144938165     0.678166774891    -0.000347739599     1.007825032230
         H            2.411250938165     1.694284774891     0.884652260401     1.007825032230
         H           -3.304903061835    -0.393075225109     0.000264260401     1.007825032230

  Basis Set: AUG-CC-PVTZ
    Blend: AUG-CC-PVTZ
  Basis Set: (AUG-CC-PVTZ AUX)
    Blend: AUG-CC-PVTZ-JKFIT
	 Reference Energy          =    -703.2045820713944977 [Eh]
	 Singles Energy            =      -0.0000000000000000 [Eh]
	 Same-Spin Energy          =      -0.3845263508449651 [Eh]
	 Opposite-Spin Energy      =      -1.1754281449157236 [Eh]
	 Correlation Energy        =      -1.5599544957606888 [Eh]
	 Total Energy              =    -704.7645365671552327 [Eh]

	 ================> DF-SCS-MP2 Energies <==================
	-----------------------------------------------------------
	 SCS Same-Spin Scale       =       0.3333333333333333 [-]
	 SCS Opposite-Spin Scale   =       1.2000000000000000 [-]
	 SCS Same-Spin Energy      =      -0.1281754502816550 [Eh]
	 SCS Opposite-Spin Energy  =      -1.4105137738988682 [Eh]
	 SCS Correlation Energy    =      -1.5386892241805232 [Eh]
	 SCS Total Energy          =    -704.7432712955750276 [Eh]
	-----------------------------------------------------------

  Dipole Moment: [D]
     X:    -1.6003      Y:     3.0492      Z:     0.0005     Total:     3.4437

*** Psi4 exiting successfully. Buy a developer a beer!
