                               Psi4 1.3.2 release

  ==> Input File <==

--------------------------------------------------------------------------
#psi4
#
memory 32 gb

molecule  {
0 1
  S       -0.9837490    -1.1570500    -0.0000620
  O        1.9818930    -1.3277110    -0.0003480
  C        0.1373931     0.0961016    -0.0000095
  C       -0.4985190     1.3749350     0.0002250
  C        1.5865110    -0.1585480    -0.0001750
  C       -1.9046620     1.2489520     0.0003500
  C        2.5479920     1.0088850    -0.0001140
  C       -2.3081880    -0.0718450     0.0002130
  H        0.0283220     2.3240690     0.0003010
  H       -2.5968940     2.0844950     0.0005320
  H        2.3937560     1.6342750    -0.8845650
  H        3.5659410     0.6177950    -0.0003540
  H        2.3940470     1.6339130     0.8846460
  H       -3.3221070    -0.4534470     0.0002580
units angstrom
no_reorient  #important for SAPT in psi4, default
symmetry c1  #important for SAPT in psi4, default
}

set PROPERTIES_ORIGIN ["COM"]
properties('MP2/aug-cc-pvtz', properties = ['dipole'])
--------------------------------------------------------------------------

    Molecular point group: c1
  Charge       = 0
  Multiplicity = 1
  Basis Set: AUG-CC-PVTZ
    Blend: AUG-CC-PVTZ
  Basis Set: (AUG-CC-PVTZ AUX)
    Blend: AUG-CC-PVTZ-JKFIT

    Orbital Energies [Eh]
    ---------------------

    Doubly Occupied:

       1A    -92.000544     2A    -20.544346     3A    -11.344074
       4A    -11.282971     5A    -11.274971     6A    -11.269009
       7A    -11.253333     8A    -11.241947     9A     -9.000920
      10A     -6.681777    11A     -6.681256    12A     -6.680559
      13A     -1.377013    14A     -1.188506    15A     -1.040920
      16A     -1.009481    17A     -0.979905    18A     -0.839937
      19A     -0.771318    20A     -0.725575    21A     -0.694348
      22A     -0.622929    23A     -0.617489    24A     -0.609972
      25A     -0.575142    26A     -0.555560    27A     -0.543076
      28A     -0.536321    29A     -0.493394    30A     -0.490460
      31A     -0.426337    32A     -0.360244    33A     -0.333875

  @DF-RHF Final Energy:  -703.20090783096282

   => Energetics <=

    Nuclear Repulsion Energy =            412.5983750192786488
    One-Electron Energy =               -1783.5035444103973532
    Two-Electron Energy =                 667.7042615601559419
    Total Energy =                       -703.2009078309628194
  Basis Set: (AUG-CC-PVTZ AUX)
    Blend: AUG-CC-PVTZ-RI
    Molecular point group: c1

    Geometry (in Angstrom), charge = 0, multiplicity = 1:

       Center              X                  Y                   Z               Mass
    ------------   -----------------  -----------------  -----------------  -----------------
         S           -0.963563772527    -1.090821729998    -0.000055253938    31.972071174400
         O            2.002078227473    -1.261482729998    -0.000341253938    15.994914619570
         C            0.157578327473     0.162329870002    -0.000002753938    12.000000000000
         C           -0.478333772527     1.441163270002     0.000231746062    12.000000000000
         C            1.606696227473    -0.092319729998    -0.000168253938    12.000000000000
         C           -1.884476772527     1.315180270002     0.000356746062    12.000000000000
         C            2.568177227473     1.075113270002    -0.000107253938    12.000000000000
         C           -2.288002772527    -0.005616729998     0.000219746062    12.000000000000
         H            0.048507227473     2.390297270002     0.000307746062     1.007825032230
         H           -2.576708772527     2.150723270002     0.000538746062     1.007825032230
         H            2.413941227473     1.700503270002    -0.884558253938     1.007825032230
         H            3.586126227473     0.684023270002    -0.000347253938     1.007825032230
         H            2.414232227473     1.700141270002     0.884652746062     1.007825032230
         H           -3.301921772527    -0.387218729998     0.000264746062     1.007825032230

  Basis Set: AUG-CC-PVTZ
    Blend: AUG-CC-PVTZ
  Basis Set: (AUG-CC-PVTZ AUX)
    Blend: AUG-CC-PVTZ-JKFIT
	 Reference Energy          =    -703.2009078309628194 [Eh]
	 Singles Energy            =      -0.0000000000000000 [Eh]
	 Same-Spin Energy          =      -0.3857583130947131 [Eh]
	 Opposite-Spin Energy      =      -1.1763244695527049 [Eh]
	 Correlation Energy        =      -1.5620827826474180 [Eh]
	 Total Energy              =    -704.7629906136102136 [Eh]

	 ================> DF-SCS-MP2 Energies <==================
	-----------------------------------------------------------
	 SCS Same-Spin Scale       =       0.3333333333333333 [-]
	 SCS Opposite-Spin Scale   =       1.2000000000000000 [-]
	 SCS Same-Spin Energy      =      -0.1285861043649044 [Eh]
	 SCS Opposite-Spin Energy  =      -1.4115893634632457 [Eh]
	 SCS Correlation Energy    =      -1.5401754678281501 [Eh]
	 SCS Total Energy          =    -704.7410832987909544 [Eh]
	-----------------------------------------------------------

  Dipole Moment: [D]
     X:    -1.6395      Y:     3.0034      Z:     0.0005     Total:     3.4217

*** Psi4 exiting successfully. Buy a developer a beer!
