                               Psi4 1.3.2 release

  ==> Input File <==

--------------------------------------------------------------------------
#psi4
#
memory 32 gb

molecule  {
0 1
  S       -0.9837490    -1.1570500    -0.0000620
  O        1.9818930    -1.3277110    -0.0003480
  C        0.1471630     0.1465200    -0.0000040
  C       -0.4054659     1.1979008     0.0001920
  C        1.5865110    -0.1585480    -0.0001750
  C       -1.9046620     1.2489520     0.0003500
  C        2.5479920     1.0088850    -0.0001140
  C       -2.3081880    -0.0718450     0.0002130
  H        0.0283220     2.3240690     0.0003010
  H       -2.5968940     2.0844950     0.0005320
  H        2.3937560     1.6342750    -0.8845650
  H        3.5659410     0.6177950    -0.0003540
  H        2.3940470     1.6339130     0.8846460
  H       -3.3221070    -0.4534470     0.0002580
units angstrom
no_reorient  #important for SAPT in psi4, default
symmetry c1  #important for SAPT in psi4, default
}

set PROPERTIES_ORIGIN ["COM"]
properties('MP2/aug-cc-pvtz', properties = ['dipole'])
--------------------------------------------------------------------------

    Molecular point group: c1
  Charge       = 0
  Multiplicity = 1
  Basis Set: AUG-CC-PVTZ
    Blend: AUG-CC-PVTZ
  Basis Set: (AUG-CC-PVTZ AUX)
    Blend: AUG-CC-PVTZ-JKFIT

    Orbital Energies [Eh]
    ---------------------

    Doubly Occupied:

       1A    -91.984118     2A    -20.554204     3A    -11.349768
       4A    -11.281767     5A    -11.257932     6A    -11.256167
       7A    -11.251413     8A    -11.243329     9A     -8.985376
      10A     -6.666285    11A     -6.665735    12A     -6.664741
      13A     -1.383731    14A     -1.210802    15A     -1.059912
      16A     -1.000754    17A     -0.983053    18A     -0.841585
      19A     -0.782850    20A     -0.711944    21A     -0.695888
      22A     -0.639604    23A     -0.624561    24A     -0.616437
      25A     -0.568712    26A     -0.554681    27A     -0.542860
      28A     -0.522190    29A     -0.496325    30A     -0.477088
      31A     -0.425681    32A     -0.379569    33A     -0.341481

  @DF-RHF Final Energy:  -703.15056624839281

   => Energetics <=

    Nuclear Repulsion Energy =            415.9719494707582612
    One-Electron Energy =               -1790.2039409418057403
    Two-Electron Energy =                 671.0814252226546159
    Total Energy =                       -703.1505662483928063
  Basis Set: (AUG-CC-PVTZ AUX)
    Blend: AUG-CC-PVTZ-RI
    Molecular point group: c1

    Geometry (in Angstrom), charge = 0, multiplicity = 1:

       Center              X                  Y                   Z               Mass
    ------------   -----------------  -----------------  -----------------  -----------------
         S           -0.973355356215    -1.078764415955    -0.000052635180    31.972071174400
         O            1.992286643785    -1.249425415955    -0.000338635180    15.994914619570
         C            0.157556643785     0.224805584045     0.000005364820    12.000000000000
         C           -0.395072256215     1.276186384045     0.000201364820    12.000000000000
         C            1.596904643785    -0.080262415955    -0.000165635180    12.000000000000
         C           -1.894268356215     1.327237584045     0.000359364820    12.000000000000
         C            2.558385643785     1.087170584045    -0.000104635180    12.000000000000
         C           -2.297794356215     0.006440584045     0.000222364820    12.000000000000
         H            0.038715643785     2.402354584045     0.000310364820     1.007825032230
         H           -2.586500356215     2.162780584045     0.000541364820     1.007825032230
         H            2.404149643785     1.712560584045    -0.884555635180     1.007825032230
         H            3.576334643785     0.696080584045    -0.000344635180     1.007825032230
         H            2.404440643785     1.712198584045     0.884655364820     1.007825032230
         H           -3.311713356215    -0.375161415955     0.000267364820     1.007825032230

  Basis Set: AUG-CC-PVTZ
    Blend: AUG-CC-PVTZ
  Basis Set: (AUG-CC-PVTZ AUX)
    Blend: AUG-CC-PVTZ-JKFIT
	 Reference Energy          =    -703.1505662483928063 [Eh]
	 Singles Energy            =      -0.0000000000000000 [Eh]
	 Same-Spin Energy          =      -0.3814710299813109 [Eh]
	 Opposite-Spin Energy      =      -1.1724559613547367 [Eh]
	 Correlation Energy        =      -1.5539269913360476 [Eh]
	 Total Energy              =    -704.7044932397288903 [Eh]

	 ================> DF-SCS-MP2 Energies <==================
	-----------------------------------------------------------
	 SCS Same-Spin Scale       =       0.3333333333333333 [-]
	 SCS Opposite-Spin Scale   =       1.2000000000000000 [-]
	 SCS Same-Spin Energy      =      -0.1271570099937703 [Eh]
	 SCS Opposite-Spin Energy  =      -1.4069471536256841 [Eh]
	 SCS Correlation Energy    =      -1.5341041636194543 [Eh]
	 SCS Total Energy          =    -704.6846704120122240 [Eh]
	-----------------------------------------------------------

  Dipole Moment: [D]
     X:    -1.3597      Y:     3.2452      Z:     0.0005     Total:     3.5185

*** Psi4 exiting successfully. Buy a developer a beer!
