                               Psi4 1.4a3.dev225

  ==> Input File <==

--------------------------------------------------------------------------
#psi4
#
memory 32 gb

molecule  {
0 1
  S       -0.9837490    -1.1570500    -0.0000620
  O        1.9818930    -1.3277110    -0.0003480
  C        0.1471630     0.1465200    -0.0000040
  C       -0.4985190     1.3749350     0.0002250
  C        1.6060764    -0.1626949    -0.0001773
  C       -1.9046620     1.2489520     0.0003500
  C        2.5479920     1.0088850    -0.0001140
  C       -2.3081880    -0.0718450     0.0002130
  H        0.0283220     2.3240690     0.0003010
  H       -2.5968940     2.0844950     0.0005320
  H        2.3937560     1.6342750    -0.8845650
  H        3.5659410     0.6177950    -0.0003540
  H        2.3940470     1.6339130     0.8846460
  H       -3.3221070    -0.4534470     0.0002580
units angstrom
no_reorient  #important for SAPT in psi4, default
symmetry c1  #important for SAPT in psi4, default
}

set PROPERTIES_ORIGIN ["COM"]
properties('MP2/aug-cc-pvtz', properties = ['dipole'])
--------------------------------------------------------------------------

    Molecular point group: c1
  Charge       = 0
  Multiplicity = 1
  Basis Set: AUG-CC-PVTZ
    Blend: AUG-CC-PVTZ
  Basis Set: (AUG-CC-PVTZ AUX)
    Blend: AUG-CC-PVTZ-JKFIT

    Orbital Energies [Eh]
    ---------------------

    Doubly Occupied:

       1A    -91.996390     2A    -20.549090     3A    -11.346323
       4A    -11.282527     5A    -11.274478     6A    -11.265039
       7A    -11.251575     8A    -11.241592     9A     -8.996182
      10A     -6.677024    11A     -6.676451    12A     -6.675804
      13A     -1.385793    14A     -1.185996    15A     -1.043869
      16A     -1.002447    17A     -0.983587    18A     -0.836028
      19A     -0.771494    20A     -0.726523    21A     -0.696516
      22A     -0.627081    23A     -0.619032    24A     -0.612412
      25A     -0.574656    26A     -0.558881    27A     -0.541010
      28A     -0.529950    29A     -0.497653    30A     -0.488174
      31A     -0.426905    32A     -0.358814    33A     -0.336923

  @DF-RHF Final Energy:  -703.20568809051895

   => Energetics <=

    Nuclear Repulsion Energy =            412.1222183759714426
    One-Electron Energy =               -1782.5833716954746251
    Two-Electron Energy =                 667.2554652289842352
    Total Energy =                       -703.2056880905189473
  Basis Set: (AUG-CC-PVTZ AUX)
    Blend: AUG-CC-PVTZ-RI
    Molecular point group: c1

    Geometry (in Angstrom), charge = 0, multiplicity = 1:

       Center              X                  Y                   Z               Mass
    ------------   -----------------  -----------------  -----------------  -----------------
         S           -0.966357301650    -1.095228052169    -0.000055558666    31.972071174400
         O            1.999284698350    -1.265889052169    -0.000341558666    15.994914619570
         C            0.164554698350     0.208341947831     0.000002441334    12.000000000000
         C           -0.481127301650     1.436756947831     0.000231441334    12.000000000000
         C            1.623468098350    -0.100872952169    -0.000170858666    12.000000000000
         C           -1.887270301650     1.310773947831     0.000356441334    12.000000000000
         C            2.565383698350     1.070706947831    -0.000107558666    12.000000000000
         C           -2.290796301650    -0.010023052169     0.000219441334    12.000000000000
         H            0.045713698350     2.385890947831     0.000307441334     1.007825032230
         H           -2.579502301650     2.146316947831     0.000538441334     1.007825032230
         H            2.411147698350     1.696096947831    -0.884558558666     1.007825032230
         H            3.583332698350     0.679616947831    -0.000347558666     1.007825032230
         H            2.411438698350     1.695734947831     0.884652441334     1.007825032230
         H           -3.304715301650    -0.391625052169     0.000264441334     1.007825032230

  Basis Set: AUG-CC-PVTZ
    Blend: AUG-CC-PVTZ
  Basis Set: (AUG-CC-PVTZ AUX)
    Blend: AUG-CC-PVTZ-JKFIT
	 Reference Energy          =    -703.2056880905189473 [Eh]
	 Singles Energy            =      -0.0000000000000000 [Eh]
	 Same-Spin Energy          =      -0.3845614766779908 [Eh]
	 Opposite-Spin Energy      =      -1.1749344811507905 [Eh]
	 Correlation Energy        =      -1.5594959578287813 [Eh]
	 Total Energy              =    -704.7651840483476917 [Eh]

	 ================> DF-SCS-MP2 Energies <==================
	-----------------------------------------------------------
	 SCS Same-Spin Scale       =       0.3333333333333333 [-]
	 SCS Opposite-Spin Scale   =       1.2000000000000000 [-]
	 SCS Same-Spin Energy      =      -0.1281871588926636 [Eh]
	 SCS Opposite-Spin Energy  =      -1.4099213773809485 [Eh]
	 SCS Correlation Energy    =      -1.5381085362736120 [Eh]
	 SCS Total Energy          =    -704.7437966267925731 [Eh]
	-----------------------------------------------------------

  Dipole Moment: [D]
     X:    -1.4458      Y:     3.0280      Z:     0.0005     Total:     3.3555

*** Psi4 exiting successfully. Buy a developer a beer!
