                               Psi4 1.3.2 release

  ==> Input File <==

--------------------------------------------------------------------------
#psi4
#
memory 32 gb

molecule  {
0 1
  S       -0.9837490    -1.1570500    -0.0000620
  O        1.8993732    -1.3524434    -0.0003431
  C        0.1471630     0.1465200    -0.0000040
  C       -0.4985190     1.3749350     0.0002250
  C        1.5865110    -0.1585480    -0.0001750
  C       -1.9046620     1.2489520     0.0003500
  C        2.5479920     1.0088850    -0.0001140
  C       -2.3081880    -0.0718450     0.0002130
  H        0.0283220     2.3240690     0.0003010
  H       -2.5968940     2.0844950     0.0005320
  H        2.3937560     1.6342750    -0.8845650
  H        3.5659410     0.6177950    -0.0003540
  H        2.3940470     1.6339130     0.8846460
  H       -3.3221070    -0.4534470     0.0002580
units angstrom
no_reorient  #important for SAPT in psi4, default
symmetry c1  #important for SAPT in psi4, default
}

set PROPERTIES_ORIGIN ["COM"]
properties('MP2/aug-cc-pvtz', properties = ['dipole'])
--------------------------------------------------------------------------

    Molecular point group: c1
  Charge       = 0
  Multiplicity = 1
  Basis Set: AUG-CC-PVTZ
    Blend: AUG-CC-PVTZ
  Basis Set: (AUG-CC-PVTZ AUX)
    Blend: AUG-CC-PVTZ-JKFIT

    Orbital Energies [Eh]
    ---------------------

    Doubly Occupied:

       1A    -91.995127     2A    -20.547520     3A    -11.346411
       4A    -11.281894     5A    -11.271171     6A    -11.264306
       7A    -11.250541     8A    -11.245729     9A     -8.994883
      10A     -6.675713    11A     -6.675128    12A     -6.674482
      13A     -1.379532    14A     -1.185104    15A     -1.045119
      16A     -1.001562    17A     -0.983878    18A     -0.838950
      19A     -0.770921    20A     -0.725663    21A     -0.695178
      22A     -0.625852    23A     -0.617787    24A     -0.612535
      25A     -0.573798    26A     -0.559484    27A     -0.541617
      28A     -0.529189    29A     -0.494876    30A     -0.486999
      31A     -0.427482    32A     -0.357854    33A     -0.335370

  @DF-RHF Final Energy:  -703.20347802425624

   => Energetics <=

    Nuclear Repulsion Energy =            413.0981681715680338
    One-Electron Energy =               -1784.5799881372263371
    Two-Electron Energy =                 668.2783419414021182
    Total Energy =                       -703.2034780242562420
  Basis Set: (AUG-CC-PVTZ AUX)
    Blend: AUG-CC-PVTZ-RI
    Molecular point group: c1

    Geometry (in Angstrom), charge = 0, multiplicity = 1:

       Center              X                  Y                   Z               Mass
    ------------   -----------------  -----------------  -----------------  -----------------
         S           -0.954019920524    -1.092483674544    -0.000056399645    31.972071174400
         O            1.929102279476    -1.287877074544    -0.000337499645    15.994914619570
         C            0.176892079476     0.211086325456     0.000001600355    12.000000000000
         C           -0.468789920524     1.439501325456     0.000230600355    12.000000000000
         C            1.616240079476    -0.093981674544    -0.000169399645    12.000000000000
         C           -1.874932920524     1.313518325456     0.000355600355    12.000000000000
         C            2.577721079476     1.073451325456    -0.000108399645    12.000000000000
         C           -2.278458920524    -0.007278674544     0.000218600355    12.000000000000
         H            0.058051079476     2.388635325456     0.000306600355     1.007825032230
         H           -2.567164920524     2.149061325456     0.000537600355     1.007825032230
         H            2.423485079476     1.698841325456    -0.884559399645     1.007825032230
         H            3.595670079476     0.682361325456    -0.000348399645     1.007825032230
         H            2.423776079476     1.698479325456     0.884651600355     1.007825032230
         H           -3.292377920524    -0.388880674544     0.000263600355     1.007825032230

  Basis Set: AUG-CC-PVTZ
    Blend: AUG-CC-PVTZ
  Basis Set: (AUG-CC-PVTZ AUX)
    Blend: AUG-CC-PVTZ-JKFIT
	 Reference Energy          =    -703.2034780242562420 [Eh]
	 Singles Energy            =      -0.0000000000000000 [Eh]
	 Same-Spin Energy          =      -0.3850000578055135 [Eh]
	 Opposite-Spin Energy      =      -1.1757601799336082 [Eh]
	 Correlation Energy        =      -1.5607602377391216 [Eh]
	 Total Energy              =    -704.7642382619953878 [Eh]

	 ================> DF-SCS-MP2 Energies <==================
	-----------------------------------------------------------
	 SCS Same-Spin Scale       =       0.3333333333333333 [-]
	 SCS Opposite-Spin Scale   =       1.2000000000000000 [-]
	 SCS Same-Spin Energy      =      -0.1283333526018378 [Eh]
	 SCS Opposite-Spin Energy  =      -1.4109122159203298 [Eh]
	 SCS Correlation Energy    =      -1.5392455685221675 [Eh]
	 SCS Total Energy          =    -704.7427235927783613 [Eh]
	-----------------------------------------------------------

  Dipole Moment: [D]
     X:    -1.3108      Y:     3.0986      Z:     0.0005     Total:     3.3645

*** Psi4 exiting successfully. Buy a developer a beer!
