                               Psi4 1.3.2 release

  ==> Input File <==

--------------------------------------------------------------------------
#psi4
#
memory 32 gb

molecule  {
0 1
  S       -0.9837490    -1.1570500    -0.0000620
  O        1.9818930    -1.3277110    -0.0003480
  C        0.1586865     0.1965667     0.0000013
  C       -0.4985190     1.3749350     0.0002250
  C        1.5865110    -0.1585480    -0.0001750
  C       -1.9046620     1.2489520     0.0003500
  C        2.5479920     1.0088850    -0.0001140
  C       -2.3081880    -0.0718450     0.0002130
  H        0.0283220     2.3240690     0.0003010
  H       -2.5968940     2.0844950     0.0005320
  H        2.3937560     1.6342750    -0.8845650
  H        3.5659410     0.6177950    -0.0003540
  H        2.3940470     1.6339130     0.8846460
  H       -3.3221070    -0.4534470     0.0002580
units angstrom
no_reorient  #important for SAPT in psi4, default
symmetry c1  #important for SAPT in psi4, default
}

set PROPERTIES_ORIGIN ["COM"]
properties('MP2/aug-cc-pvtz', properties = ['dipole'])
--------------------------------------------------------------------------

    Molecular point group: c1
  Charge       = 0
  Multiplicity = 1
  Basis Set: AUG-CC-PVTZ
    Blend: AUG-CC-PVTZ
  Basis Set: (AUG-CC-PVTZ AUX)
    Blend: AUG-CC-PVTZ-JKFIT

    Orbital Energies [Eh]
    ---------------------

    Doubly Occupied:

       1A    -91.994478     2A    -20.549506     3A    -11.347239
       4A    -11.285903     5A    -11.274353     6A    -11.265375
       7A    -11.252324     8A    -11.240363     9A     -8.993807
      10A     -6.674648    11A     -6.673955    12A     -6.673375
      13A     -1.378918    14A     -1.188015    15A     -1.048093
      16A     -1.000540    17A     -0.985127    18A     -0.841512
      19A     -0.775616    20A     -0.729014    21A     -0.694160
      22A     -0.625017    23A     -0.620014    24A     -0.611004
      25A     -0.577512    26A     -0.560149    27A     -0.541330
      28A     -0.524468    29A     -0.495004    30A     -0.486553
      31A     -0.425604    32A     -0.363249    33A     -0.339580

  @DF-RHF Final Energy:  -703.20354413443977

   => Energetics <=

    Nuclear Repulsion Energy =            411.9315922559791261
    One-Electron Energy =               -1782.1986575203470693
    Two-Electron Energy =                 667.0635211299280627
    Total Energy =                       -703.2035441344397668
  Basis Set: (AUG-CC-PVTZ AUX)
    Blend: AUG-CC-PVTZ-RI
    Molecular point group: c1

    Geometry (in Angstrom), charge = 0, multiplicity = 1:

       Center              X                  Y                   Z               Mass
    ------------   -----------------  -----------------  -----------------  -----------------
         S           -0.965591491113    -1.100388776615    -0.000056282396    31.972071174400
         O            2.000050508887    -1.271049776615    -0.000342282396    15.994914619570
         C            0.176844008887     0.253227923385     0.000007017604    12.000000000000
         C           -0.480361491113     1.431596223385     0.000230717604    12.000000000000
         C            1.604668508887    -0.101886776615    -0.000169282396    12.000000000000
         C           -1.886504491113     1.305613223385     0.000355717604    12.000000000000
         C            2.566149508887     1.065546223385    -0.000108282396    12.000000000000
         C           -2.290030491113    -0.015183776615     0.000218717604    12.000000000000
         H            0.046479508887     2.380730223385     0.000306717604     1.007825032230
         H           -2.578736491113     2.141156223385     0.000537717604     1.007825032230
         H            2.411913508887     1.690936223385    -0.884559282396     1.007825032230
         H            3.584098508887     0.674456223385    -0.000348282396     1.007825032230
         H            2.412204508887     1.690574223385     0.884651717604     1.007825032230
         H           -3.303949491113    -0.396785776615     0.000263717604     1.007825032230

  Basis Set: AUG-CC-PVTZ
    Blend: AUG-CC-PVTZ
  Basis Set: (AUG-CC-PVTZ AUX)
    Blend: AUG-CC-PVTZ-JKFIT
	 Reference Energy          =    -703.2035441344397668 [Eh]
	 Singles Energy            =      -0.0000000000000000 [Eh]
	 Same-Spin Energy          =      -0.3842612080841578 [Eh]
	 Opposite-Spin Energy      =      -1.1752058169818320 [Eh]
	 Correlation Energy        =      -1.5594670250659899 [Eh]
	 Total Energy              =    -704.7630111595057087 [Eh]

	 ================> DF-SCS-MP2 Energies <==================
	-----------------------------------------------------------
	 SCS Same-Spin Scale       =       0.3333333333333333 [-]
	 SCS Opposite-Spin Scale   =       1.2000000000000000 [-]
	 SCS Same-Spin Energy      =      -0.1280870693613859 [Eh]
	 SCS Opposite-Spin Energy  =      -1.4102469803781983 [Eh]
	 SCS Correlation Energy    =      -1.5383340497395843 [Eh]
	 SCS Total Energy          =    -704.7418781841793134 [Eh]
	-----------------------------------------------------------

  Dipole Moment: [D]
     X:    -1.5670      Y:     3.1038      Z:     0.0006     Total:     3.4770

*** Psi4 exiting successfully. Buy a developer a beer!
