                               Psi4 1.3.2 release

  ==> Input File <==

--------------------------------------------------------------------------
#psi4
#
memory 32 gb

molecule  {
0 1
  S       -0.9837490    -1.1570500    -0.0000620
  O        1.9818930    -1.3277110    -0.0003480
  C        0.1471630     0.1465200    -0.0000040
  C       -0.5450455     1.4634521     0.0002415
  C        1.5865110    -0.1585480    -0.0001750
  C       -1.9046620     1.2489520     0.0003500
  C        2.5479920     1.0088850    -0.0001140
  C       -2.3081880    -0.0718450     0.0002130
  H        0.0283220     2.3240690     0.0003010
  H       -2.5968940     2.0844950     0.0005320
  H        2.3937560     1.6342750    -0.8845650
  H        3.5659410     0.6177950    -0.0003540
  H        2.3940470     1.6339130     0.8846460
  H       -3.3221070    -0.4534470     0.0002580
units angstrom
no_reorient  #important for SAPT in psi4, default
symmetry c1  #important for SAPT in psi4, default
}

set PROPERTIES_ORIGIN ["COM"]
properties('MP2/aug-cc-pvtz', properties = ['dipole'])
--------------------------------------------------------------------------

    Molecular point group: c1
  Charge       = 0
  Multiplicity = 1
  Basis Set: AUG-CC-PVTZ
    Blend: AUG-CC-PVTZ
  Basis Set: (AUG-CC-PVTZ AUX)
    Blend: AUG-CC-PVTZ-JKFIT

    Orbital Energies [Eh]
    ---------------------

    Doubly Occupied:

       1A    -92.005643     2A    -20.543247     3A    -11.343192
       4A    -11.286004     5A    -11.281917     6A    -11.270829
       7A    -11.252445     8A    -11.239842     9A     -9.004631
      10A     -6.685397    11A     -6.684817    12A     -6.684346
      13A     -1.374987    14A     -1.181865    15A     -1.039196
      16A     -1.014218    17A     -0.975830    18A     -0.842152
      19A     -0.774788    20A     -0.727419    21A     -0.693333
      22A     -0.619804    23A     -0.611726    24A     -0.608122
      25A     -0.600173    26A     -0.551036    27A     -0.538658
      28A     -0.524399    29A     -0.493384    30A     -0.491102
      31A     -0.423907    32A     -0.365377    33A     -0.326128

  @DF-RHF Final Energy:  -703.18864775097734

   => Energetics <=

    Nuclear Repulsion Energy =            410.6335452082605002
    One-Electron Energy =               -1779.5245570482425137
    Two-Electron Energy =                 665.7023640890046181
    Total Energy =                       -703.1886477509773385
  Basis Set: (AUG-CC-PVTZ AUX)
    Blend: AUG-CC-PVTZ-RI
    Molecular point group: c1

    Geometry (in Angstrom), charge = 0, multiplicity = 1:

       Center              X                  Y                   Z               Mass
    ------------   -----------------  -----------------  -----------------  -----------------
         S           -0.960063531094    -1.104052219046    -0.000057348944    31.972071174400
         O            2.005578468906    -1.274713219046    -0.000343348944    15.994914619570
         C            0.170848468906     0.199517780954     0.000000651056    12.000000000000
         C           -0.521360031094     1.516449880954     0.000246151056    12.000000000000
         C            1.610196468906    -0.105550219046    -0.000170348944    12.000000000000
         C           -1.880976531094     1.301949780954     0.000354651056    12.000000000000
         C            2.571677468906     1.061882780954    -0.000109348944    12.000000000000
         C           -2.284502531094    -0.018847219046     0.000217651056    12.000000000000
         H            0.052007468906     2.377066780954     0.000305651056     1.007825032230
         H           -2.573208531094     2.137492780954     0.000536651056     1.007825032230
         H            2.417441468906     1.687272780954    -0.884560348944     1.007825032230
         H            3.589626468906     0.670792780954    -0.000349348944     1.007825032230
         H            2.417732468906     1.686910780954     0.884650651056     1.007825032230
         H           -3.298421531094    -0.400449219046     0.000262651056     1.007825032230

  Basis Set: AUG-CC-PVTZ
    Blend: AUG-CC-PVTZ
  Basis Set: (AUG-CC-PVTZ AUX)
    Blend: AUG-CC-PVTZ-JKFIT
	 Reference Energy          =    -703.1886477509773385 [Eh]
	 Singles Energy            =      -0.0000000000000000 [Eh]
	 Same-Spin Energy          =      -0.3873770678103042 [Eh]
	 Opposite-Spin Energy      =      -1.1789039986258407 [Eh]
	 Correlation Energy        =      -1.5662810664361451 [Eh]
	 Total Energy              =    -704.7549288174134290 [Eh]

	 ================> DF-SCS-MP2 Energies <==================
	-----------------------------------------------------------
	 SCS Same-Spin Scale       =       0.3333333333333333 [-]
	 SCS Opposite-Spin Scale   =       1.2000000000000000 [-]
	 SCS Same-Spin Energy      =      -0.1291256892701014 [Eh]
	 SCS Opposite-Spin Energy  =      -1.4146847983510089 [Eh]
	 SCS Correlation Energy    =      -1.5438104876211103 [Eh]
	 SCS Total Energy          =    -704.7324582385984968 [Eh]
	-----------------------------------------------------------

  Dipole Moment: [D]
     X:    -1.7001      Y:     2.9550      Z:     0.0005     Total:     3.4092

*** Psi4 exiting successfully. Buy a developer a beer!
