                               Psi4 1.3.2 release

  ==> Input File <==

--------------------------------------------------------------------------
#psi4
#
memory 32 gb

molecule  {
0 1
  S       -1.0285540    -1.1167876    -0.0000528
  O        1.9818930    -1.3277110    -0.0003480
  C        0.1471630     0.1465200    -0.0000040
  C       -0.4985190     1.3749350     0.0002250
  C        1.5865110    -0.1585480    -0.0001750
  C       -1.9046620     1.2489520     0.0003500
  C        2.5479920     1.0088850    -0.0001140
  C       -2.3081880    -0.0718450     0.0002130
  H        0.0283220     2.3240690     0.0003010
  H       -2.5968940     2.0844950     0.0005320
  H        2.3937560     1.6342750    -0.8845650
  H        3.5659410     0.6177950    -0.0003540
  H        2.3940470     1.6339130     0.8846460
  H       -3.3221070    -0.4534470     0.0002580
units angstrom
no_reorient  #important for SAPT in psi4, default
symmetry c1  #important for SAPT in psi4, default
}

set PROPERTIES_ORIGIN ["COM"]
properties('MP2/aug-cc-pvtz', properties = ['dipole'])
--------------------------------------------------------------------------

    Molecular point group: c1
  Charge       = 0
  Multiplicity = 1
  Basis Set: AUG-CC-PVTZ
    Blend: AUG-CC-PVTZ
  Basis Set: (AUG-CC-PVTZ AUX)
    Blend: AUG-CC-PVTZ-JKFIT

    Orbital Energies [Eh]
    ---------------------

    Doubly Occupied:

       1A    -91.996534     2A    -20.545832     3A    -11.345634
       4A    -11.280015     5A    -11.272956     6A    -11.266396
       7A    -11.250397     8A    -11.241186     9A     -8.997866
      10A     -6.678833    11A     -6.678154    12A     -6.677495
      13A     -1.376833    14A     -1.196388    15A     -1.046899
      16A     -1.006332    17A     -0.985082    18A     -0.840382
      19A     -0.773629    20A     -0.728729    21A     -0.694515
      22A     -0.623812    23A     -0.620693    24A     -0.610366
      25A     -0.576153    26A     -0.557526    27A     -0.546153
      28A     -0.537189    29A     -0.495485    30A     -0.486429
      31A     -0.426046    32A     -0.361121    33A     -0.338001

  @DF-RHF Final Energy:  -703.20361983868838

   => Energetics <=

    Nuclear Repulsion Energy =            413.5149104520783112
    One-Electron Energy =               -1785.3189424676211274
    Two-Electron Energy =                 668.6004121768544337
    Total Energy =                       -703.2036198386883825
  Basis Set: (AUG-CC-PVTZ AUX)
    Blend: AUG-CC-PVTZ-RI
    Molecular point group: c1

    Geometry (in Angstrom), charge = 0, multiplicity = 1:

       Center              X                  Y                   Z               Mass
    ------------   -----------------  -----------------  -----------------  -----------------
         S           -0.997931277352    -1.065575868475    -0.000048911900    31.972071174400
         O            2.012515722648    -1.276499268475    -0.000344111900    15.994914619570
         C            0.177785722648     0.197731731525    -0.000000111900    12.000000000000
         C           -0.467896277352     1.426146731525     0.000228888100    12.000000000000
         C            1.617133722648    -0.107336268475    -0.000171111900    12.000000000000
         C           -1.874039277352     1.300163731525     0.000353888100    12.000000000000
         C            2.578614722648     1.060096731525    -0.000110111900    12.000000000000
         C           -2.277565277352    -0.020633268475     0.000216888100    12.000000000000
         H            0.058944722648     2.375280731525     0.000304888100     1.007825032230
         H           -2.566271277352     2.135706731525     0.000535888100     1.007825032230
         H            2.424378722648     1.685486731525    -0.884561111900     1.007825032230
         H            3.596563722648     0.669006731525    -0.000350111900     1.007825032230
         H            2.424669722648     1.685124731525     0.884649888100     1.007825032230
         H           -3.291484277352    -0.402235268475     0.000261888100     1.007825032230

  Basis Set: AUG-CC-PVTZ
    Blend: AUG-CC-PVTZ
  Basis Set: (AUG-CC-PVTZ AUX)
    Blend: AUG-CC-PVTZ-JKFIT
	 Reference Energy          =    -703.2036198386883825 [Eh]
	 Singles Energy            =      -0.0000000000000000 [Eh]
	 Same-Spin Energy          =      -0.3853317860949091 [Eh]
	 Opposite-Spin Energy      =      -1.1748695969904785 [Eh]
	 Correlation Energy        =      -1.5602013830853876 [Eh]
	 Total Energy              =    -704.7638212217738101 [Eh]

	 ================> DF-SCS-MP2 Energies <==================
	-----------------------------------------------------------
	 SCS Same-Spin Scale       =       0.3333333333333333 [-]
	 SCS Opposite-Spin Scale   =       1.2000000000000000 [-]
	 SCS Same-Spin Energy      =      -0.1284439286983030 [Eh]
	 SCS Opposite-Spin Energy  =      -1.4098435163885743 [Eh]
	 SCS Correlation Energy    =      -1.5382874450868773 [Eh]
	 SCS Total Energy          =    -704.7419072837752765 [Eh]
	-----------------------------------------------------------

  Dipole Moment: [D]
     X:    -1.6524      Y:     3.0185      Z:     0.0005     Total:     3.4412

*** Psi4 exiting successfully. Buy a developer a beer!
