                               Psi4 1.3.2 release

  ==> Input File <==

--------------------------------------------------------------------------
#psi4
#
memory 32 gb

molecule  {
0 1
  S       -0.9837490    -1.1570500    -0.0000620
  O        1.9818930    -1.3277110    -0.0003480
  C        0.1420580     0.1213535    -0.0000067
  C       -0.4985190     1.3749350     0.0002250
  C        1.5865110    -0.1585480    -0.0001750
  C       -1.9046620     1.2489520     0.0003500
  C        2.5479920     1.0088850    -0.0001140
  C       -2.3081880    -0.0718450     0.0002130
  H        0.0283220     2.3240690     0.0003010
  H       -2.5968940     2.0844950     0.0005320
  H        2.3937560     1.6342750    -0.8845650
  H        3.5659410     0.6177950    -0.0003540
  H        2.3940470     1.6339130     0.8846460
  H       -3.3221070    -0.4534470     0.0002580
units angstrom
no_reorient  #important for SAPT in psi4, default
symmetry c1  #important for SAPT in psi4, default
}

set PROPERTIES_ORIGIN ["COM"]
properties('MP2/aug-cc-pvtz', properties = ['dipole'])
--------------------------------------------------------------------------

    Molecular point group: c1
  Charge       = 0
  Multiplicity = 1
  Basis Set: AUG-CC-PVTZ
    Blend: AUG-CC-PVTZ
  Basis Set: (AUG-CC-PVTZ AUX)
    Blend: AUG-CC-PVTZ-JKFIT

    Orbital Energies [Eh]
    ---------------------

    Doubly Occupied:

       1A    -91.999154     2A    -20.545495     3A    -11.344643
       4A    -11.283804     5A    -11.274728     6A    -11.268225
       7A    -11.253099     8A    -11.241450     9A     -8.999216
      10A     -6.680055    11A     -6.679518    12A     -6.678843
      13A     -1.377333    14A     -1.188109    15A     -1.042473
      16A     -1.006712    17A     -0.981726    18A     -0.840184
      19A     -0.772177    20A     -0.726701    21A     -0.694233
      22A     -0.623358    23A     -0.617781    24A     -0.610091
      25A     -0.575468    26A     -0.556838    27A     -0.542470
      28A     -0.533709    29A     -0.493710    30A     -0.490076
      31A     -0.426400    32A     -0.359781    33A     -0.336405

  @DF-RHF Final Energy:  -703.20359700136123

   => Energetics <=

    Nuclear Repulsion Energy =            412.4256343337238491
    One-Electron Energy =               -1783.1705307903578159
    Two-Electron Energy =                 667.5412994552727923
    Total Energy =                       -703.2035970013612314
  Basis Set: (AUG-CC-PVTZ AUX)
    Blend: AUG-CC-PVTZ-RI
    Molecular point group: c1

    Geometry (in Angstrom), charge = 0, multiplicity = 1:

       Center              X                  Y                   Z               Mass
    ------------   -----------------  -----------------  -----------------  -----------------
         S           -0.964007999585    -1.093226406890    -0.000055520575    31.972071174400
         O            2.001634000415    -1.263887406890    -0.000341520575    15.994914619570
         C            0.161799000415     0.185177093110    -0.000000220575    12.000000000000
         C           -0.478777999585     1.438758593110     0.000231479425    12.000000000000
         C            1.606252000415    -0.094724406890    -0.000168520575    12.000000000000
         C           -1.884920999585     1.312775593110     0.000356479425    12.000000000000
         C            2.567733000415     1.072708593110    -0.000107520575    12.000000000000
         C           -2.288446999585    -0.008021406890     0.000219479425    12.000000000000
         H            0.048063000415     2.387892593110     0.000307479425     1.007825032230
         H           -2.577152999585     2.148318593110     0.000538479425     1.007825032230
         H            2.413497000415     1.698098593110    -0.884558520575     1.007825032230
         H            3.585682000415     0.681618593110    -0.000347520575     1.007825032230
         H            2.413788000415     1.697736593110     0.884652479425     1.007825032230
         H           -3.302365999585    -0.389623406890     0.000264479425     1.007825032230

  Basis Set: AUG-CC-PVTZ
    Blend: AUG-CC-PVTZ
  Basis Set: (AUG-CC-PVTZ AUX)
    Blend: AUG-CC-PVTZ-JKFIT
	 Reference Energy          =    -703.2035970013612314 [Eh]
	 Singles Energy            =      -0.0000000000000000 [Eh]
	 Same-Spin Energy          =      -0.3853195387706899 [Eh]
	 Opposite-Spin Energy      =      -1.1759306837656784 [Eh]
	 Correlation Energy        =      -1.5612502225363682 [Eh]
	 Total Energy              =    -704.7648472238976183 [Eh]

	 ================> DF-SCS-MP2 Energies <==================
	-----------------------------------------------------------
	 SCS Same-Spin Scale       =       0.3333333333333333 [-]
	 SCS Opposite-Spin Scale   =       1.2000000000000000 [-]
	 SCS Same-Spin Energy      =      -0.1284398462568966 [Eh]
	 SCS Opposite-Spin Energy  =      -1.4111168205188140 [Eh]
	 SCS Correlation Energy    =      -1.5395566667757106 [Eh]
	 SCS Total Energy          =    -704.7431536681369835 [Eh]
	-----------------------------------------------------------

  Dipole Moment: [D]
     X:    -1.6275      Y:     3.0248      Z:     0.0005     Total:     3.4349

*** Psi4 exiting successfully. Buy a developer a beer!
