                               Psi4 1.3.2 release

  ==> Input File <==

--------------------------------------------------------------------------
#psi4
#
memory 32 gb

molecule  {
0 1
  S       -0.9837490    -1.1570500    -0.0000620
  O        1.9818930    -1.3277110    -0.0003480
  C        0.1231596    -0.0056040    -0.0000212
  C       -0.4985190     1.3749350     0.0002250
  C        1.5865110    -0.1585480    -0.0001750
  C       -1.9046620     1.2489520     0.0003500
  C        2.5479920     1.0088850    -0.0001140
  C       -2.3081880    -0.0718450     0.0002130
  H        0.0283220     2.3240690     0.0003010
  H       -2.5968940     2.0844950     0.0005320
  H        2.3937560     1.6342750    -0.8845650
  H        3.5659410     0.6177950    -0.0003540
  H        2.3940470     1.6339130     0.8846460
  H       -3.3221070    -0.4534470     0.0002580
units angstrom
no_reorient  #important for SAPT in psi4, default
symmetry c1  #important for SAPT in psi4, default
}

set PROPERTIES_ORIGIN ["COM"]
properties('MP2/aug-cc-pvtz', properties = ['dipole'])
--------------------------------------------------------------------------

    Molecular point group: c1
  Charge       = 0
  Multiplicity = 1
  Basis Set: AUG-CC-PVTZ
    Blend: AUG-CC-PVTZ
  Basis Set: (AUG-CC-PVTZ AUX)
    Blend: AUG-CC-PVTZ-JKFIT

    Orbital Energies [Eh]
    ---------------------

    Doubly Occupied:

       1A    -92.005359     2A    -20.540863     3A    -11.343322
       4A    -11.278862     5A    -11.276237     6A    -11.270943
       7A    -11.254098     8A    -11.244546     9A     -9.007339
      10A     -6.688458    11A     -6.687613    12A     -6.686982
      13A     -1.376920    14A     -1.192031    15A     -1.037202
      16A     -1.020423    17A     -0.971699    18A     -0.839779
      19A     -0.769453    20A     -0.719605    21A     -0.695149
      22A     -0.622292    23A     -0.618742    24A     -0.610387
      25A     -0.574973    26A     -0.553408    27A     -0.546584
      28A     -0.540242    29A     -0.492727    30A     -0.487868
      31A     -0.424797    32A     -0.366118    33A     -0.320858

  @DF-RHF Final Energy:  -703.17692199255623

   => Energetics <=

    Nuclear Repulsion Energy =            413.3281181601088861
    One-Electron Energy =               -1784.8783209125008398
    Two-Electron Energy =                 668.3732807598356658
    Total Energy =                       -703.1769219925562311
  Basis Set: (AUG-CC-PVTZ AUX)
    Blend: AUG-CC-PVTZ-RI
    Molecular point group: c1

    Geometry (in Angstrom), charge = 0, multiplicity = 1:

       Center              X                  Y                   Z               Mass
    ------------   -----------------  -----------------  -----------------  -----------------
         S           -0.962208351013    -1.081136553589    -0.000054139776    31.972071174400
         O            2.003433648987    -1.251797553589    -0.000340139776    15.994914619570
         C            0.144700248987     0.070309446411    -0.000013339776    12.000000000000
         C           -0.476978351013     1.450848446411     0.000232860224    12.000000000000
         C            1.608051648987    -0.082634553589    -0.000167139776    12.000000000000
         C           -1.883121351013     1.324865446411     0.000357860224    12.000000000000
         C            2.569532648987     1.084798446411    -0.000106139776    12.000000000000
         C           -2.286647351013     0.004068446411     0.000220860224    12.000000000000
         H            0.049862648987     2.399982446411     0.000308860224     1.007825032230
         H           -2.575353351013     2.160408446411     0.000539860224     1.007825032230
         H            2.415296648987     1.710188446411    -0.884557139776     1.007825032230
         H            3.587481648987     0.693708446411    -0.000346139776     1.007825032230
         H            2.415587648987     1.709826446411     0.884653860224     1.007825032230
         H           -3.300566351013    -0.377533553589     0.000265860224     1.007825032230

  Basis Set: AUG-CC-PVTZ
    Blend: AUG-CC-PVTZ
  Basis Set: (AUG-CC-PVTZ AUX)
    Blend: AUG-CC-PVTZ-JKFIT
	 Reference Energy          =    -703.1769219925562311 [Eh]
	 Singles Energy            =      -0.0000000000000000 [Eh]
	 Same-Spin Energy          =      -0.3878112319729102 [Eh]
	 Opposite-Spin Energy      =      -1.1785708142099494 [Eh]
	 Correlation Energy        =      -1.5663820461828595 [Eh]
	 Total Energy              =    -704.7433040387390975 [Eh]

	 ================> DF-SCS-MP2 Energies <==================
	-----------------------------------------------------------
	 SCS Same-Spin Scale       =       0.3333333333333333 [-]
	 SCS Opposite-Spin Scale   =       1.2000000000000000 [-]
	 SCS Same-Spin Energy      =      -0.1292704106576367 [Eh]
	 SCS Opposite-Spin Energy  =      -1.4142849770519392 [Eh]
	 SCS Correlation Energy    =      -1.5435553877095760 [Eh]
	 SCS Total Energy          =    -704.7204773802658337 [Eh]
	-----------------------------------------------------------

  Dipole Moment: [D]
     X:    -1.6522      Y:     2.9479      Z:     0.0005     Total:     3.3793

*** Psi4 exiting successfully. Buy a developer a beer!
