                               Psi4 1.3.2 release

  ==> Input File <==

--------------------------------------------------------------------------
#psi4
#
memory 32 gb

molecule  {
0 1
  S       -0.9837490    -1.1570500    -0.0000620
  O        2.0022375    -1.3206326    -0.0003491
  C        0.1471630     0.1465200    -0.0000040
  C       -0.4985190     1.3749350     0.0002250
  C        1.5865110    -0.1585480    -0.0001750
  C       -1.9046620     1.2489520     0.0003500
  C        2.5479920     1.0088850    -0.0001140
  C       -2.3081880    -0.0718450     0.0002130
  H        0.0283220     2.3240690     0.0003010
  H       -2.5968940     2.0844950     0.0005320
  H        2.3937560     1.6342750    -0.8845650
  H        3.5659410     0.6177950    -0.0003540
  H        2.3940470     1.6339130     0.8846460
  H       -3.3221070    -0.4534470     0.0002580
units angstrom
no_reorient  #important for SAPT in psi4, default
symmetry c1  #important for SAPT in psi4, default
}

set PROPERTIES_ORIGIN ["COM"]
properties('MP2/aug-cc-pvtz', properties = ['dipole'])
--------------------------------------------------------------------------

    Molecular point group: c1
  Charge       = 0
  Multiplicity = 1
  Basis Set: AUG-CC-PVTZ
    Blend: AUG-CC-PVTZ
  Basis Set: (AUG-CC-PVTZ AUX)
    Blend: AUG-CC-PVTZ-JKFIT

    Orbital Energies [Eh]
    ---------------------

    Doubly Occupied:

       1A    -91.998293     2A    -20.546531     3A    -11.345118
       4A    -11.285206     5A    -11.275369     6A    -11.268076
       7A    -11.253406     8A    -11.239836     9A     -8.998083
      10A     -6.678919    11A     -6.678340    12A     -6.677695
      13A     -1.377410    14A     -1.188566    15A     -1.044008
      16A     -1.004780    17A     -0.983097    18A     -0.840922
      19A     -0.773738    20A     -0.728129    21A     -0.693937
      22A     -0.623527    23A     -0.618277    24A     -0.609769
      25A     -0.576489    26A     -0.557822    27A     -0.542090
      28A     -0.531069    29A     -0.493844    30A     -0.489833
      31A     -0.425827    32A     -0.360600    33A     -0.338968

  @DF-RHF Final Energy:  -703.20487233537369

   => Energetics <=

    Nuclear Repulsion Energy =            412.0656450980088721
    One-Electron Energy =               -1782.4458886265085766
    Two-Electron Energy =                 667.1753711931260113
    Total Energy =                       -703.2048723353736932
  Basis Set: (AUG-CC-PVTZ AUX)
    Blend: AUG-CC-PVTZ-RI
    Molecular point group: c1

    Geometry (in Angstrom), charge = 0, multiplicity = 1:

       Center              X                  Y                   Z               Mass
    ------------   -----------------  -----------------  -----------------  -----------------
         S           -0.967076458144    -1.096521410736    -0.000055638067    31.972071174400
         O            2.018910041856    -1.260104010736    -0.000342738067    15.994914619570
         C            0.163835541856     0.207048589264     0.000002361933    12.000000000000
         C           -0.481846458144     1.435463589264     0.000231361933    12.000000000000
         C            1.603183541856    -0.098019410736    -0.000168638067    12.000000000000
         C           -1.887989458144     1.309480589264     0.000356361933    12.000000000000
         C            2.564664541856     1.069413589264    -0.000107638067    12.000000000000
         C           -2.291515458144    -0.011316410736     0.000219361933    12.000000000000
         H            0.044994541856     2.384597589264     0.000307361933     1.007825032230
         H           -2.580221458144     2.145023589264     0.000538361933     1.007825032230
         H            2.410428541856     1.694803589264    -0.884558638067     1.007825032230
         H            3.582613541856     0.678323589264    -0.000347638067     1.007825032230
         H            2.410719541856     1.694441589264     0.884652361933     1.007825032230
         H           -3.305434458144    -0.392918410736     0.000264361933     1.007825032230

  Basis Set: AUG-CC-PVTZ
    Blend: AUG-CC-PVTZ
  Basis Set: (AUG-CC-PVTZ AUX)
    Blend: AUG-CC-PVTZ-JKFIT
	 Reference Energy          =    -703.2048723353736932 [Eh]
	 Singles Energy            =      -0.0000000000000000 [Eh]
	 Same-Spin Energy          =      -0.3849152814499177 [Eh]
	 Opposite-Spin Energy      =      -1.1756061112049572 [Eh]
	 Correlation Energy        =      -1.5605213926548749 [Eh]
	 Total Energy              =    -704.7653937280285845 [Eh]

	 ================> DF-SCS-MP2 Energies <==================
	-----------------------------------------------------------
	 SCS Same-Spin Scale       =       0.3333333333333333 [-]
	 SCS Opposite-Spin Scale   =       1.2000000000000000 [-]
	 SCS Same-Spin Energy      =      -0.1283050938166392 [Eh]
	 SCS Opposite-Spin Energy  =      -1.4107273334459485 [Eh]
	 SCS Correlation Energy    =      -1.5390324272625877 [Eh]
	 SCS Total Energy          =    -704.7439047626362481 [Eh]
	-----------------------------------------------------------

  Dipole Moment: [D]
     X:    -1.6848      Y:     3.0338      Z:     0.0006     Total:     3.4702

*** Psi4 exiting successfully. Buy a developer a beer!
