                               Psi4 1.3.2 release

  ==> Input File <==

--------------------------------------------------------------------------
#psi4
#
memory 32 gb

molecule  {
0 1
  S       -0.9837490    -1.1570500    -0.0000620
  O        1.9818930    -1.3277110    -0.0003480
  C        0.1471630     0.1465200    -0.0000040
  C       -0.4985190     1.3749350     0.0002250
  C        1.3908573    -0.1170795    -0.0001518
  C       -1.9046620     1.2489520     0.0003500
  C        2.5479920     1.0088850    -0.0001140
  C       -2.3081880    -0.0718450     0.0002130
  H        0.0283220     2.3240690     0.0003010
  H       -2.5968940     2.0844950     0.0005320
  H        2.3937560     1.6342750    -0.8845650
  H        3.5659410     0.6177950    -0.0003540
  H        2.3940470     1.6339130     0.8846460
  H       -3.3221070    -0.4534470     0.0002580
units angstrom
no_reorient  #important for SAPT in psi4, default
symmetry c1  #important for SAPT in psi4, default
}

set PROPERTIES_ORIGIN ["COM"]
properties('MP2/aug-cc-pvtz', properties = ['dipole'])
--------------------------------------------------------------------------

    Molecular point group: c1
  Charge       = 0
  Multiplicity = 1
  Basis Set: AUG-CC-PVTZ
    Blend: AUG-CC-PVTZ
  Basis Set: (AUG-CC-PVTZ AUX)
    Blend: AUG-CC-PVTZ-JKFIT

    Orbital Energies [Eh]
    ---------------------

    Doubly Occupied:

       1A    -92.011356     2A    -20.516105     3A    -11.328911
       4A    -11.309364     5A    -11.293715     6A    -11.267445
       7A    -11.265544     8A    -11.237300     9A     -9.011103
      10A     -6.691840    11A     -6.691165    12A     -6.690549
      13A     -1.297146    14A     -1.207394    15A     -1.073442
      16A     -1.021944    17A     -0.965733    18A     -0.885071
      19A     -0.792499    20A     -0.743057    21A     -0.669798
      22A     -0.616621    23A     -0.608056    24A     -0.597805
      25A     -0.587478    26A     -0.551638    27A     -0.551386
      28A     -0.518569    29A     -0.494563    30A     -0.462351
      31A     -0.397694    32A     -0.373686    33A     -0.346566

  @DF-RHF Final Energy:  -703.13777710752652

   => Energetics <=

    Nuclear Repulsion Energy =            413.9682169370747715
    One-Electron Energy =               -1786.0582035817008091
    Two-Electron Energy =                 668.9522095370996340
    Total Energy =                       -703.1377771075265173
  Basis Set: (AUG-CC-PVTZ AUX)
    Blend: AUG-CC-PVTZ-RI
    Molecular point group: c1

    Geometry (in Angstrom), charge = 0, multiplicity = 1:

       Center              X                  Y                   Z               Mass
    ------------   -----------------  -----------------  -----------------  -----------------
         S           -0.945862511294    -1.099571895536    -0.000057986969    31.972071174400
         O            2.019779488706    -1.270232895536    -0.000343986969    15.994914619570
         C            0.185049488706     0.203998104464     0.000000013031    12.000000000000
         C           -0.460632511294     1.432413104464     0.000229013031    12.000000000000
         C            1.428743788706    -0.059601395536    -0.000147786969    12.000000000000
         C           -1.866775511294     1.306430104464     0.000354013031    12.000000000000
         C            2.585878488706     1.066363104464    -0.000109986969    12.000000000000
         C           -2.270301511294    -0.014366895536     0.000217013031    12.000000000000
         H            0.066208488706     2.381547104464     0.000305013031     1.007825032230
         H           -2.559007511294     2.141973104464     0.000536013031     1.007825032230
         H            2.431642488706     1.691753104464    -0.884560986969     1.007825032230
         H            3.603827488706     0.675273104464    -0.000349986969     1.007825032230
         H            2.431933488706     1.691391104464     0.884650013031     1.007825032230
         H           -3.284220511294    -0.395968895536     0.000262013031     1.007825032230

  Basis Set: AUG-CC-PVTZ
    Blend: AUG-CC-PVTZ
  Basis Set: (AUG-CC-PVTZ AUX)
    Blend: AUG-CC-PVTZ-JKFIT
	 Reference Energy          =    -703.1377771075265173 [Eh]
	 Singles Energy            =      -0.0000000000000000 [Eh]
	 Same-Spin Energy          =      -0.3903825564249083 [Eh]
	 Opposite-Spin Energy      =      -1.1855713240060979 [Eh]
	 Correlation Energy        =      -1.5759538804310060 [Eh]
	 Total Energy              =    -704.7137309879575469 [Eh]

	 ================> DF-SCS-MP2 Energies <==================
	-----------------------------------------------------------
	 SCS Same-Spin Scale       =       0.3333333333333333 [-]
	 SCS Opposite-Spin Scale   =       1.2000000000000000 [-]
	 SCS Same-Spin Energy      =      -0.1301275188083028 [Eh]
	 SCS Opposite-Spin Energy  =      -1.4226855888073173 [Eh]
	 SCS Correlation Energy    =      -1.5528131076156200 [Eh]
	 SCS Total Energy          =    -704.6905902151421515 [Eh]
	-----------------------------------------------------------

  Dipole Moment: [D]
     X:    -3.0970      Y:     3.2115      Z:     0.0007     Total:     4.4616

*** Psi4 exiting successfully. Buy a developer a beer!
