                               Psi4 1.4a3.dev225

  ==> Input File <==

--------------------------------------------------------------------------
#psi4
#
memory 32 gb

molecule  {
0 1
  S       -0.9837490    -1.1570500    -0.0000620
  O        1.9818930    -1.3277110    -0.0003480
  C        0.1471630     0.1465200    -0.0000040
  C       -0.4892137     1.3572316     0.0002217
  C        1.5865110    -0.1585480    -0.0001750
  C       -1.9046620     1.2489520     0.0003500
  C        2.5479920     1.0088850    -0.0001140
  C       -2.3081880    -0.0718450     0.0002130
  H        0.0283220     2.3240690     0.0003010
  H       -2.5968940     2.0844950     0.0005320
  H        2.3937560     1.6342750    -0.8845650
  H        3.5659410     0.6177950    -0.0003540
  H        2.3940470     1.6339130     0.8846460
  H       -3.3221070    -0.4534470     0.0002580
units angstrom
no_reorient  #important for SAPT in psi4, default
symmetry c1  #important for SAPT in psi4, default
}

set PROPERTIES_ORIGIN ["COM"]
properties('MP2/aug-cc-pvtz', properties = ['dipole'])
--------------------------------------------------------------------------

    Molecular point group: c1
  Charge       = 0
  Multiplicity = 1
  Basis Set: AUG-CC-PVTZ
    Blend: AUG-CC-PVTZ
  Basis Set: (AUG-CC-PVTZ AUX)
    Blend: AUG-CC-PVTZ-JKFIT

    Orbital Energies [Eh]
    ---------------------

    Doubly Occupied:

       1A    -91.996143     2A    -20.547480     3A    -11.345802
       4A    -11.284255     5A    -11.272765     6A    -11.266533
       7A    -11.253053     8A    -11.241258     9A     -8.996083
      10A     -6.676929    11A     -6.676351    12A     -6.675671
      13A     -1.378346    14A     -1.189442    15A     -1.045423
      16A     -1.002065    17A     -0.985015    18A     -0.840341
      19A     -0.773688    20A     -0.726901    21A     -0.694343
      22A     -0.625199    23A     -0.619323    24A     -0.610788
      25A     -0.571136    26A     -0.559169    27A     -0.542824
      28A     -0.531579    29A     -0.494255    30A     -0.488577
      31A     -0.426683    32A     -0.359637    33A     -0.340440

  @DF-RHF Final Energy:  -703.20545877313282

   => Energetics <=

    Nuclear Repulsion Energy =            412.5966662403719738
    One-Electron Energy =               -1783.5292561334574657
    Two-Electron Energy =                 667.7271311199527872
    Total Energy =                       -703.2054587731328184
  Basis Set: (AUG-CC-PVTZ AUX)
    Blend: AUG-CC-PVTZ-RI
    Molecular point group: c1

    Geometry (in Angstrom), charge = 0, multiplicity = 1:

       Center              X                  Y                   Z               Mass
    ------------   -----------------  -----------------  -----------------  -----------------
         S           -0.965380257333    -1.093937099714    -0.000055463439    31.972071174400
         O            2.000261742667    -1.264598099714    -0.000341463439    15.994914619570
         C            0.165531742667     0.209632900286     0.000002536561    12.000000000000
         C           -0.470844957333     1.420344500286     0.000228236561    12.000000000000
         C            1.604879742667    -0.095435099714    -0.000168463439    12.000000000000
         C           -1.886293257333     1.312064900286     0.000356536561    12.000000000000
         C            2.566360742667     1.071997900286    -0.000107463439    12.000000000000
         C           -2.289819257333    -0.008732099714     0.000219536561    12.000000000000
         H            0.046690742667     2.387181900286     0.000307536561     1.007825032230
         H           -2.578525257333     2.147607900286     0.000538536561     1.007825032230
         H            2.412124742667     1.697387900286    -0.884558463439     1.007825032230
         H            3.584309742667     0.680907900286    -0.000347463439     1.007825032230
         H            2.412415742667     1.697025900286     0.884652536561     1.007825032230
         H           -3.303738257333    -0.390334099714     0.000264536561     1.007825032230

  Basis Set: AUG-CC-PVTZ
    Blend: AUG-CC-PVTZ
  Basis Set: (AUG-CC-PVTZ AUX)
    Blend: AUG-CC-PVTZ-JKFIT
	 Reference Energy          =    -703.2054587731328184 [Eh]
	 Singles Energy            =      -0.0000000000000000 [Eh]
	 Same-Spin Energy          =      -0.3844689751391447 [Eh]
	 Opposite-Spin Energy      =      -1.1750778990165114 [Eh]
	 Correlation Energy        =      -1.5595468741556562 [Eh]
	 Total Energy              =    -704.7650056472884899 [Eh]

	 ================> DF-SCS-MP2 Energies <==================
	-----------------------------------------------------------
	 SCS Same-Spin Scale       =       0.3333333333333333 [-]
	 SCS Opposite-Spin Scale   =       1.2000000000000000 [-]
	 SCS Same-Spin Energy      =      -0.1281563250463816 [Eh]
	 SCS Opposite-Spin Energy  =      -1.4100934788198136 [Eh]
	 SCS Correlation Energy    =      -1.5382498038661951 [Eh]
	 SCS Total Energy          =    -704.7437085769989835 [Eh]
	-----------------------------------------------------------

  Dipole Moment: [D]
     X:    -1.5905      Y:     3.0693      Z:     0.0005     Total:     3.4569

*** Psi4 exiting successfully. Buy a developer a beer!
