                               Psi4 1.3.2 release

  ==> Input File <==

--------------------------------------------------------------------------
#psi4
#
memory 32 gb

molecule  {
0 1
  S       -0.9837490    -1.1570500    -0.0000620
  O        1.9818930    -1.3277110    -0.0003480
  C        0.1471630     0.1465200    -0.0000040
  C       -0.4112563     1.4169831     0.0002231
  C        1.5865110    -0.1585480    -0.0001750
  C       -1.9046620     1.2489520     0.0003500
  C        2.5479920     1.0088850    -0.0001140
  C       -2.3081880    -0.0718450     0.0002130
  H        0.0283220     2.3240690     0.0003010
  H       -2.5968940     2.0844950     0.0005320
  H        2.3937560     1.6342750    -0.8845650
  H        3.5659410     0.6177950    -0.0003540
  H        2.3940470     1.6339130     0.8846460
  H       -3.3221070    -0.4534470     0.0002580
units angstrom
no_reorient  #important for SAPT in psi4, default
symmetry c1  #important for SAPT in psi4, default
}

set PROPERTIES_ORIGIN ["COM"]
properties('MP2/aug-cc-pvtz', properties = ['dipole'])
--------------------------------------------------------------------------

    Molecular point group: c1
  Charge       = 0
  Multiplicity = 1
  Basis Set: AUG-CC-PVTZ
    Blend: AUG-CC-PVTZ
  Basis Set: (AUG-CC-PVTZ AUX)
    Blend: AUG-CC-PVTZ-JKFIT

    Orbital Energies [Eh]
    ---------------------

    Doubly Occupied:

       1A    -91.996336     2A    -20.547589     3A    -11.344098
       4A    -11.282773     5A    -11.279151     6A    -11.269947
       7A    -11.260423     8A    -11.241502     9A     -8.996310
      10A     -6.677231    11A     -6.676548    12A     -6.675846
      13A     -1.378282    14A     -1.178563    15A     -1.046718
      16A     -0.995714    17A     -0.984882    18A     -0.842022
      19A     -0.775596    20A     -0.736541    21A     -0.692270
      22A     -0.625465    23A     -0.617187    24A     -0.610714
      25A     -0.576690    26A     -0.553581    27A     -0.537787
      28A     -0.532442    29A     -0.492173    30A     -0.491645
      31A     -0.425143    32A     -0.354794    33A     -0.341779

  @DF-RHF Final Energy:  -703.19451012337788

   => Energetics <=

    Nuclear Repulsion Energy =            411.2549107725827184
    One-Electron Energy =               -1780.8233532031067625
    Two-Electron Energy =                 666.3739323071462195
    Total Energy =                       -703.1945101233778814
  Basis Set: (AUG-CC-PVTZ AUX)
    Blend: AUG-CC-PVTZ-RI
    Molecular point group: c1

    Geometry (in Angstrom), charge = 0, multiplicity = 1:

       Center              X                  Y                   Z               Mass
    ------------   -----------------  -----------------  -----------------  -----------------
         S           -0.972803950535    -1.099627089432    -0.000055596757    31.972071174400
         O            1.992838049465    -1.270288089432    -0.000341596757    15.994914619570
         C            0.158108049465     0.203942910568     0.000002403243    12.000000000000
         C           -0.400311250535     1.474406010568     0.000229503243    12.000000000000
         C            1.597456049465    -0.101125089432    -0.000168596757    12.000000000000
         C           -1.893716950535     1.306374910568     0.000356403243    12.000000000000
         C            2.558937049465     1.066307910568    -0.000107596757    12.000000000000
         C           -2.297242950535    -0.014422089432     0.000219403243    12.000000000000
         H            0.039267049465     2.381491910568     0.000307403243     1.007825032230
         H           -2.585948950535     2.141917910568     0.000538403243     1.007825032230
         H            2.404701049465     1.691697910568    -0.884558596757     1.007825032230
         H            3.576886049465     0.675217910568    -0.000347596757     1.007825032230
         H            2.404992049465     1.691335910568     0.884652403243     1.007825032230
         H           -3.311161950535    -0.396024089432     0.000264403243     1.007825032230

  Basis Set: AUG-CC-PVTZ
    Blend: AUG-CC-PVTZ
  Basis Set: (AUG-CC-PVTZ AUX)
    Blend: AUG-CC-PVTZ-JKFIT
	 Reference Energy          =    -703.1945101233778814 [Eh]
	 Singles Energy            =      -0.0000000000000000 [Eh]
	 Same-Spin Energy          =      -0.3835218531828488 [Eh]
	 Opposite-Spin Energy      =      -1.1754003426370538 [Eh]
	 Correlation Energy        =      -1.5589221958199027 [Eh]
	 Total Energy              =    -704.7534323191978274 [Eh]

	 ================> DF-SCS-MP2 Energies <==================
	-----------------------------------------------------------
	 SCS Same-Spin Scale       =       0.3333333333333333 [-]
	 SCS Opposite-Spin Scale   =       1.2000000000000000 [-]
	 SCS Same-Spin Energy      =      -0.1278406177276163 [Eh]
	 SCS Opposite-Spin Energy  =      -1.4104804111644647 [Eh]
	 SCS Correlation Energy    =      -1.5383210288920810 [Eh]
	 SCS Total Energy          =    -704.7328311522699096 [Eh]
	-----------------------------------------------------------

  Dipole Moment: [D]
     X:    -1.5704      Y:     3.0429      Z:     0.0005     Total:     3.4242

*** Psi4 exiting successfully. Buy a developer a beer!
