                               Psi4 1.3.2 release

  ==> Input File <==

--------------------------------------------------------------------------
#psi4
#
memory 32 gb

molecule  {
0 1
  S       -1.0063272    -1.1371143    -0.0000574
  O        1.9818930    -1.3277110    -0.0003480
  C        0.1471630     0.1465200    -0.0000040
  C       -0.4985190     1.3749350     0.0002250
  C        1.5865110    -0.1585480    -0.0001750
  C       -1.9046620     1.2489520     0.0003500
  C        2.5479920     1.0088850    -0.0001140
  C       -2.3081880    -0.0718450     0.0002130
  H        0.0283220     2.3240690     0.0003010
  H       -2.5968940     2.0844950     0.0005320
  H        2.3937560     1.6342750    -0.8845650
  H        3.5659410     0.6177950    -0.0003540
  H        2.3940470     1.6339130     0.8846460
  H       -3.3221070    -0.4534470     0.0002580
units angstrom
no_reorient  #important for SAPT in psi4, default
symmetry c1  #important for SAPT in psi4, default
}

set PROPERTIES_ORIGIN ["COM"]
properties('MP2/aug-cc-pvtz', properties = ['dipole'])
--------------------------------------------------------------------------

    Molecular point group: c1
  Charge       = 0
  Multiplicity = 1
  Basis Set: AUG-CC-PVTZ
    Blend: AUG-CC-PVTZ
  Basis Set: (AUG-CC-PVTZ AUX)
    Blend: AUG-CC-PVTZ-JKFIT

    Orbital Energies [Eh]
    ---------------------

    Doubly Occupied:

       1A    -91.997151     2A    -20.546295     3A    -11.345501
       4A    -11.282334     5A    -11.273768     6A    -11.266878
       7A    -11.251633     8A    -11.241106     9A     -8.997666
      10A     -6.678554    11A     -6.677952    12A     -6.677292
      13A     -1.377298    14A     -1.191926    15A     -1.045403
      16A     -1.005143    17A     -0.984406    18A     -0.840473
      19A     -0.773309    20A     -0.728262    21A     -0.694319
      22A     -0.623646    23A     -0.619599    24A     -0.610329
      25A     -0.576033    26A     -0.557814    27A     -0.543939
      28A     -0.534037    29A     -0.494794    30A     -0.488070
      31A     -0.426197    32A     -0.360339    33A     -0.338366

  @DF-RHF Final Energy:  -703.20490666908529

   => Energetics <=

    Nuclear Repulsion Energy =            412.8676262450177887
    One-Electron Energy =               -1784.0454026200966382
    Two-Electron Energy =                 667.9728697059935030
    Total Energy =                       -703.2049066690852896
  Basis Set: (AUG-CC-PVTZ AUX)
    Blend: AUG-CC-PVTZ-RI
    Molecular point group: c1

    Geometry (in Angstrom), charge = 0, multiplicity = 1:

       Center              X                  Y                   Z               Mass
    ------------   -----------------  -----------------  -----------------  -----------------
         S           -0.981343828476    -1.080745307939    -0.000052344795    31.972071174400
         O            2.006876371524    -1.271342007939    -0.000342944795    15.994914619570
         C            0.172146371524     0.202888992061     0.000001055205    12.000000000000
         C           -0.473535628476     1.431303992061     0.000230055205    12.000000000000
         C            1.611494371524    -0.102179007939    -0.000169944795    12.000000000000
         C           -1.879678628476     1.305320992061     0.000355055205    12.000000000000
         C            2.572975371524     1.065253992061    -0.000108944795    12.000000000000
         C           -2.283204628476    -0.015476007939     0.000218055205    12.000000000000
         H            0.053305371524     2.380437992061     0.000306055205     1.007825032230
         H           -2.571910628476     2.140863992061     0.000537055205     1.007825032230
         H            2.418739371524     1.690643992061    -0.884559944795     1.007825032230
         H            3.590924371524     0.674163992061    -0.000348944795     1.007825032230
         H            2.419030371524     1.690281992061     0.884651055205     1.007825032230
         H           -3.297123628476    -0.397078007939     0.000263055205     1.007825032230

  Basis Set: AUG-CC-PVTZ
    Blend: AUG-CC-PVTZ
  Basis Set: (AUG-CC-PVTZ AUX)
    Blend: AUG-CC-PVTZ-JKFIT
	 Reference Energy          =    -703.2049066690852896 [Eh]
	 Singles Energy            =      -0.0000000000000000 [Eh]
	 Same-Spin Energy          =      -0.3851122140760465 [Eh]
	 Opposite-Spin Energy      =      -1.1752148166293450 [Eh]
	 Correlation Energy        =      -1.5603270307053916 [Eh]
	 Total Energy              =    -704.7652336997906559 [Eh]

	 ================> DF-SCS-MP2 Energies <==================
	-----------------------------------------------------------
	 SCS Same-Spin Scale       =       0.3333333333333333 [-]
	 SCS Opposite-Spin Scale   =       1.2000000000000000 [-]
	 SCS Same-Spin Energy      =      -0.1283707380253488 [Eh]
	 SCS Opposite-Spin Energy  =      -1.4102577799552141 [Eh]
	 SCS Correlation Energy    =      -1.5386285179805630 [Eh]
	 SCS Total Energy          =    -704.7435351870658451 [Eh]
	-----------------------------------------------------------

  Dipole Moment: [D]
     X:    -1.6310      Y:     3.0331      Z:     0.0005     Total:     3.4438

*** Psi4 exiting successfully. Buy a developer a beer!
