                               Psi4 1.3.2 release

  ==> Input File <==

--------------------------------------------------------------------------
#psi4
#
memory 32 gb

molecule  {
0 1
  S       -0.9837490    -1.1570500    -0.0000620
  O        2.1019379    -1.2799775    -0.0003538
  C        0.1471630     0.1465200    -0.0000040
  C       -0.4985190     1.3749350     0.0002250
  C        1.5865110    -0.1585480    -0.0001750
  C       -1.9046620     1.2489520     0.0003500
  C        2.5479920     1.0088850    -0.0001140
  C       -2.3081880    -0.0718450     0.0002130
  H        0.0283220     2.3240690     0.0003010
  H       -2.5968940     2.0844950     0.0005320
  H        2.3937560     1.6342750    -0.8845650
  H        3.5659410     0.6177950    -0.0003540
  H        2.3940470     1.6339130     0.8846460
  H       -3.3221070    -0.4534470     0.0002580
units angstrom
no_reorient  #important for SAPT in psi4, default
symmetry c1  #important for SAPT in psi4, default
}

set PROPERTIES_ORIGIN ["COM"]
properties('MP2/aug-cc-pvtz', properties = ['dipole'])
--------------------------------------------------------------------------

    Molecular point group: c1
  Charge       = 0
  Multiplicity = 1
  Basis Set: AUG-CC-PVTZ
    Blend: AUG-CC-PVTZ
  Basis Set: (AUG-CC-PVTZ AUX)
    Blend: AUG-CC-PVTZ-JKFIT

    Orbital Energies [Eh]
    ---------------------

    Doubly Occupied:

       1A    -92.001156     2A    -20.545353     3A    -11.344010
       4A    -11.288233     5A    -11.279490     6A    -11.271548
       7A    -11.256033     8A    -11.233905     9A     -9.000987
      10A     -6.681829    11A     -6.681250    12A     -6.680607
      13A     -1.376182    14A     -1.191734    15A     -1.043241
      16A     -1.007721    17A     -0.981443    18A     -0.842900
      19A     -0.776360    20A     -0.730418    21A     -0.692987
      22A     -0.623429    23A     -0.616544    24A     -0.607275
      25A     -0.578950    26A     -0.557194    27A     -0.542733
      28A     -0.531938    29A     -0.492400    30A     -0.492314
      31A     -0.422167    32A     -0.363144    33A     -0.342284

  @DF-RHF Final Energy:  -703.20201629682037

   => Energetics <=

    Nuclear Repulsion Energy =            411.2201888265003049
    One-Electron Energy =               -1780.6888915784315941
    Two-Electron Energy =                 666.2666864551108574
    Total Energy =                       -703.2020162968203749
  Basis Set: (AUG-CC-PVTZ AUX)
    Blend: AUG-CC-PVTZ-RI
    Molecular point group: c1

    Geometry (in Angstrom), charge = 0, multiplicity = 1:

       Center              X                  Y                   Z               Mass
    ------------   -----------------  -----------------  -----------------  -----------------
         S           -0.979731402798    -1.101681751521    -0.000055041497    31.972071174400
         O            2.105955497202    -1.224609251521    -0.000346841497    15.994914619570
         C            0.151180597202     0.201888248479     0.000002958503    12.000000000000
         C           -0.494501402798     1.430303248479     0.000231958503    12.000000000000
         C            1.590528597202    -0.103179751521    -0.000168041497    12.000000000000
         C           -1.900644402798     1.304320248479     0.000356958503    12.000000000000
         C            2.552009597202     1.064253248479    -0.000107041497    12.000000000000
         C           -2.304170402798    -0.016476751521     0.000219958503    12.000000000000
         H            0.032339597202     2.379437248479     0.000307958503     1.007825032230
         H           -2.592876402798     2.139863248479     0.000538958503     1.007825032230
         H            2.397773597202     1.689643248479    -0.884558041497     1.007825032230
         H            3.569958597202     0.673163248479    -0.000347041497     1.007825032230
         H            2.398064597202     1.689281248479     0.884652958503     1.007825032230
         H           -3.318089402798    -0.398078751521     0.000264958503     1.007825032230

  Basis Set: AUG-CC-PVTZ
    Blend: AUG-CC-PVTZ
  Basis Set: (AUG-CC-PVTZ AUX)
    Blend: AUG-CC-PVTZ-JKFIT
	 Reference Energy          =    -703.2020162968203749 [Eh]
	 Singles Energy            =      -0.0000000000000000 [Eh]
	 Same-Spin Energy          =      -0.3849729036568059 [Eh]
	 Opposite-Spin Energy      =      -1.1757741277686109 [Eh]
	 Correlation Energy        =      -1.5607470314254168 [Eh]
	 Total Energy              =    -704.7627633282457964 [Eh]

	 ================> DF-SCS-MP2 Energies <==================
	-----------------------------------------------------------
	 SCS Same-Spin Scale       =       0.3333333333333333 [-]
	 SCS Opposite-Spin Scale   =       1.2000000000000000 [-]
	 SCS Same-Spin Energy      =      -0.1283243012189353 [Eh]
	 SCS Opposite-Spin Energy  =      -1.4109289533223330 [Eh]
	 SCS Correlation Energy    =      -1.5392532545412683 [Eh]
	 SCS Total Energy          =    -704.7412695513615972 [Eh]
	-----------------------------------------------------------

  Dipole Moment: [D]
     X:    -2.0376      Y:     2.9439      Z:     0.0006     Total:     3.5803

*** Psi4 exiting successfully. Buy a developer a beer!
