                               Psi4 1.3.2 release

  ==> Input File <==

--------------------------------------------------------------------------
#psi4
#
memory 32 gb

molecule  {
0 1
  S       -0.9837490    -1.1570500    -0.0000620
  O        1.9818930    -1.3277110    -0.0003480
  C        0.0047076     0.2575914     0.0000248
  C       -0.4985190     1.3749350     0.0002250
  C        1.5865110    -0.1585480    -0.0001750
  C       -1.9046620     1.2489520     0.0003500
  C        2.5479920     1.0088850    -0.0001140
  C       -2.3081880    -0.0718450     0.0002130
  H        0.0283220     2.3240690     0.0003010
  H       -2.5968940     2.0844950     0.0005320
  H        2.3937560     1.6342750    -0.8845650
  H        3.5659410     0.6177950    -0.0003540
  H        2.3940470     1.6339130     0.8846460
  H       -3.3221070    -0.4534470     0.0002580
units angstrom
no_reorient  #important for SAPT in psi4, default
symmetry c1  #important for SAPT in psi4, default
}

set PROPERTIES_ORIGIN ["COM"]
properties('MP2/aug-cc-pvtz', properties = ['dipole'])
--------------------------------------------------------------------------

    Molecular point group: c1
  Charge       = 0
  Multiplicity = 1
  Basis Set: AUG-CC-PVTZ
    Blend: AUG-CC-PVTZ
  Basis Set: (AUG-CC-PVTZ AUX)
    Blend: AUG-CC-PVTZ-JKFIT

    Orbital Energies [Eh]
    ---------------------

    Doubly Occupied:

       1A    -91.988491     2A    -20.560221     3A    -11.359198
       4A    -11.273544     5A    -11.266463     6A    -11.246774
       7A    -11.243900     8A    -11.237685     9A     -8.989175
      10A     -6.670088    11A     -6.669302    12A     -6.668544
      13A     -1.383012    14A     -1.208653    15A     -1.040704
      16A     -1.009470    17A     -0.982975    18A     -0.806910
      19A     -0.779775    20A     -0.735878    21A     -0.695437
      22A     -0.623504    23A     -0.613212    24A     -0.610824
      25A     -0.571379    26A     -0.563348    27A     -0.551375
      28A     -0.522004    29A     -0.500121    30A     -0.497954
      31A     -0.413452    32A     -0.373704    33A     -0.337472

  @DF-RHF Final Energy:  -703.16513484807285

   => Energetics <=

    Nuclear Repulsion Energy =            412.9100398922568047
    One-Electron Energy =               -1784.1612558019292010
    Two-Electron Energy =                 668.0860810615994296
    Total Energy =                       -703.1651348480728529
  Basis Set: (AUG-CC-PVTZ AUX)
    Blend: AUG-CC-PVTZ-RI
    Molecular point group: c1

    Geometry (in Angstrom), charge = 0, multiplicity = 1:

       Center              X                  Y                   Z               Mass
    ------------   -----------------  -----------------  -----------------  -----------------
         S           -0.950928455747    -1.106200010065    -0.000058520243    31.972071174400
         O            2.014713544253    -1.276861010065    -0.000344520243    15.994914619570
         C            0.037528144253     0.308441389935     0.000028279757    12.000000000000
         C           -0.465698455747     1.425784989935     0.000228479757    12.000000000000
         C            1.619331544253    -0.107698010065    -0.000171520243    12.000000000000
         C           -1.871841455747     1.299801989935     0.000353479757    12.000000000000
         C            2.580812544253     1.059734989935    -0.000110520243    12.000000000000
         C           -2.275367455747    -0.020995010065     0.000216479757    12.000000000000
         H            0.061142544253     2.374918989935     0.000304479757     1.007825032230
         H           -2.564073455747     2.135344989935     0.000535479757     1.007825032230
         H            2.426576544253     1.685124989935    -0.884561520243     1.007825032230
         H            3.598761544253     0.668644989935    -0.000350520243     1.007825032230
         H            2.426867544253     1.684762989935     0.884649479757     1.007825032230
         H           -3.289286455747    -0.402597010065     0.000261479757     1.007825032230

  Basis Set: AUG-CC-PVTZ
    Blend: AUG-CC-PVTZ
  Basis Set: (AUG-CC-PVTZ AUX)
    Blend: AUG-CC-PVTZ-JKFIT
	 Reference Energy          =    -703.1651348480728529 [Eh]
	 Singles Energy            =      -0.0000000000000000 [Eh]
	 Same-Spin Energy          =      -0.3827452543565887 [Eh]
	 Opposite-Spin Energy      =      -1.1740758938661782 [Eh]
	 Correlation Energy        =      -1.5568211482227670 [Eh]
	 Total Energy              =    -704.7219559962956055 [Eh]

	 ================> DF-SCS-MP2 Energies <==================
	-----------------------------------------------------------
	 SCS Same-Spin Scale       =       0.3333333333333333 [-]
	 SCS Opposite-Spin Scale   =       1.2000000000000000 [-]
	 SCS Same-Spin Energy      =      -0.1275817514521962 [Eh]
	 SCS Opposite-Spin Energy  =      -1.4088910726394137 [Eh]
	 SCS Correlation Energy    =      -1.5364728240916099 [Eh]
	 SCS Total Energy          =    -704.7016076721644140 [Eh]
	-----------------------------------------------------------

  Dipole Moment: [D]
     X:    -0.9364      Y:     2.9851      Z:     0.0005     Total:     3.1285

*** Psi4 exiting successfully. Buy a developer a beer!
