                               Psi4 1.3.2 release

  ==> Input File <==

--------------------------------------------------------------------------
#psi4
#
memory 32 gb

molecule  {
0 1
  S       -0.9837490    -1.1570500    -0.0000620
  O        2.0224553    -1.3132001    -0.0003501
  C        0.1471630     0.1465200    -0.0000040
  C       -0.4985190     1.3749350     0.0002250
  C        1.5865110    -0.1585480    -0.0001750
  C       -1.9046620     1.2489520     0.0003500
  C        2.5479920     1.0088850    -0.0001140
  C       -2.3081880    -0.0718450     0.0002130
  H        0.0283220     2.3240690     0.0003010
  H       -2.5968940     2.0844950     0.0005320
  H        2.3937560     1.6342750    -0.8845650
  H        3.5659410     0.6177950    -0.0003540
  H        2.3940470     1.6339130     0.8846460
  H       -3.3221070    -0.4534470     0.0002580
units angstrom
no_reorient  #important for SAPT in psi4, default
symmetry c1  #important for SAPT in psi4, default
}

set PROPERTIES_ORIGIN ["COM"]
properties('MP2/aug-cc-pvtz', properties = ['dipole'])
--------------------------------------------------------------------------

    Molecular point group: c1
  Charge       = 0
  Multiplicity = 1
  Basis Set: AUG-CC-PVTZ
    Blend: AUG-CC-PVTZ
  Basis Set: (AUG-CC-PVTZ AUX)
    Blend: AUG-CC-PVTZ-JKFIT

    Orbital Energies [Eh]
    ---------------------

    Doubly Occupied:

       1A    -91.998890     2A    -20.546311     3A    -11.344883
       4A    -11.285833     5A    -11.276200     6A    -11.268795
       7A    -11.253950     8A    -11.238652     9A     -8.998687
      10A     -6.679524    11A     -6.678946    12A     -6.678301
      13A     -1.377094    14A     -1.189222    15A     -1.043828
      16A     -1.005390    17A     -0.982836    18A     -0.841318
      19A     -0.774279    20A     -0.728601    21A     -0.693726
      22A     -0.623305    23A     -0.618133    24A     -0.609246
      25A     -0.577000    26A     -0.557602    27A     -0.542209
      28A     -0.531333    29A     -0.493586    30A     -0.490356
      31A     -0.425258    32A     -0.361125    33A     -0.339653

  @DF-RHF Final Energy:  -703.20464061897792

   => Energetics <=

    Nuclear Repulsion Energy =            411.8817949217587966
    One-Electron Energy =               -1782.0647211756822799
    Two-Electron Energy =                 666.9782856349456779
    Total Energy =                       -703.2046406189779191
  Basis Set: (AUG-CC-PVTZ AUX)
    Blend: AUG-CC-PVTZ-RI
    Molecular point group: c1

    Geometry (in Angstrom), charge = 0, multiplicity = 1:

       Center              X                  Y                   Z               Mass
    ------------   -----------------  -----------------  -----------------  -----------------
         S           -0.969642697999    -1.097464815939    -0.000055511137    31.972071174400
         O            2.036561602001    -1.253614915939    -0.000343611137    15.994914619570
         C            0.161269302001     0.206105184061     0.000002488863    12.000000000000
         C           -0.484412697999     1.434520184061     0.000231488863    12.000000000000
         C            1.600617302001    -0.098962815939    -0.000168511137    12.000000000000
         C           -1.890555697999     1.308537184061     0.000356488863    12.000000000000
         C            2.562098302001     1.068470184061    -0.000107511137    12.000000000000
         C           -2.294081697999    -0.012259815939     0.000219488863    12.000000000000
         H            0.042428302001     2.383654184061     0.000307488863     1.007825032230
         H           -2.582787697999     2.144080184061     0.000538488863     1.007825032230
         H            2.407862302001     1.693860184061    -0.884558511137     1.007825032230
         H            3.580047302001     0.677380184061    -0.000347511137     1.007825032230
         H            2.408153302001     1.693498184061     0.884652488863     1.007825032230
         H           -3.308000697999    -0.393861815939     0.000264488863     1.007825032230

  Basis Set: AUG-CC-PVTZ
    Blend: AUG-CC-PVTZ
  Basis Set: (AUG-CC-PVTZ AUX)
    Blend: AUG-CC-PVTZ-JKFIT
	 Reference Energy          =    -703.2046406189779191 [Eh]
	 Singles Energy            =      -0.0000000000000000 [Eh]
	 Same-Spin Energy          =      -0.3849154766454498 [Eh]
	 Opposite-Spin Energy      =      -1.1756138624792491 [Eh]
	 Correlation Energy        =      -1.5605293391246988 [Eh]
	 Total Energy              =    -704.7651699581026605 [Eh]

	 ================> DF-SCS-MP2 Energies <==================
	-----------------------------------------------------------
	 SCS Same-Spin Scale       =       0.3333333333333333 [-]
	 SCS Opposite-Spin Scale   =       1.2000000000000000 [-]
	 SCS Same-Spin Energy      =      -0.1283051588818166 [Eh]
	 SCS Opposite-Spin Energy  =      -1.4107366349750989 [Eh]
	 SCS Correlation Energy    =      -1.5390417938569154 [Eh]
	 SCS Total Energy          =    -704.7436824128348007 [Eh]
	-----------------------------------------------------------

  Dipole Moment: [D]
     X:    -1.7571      Y:     3.0178      Z:     0.0006     Total:     3.4920

*** Psi4 exiting successfully. Buy a developer a beer!
