                               Psi4 1.3.2 release

  ==> Input File <==

--------------------------------------------------------------------------
#psi4
#
memory 32 gb

molecule  {
0 1
  S       -0.9837490    -1.1570500    -0.0000620
  O        1.9818930    -1.3277110    -0.0003480
  C        0.1869362     0.2953016     0.0000114
  C       -0.4985190     1.3749350     0.0002250
  C        1.5865110    -0.1585480    -0.0001750
  C       -1.9046620     1.2489520     0.0003500
  C        2.5479920     1.0088850    -0.0001140
  C       -2.3081880    -0.0718450     0.0002130
  H        0.0283220     2.3240690     0.0003010
  H       -2.5968940     2.0844950     0.0005320
  H        2.3937560     1.6342750    -0.8845650
  H        3.5659410     0.6177950    -0.0003540
  H        2.3940470     1.6339130     0.8846460
  H       -3.3221070    -0.4534470     0.0002580
units angstrom
no_reorient  #important for SAPT in psi4, default
symmetry c1  #important for SAPT in psi4, default
}

set PROPERTIES_ORIGIN ["COM"]
properties('MP2/aug-cc-pvtz', properties = ['dipole'])
--------------------------------------------------------------------------

    Molecular point group: c1
  Charge       = 0
  Multiplicity = 1
  Basis Set: AUG-CC-PVTZ
    Blend: AUG-CC-PVTZ
  Basis Set: (AUG-CC-PVTZ AUX)
    Blend: AUG-CC-PVTZ-JKFIT

    Orbital Energies [Eh]
    ---------------------

    Doubly Occupied:

       1A    -91.986744     2A    -20.555915     3A    -11.352697
       4A    -11.287956     5A    -11.275254     6A    -11.261214
       7A    -11.251170     8A    -11.239973     9A     -8.985587
      10A     -6.666441    11A     -6.665528    12A     -6.665048
      13A     -1.382274    14A     -1.190266    15A     -1.057028
      16A     -1.003219    17A     -0.979785    18A     -0.844841
      19A     -0.781291    20A     -0.729939    21A     -0.694845
      22A     -0.627898    23A     -0.625107    24A     -0.613592
      25A     -0.582124    26A     -0.562428    27A     -0.541452
      28A     -0.513151    29A     -0.497514    30A     -0.477103
      31A     -0.420724    32A     -0.375738    33A     -0.336193

  @DF-RHF Final Energy:  -703.18485095057918

   => Energetics <=

    Nuclear Repulsion Energy =            411.3215412315913682
    One-Electron Energy =               -1780.9527106958353215
    Two-Electron Energy =                 666.4463185136648917
    Total Energy =                       -703.1848509505791753
  Basis Set: (AUG-CC-PVTZ AUX)
    Blend: AUG-CC-PVTZ-RI
    Molecular point group: c1

    Geometry (in Angstrom), charge = 0, multiplicity = 1:

       Center              X                  Y                   Z               Mass
    ------------   -----------------  -----------------  -----------------  -----------------
         S           -0.968281641193    -1.109791060503    -0.000057244194    31.972071174400
         O            1.997360358807    -1.280452060503    -0.000343244194    15.994914619570
         C            0.202403558807     0.342560539497     0.000016155806    12.000000000000
         C           -0.483051641193     1.422193939497     0.000229755806    12.000000000000
         C            1.601978358807    -0.111289060503    -0.000170244194    12.000000000000
         C           -1.889194641193     1.296210939497     0.000354755806    12.000000000000
         C            2.563459358807     1.056143939497    -0.000109244194    12.000000000000
         C           -2.292720641193    -0.024586060503     0.000217755806    12.000000000000
         H            0.043789358807     2.371327939497     0.000305755806     1.007825032230
         H           -2.581426641193     2.131753939497     0.000536755806     1.007825032230
         H            2.409223358807     1.681533939497    -0.884560244194     1.007825032230
         H            3.581408358807     0.665053939497    -0.000349244194     1.007825032230
         H            2.409514358807     1.681171939497     0.884650755806     1.007825032230
         H           -3.306639641193    -0.406188060503     0.000262755806     1.007825032230

  Basis Set: AUG-CC-PVTZ
    Blend: AUG-CC-PVTZ
  Basis Set: (AUG-CC-PVTZ AUX)
    Blend: AUG-CC-PVTZ-JKFIT
	 Reference Energy          =    -703.1848509505791753 [Eh]
	 Singles Energy            =      -0.0000000000000000 [Eh]
	 Same-Spin Energy          =      -0.3835889784206927 [Eh]
	 Opposite-Spin Energy      =      -1.1753410152611448 [Eh]
	 Correlation Energy        =      -1.5589299936818375 [Eh]
	 Total Energy              =    -704.7437809442610614 [Eh]

	 ================> DF-SCS-MP2 Energies <==================
	-----------------------------------------------------------
	 SCS Same-Spin Scale       =       0.3333333333333333 [-]
	 SCS Opposite-Spin Scale   =       1.2000000000000000 [-]
	 SCS Same-Spin Energy      =      -0.1278629928068976 [Eh]
	 SCS Opposite-Spin Energy  =      -1.4104092183133736 [Eh]
	 SCS Correlation Energy    =      -1.5382722111202711 [Eh]
	 SCS Total Energy          =    -704.7231231616993909 [Eh]
	-----------------------------------------------------------

  Dipole Moment: [D]
     X:    -1.4234      Y:     3.2399      Z:     0.0006     Total:     3.5388

*** Psi4 exiting successfully. Buy a developer a beer!
