                               Psi4 1.4a3.dev225

  ==> Input File <==

--------------------------------------------------------------------------
#psi4
#
memory 32 gb

molecule  {
0 1
  S       -0.9837490    -1.1570500    -0.0000620
  O        1.9818930    -1.3277110    -0.0003480
  C        0.1471630     0.1465200    -0.0000040
  C       -0.4752557     1.3306764     0.0002167
  C        1.5865110    -0.1585480    -0.0001750
  C       -1.9046620     1.2489520     0.0003500
  C        2.5479920     1.0088850    -0.0001140
  C       -2.3081880    -0.0718450     0.0002130
  H        0.0283220     2.3240690     0.0003010
  H       -2.5968940     2.0844950     0.0005320
  H        2.3937560     1.6342750    -0.8845650
  H        3.5659410     0.6177950    -0.0003540
  H        2.3940470     1.6339130     0.8846460
  H       -3.3221070    -0.4534470     0.0002580
units angstrom
no_reorient  #important for SAPT in psi4, default
symmetry c1  #important for SAPT in psi4, default
}

set PROPERTIES_ORIGIN ["COM"]
properties('MP2/aug-cc-pvtz', properties = ['dipole'])
--------------------------------------------------------------------------

    Molecular point group: c1
  Charge       = 0
  Multiplicity = 1
  Basis Set: AUG-CC-PVTZ
    Blend: AUG-CC-PVTZ
  Basis Set: (AUG-CC-PVTZ AUX)
    Blend: AUG-CC-PVTZ-JKFIT

    Orbital Energies [Eh]
    ---------------------

    Doubly Occupied:

       1A    -91.993885     2A    -20.548599     3A    -11.346465
       4A    -11.283786     5A    -11.269947     6A    -11.265194
       7A    -11.253417     8A    -11.241618     9A     -8.994059
      10A     -6.674921    11A     -6.674346    12A     -6.673613
      13A     -1.379234    14A     -1.192024    15A     -1.047403
      16A     -0.998896    17A     -0.987634    18A     -0.840171
      19A     -0.774820    20A     -0.725321    21A     -0.694621
      22A     -0.627514    23A     -0.620548    24A     -0.611554
      25A     -0.565395    26A     -0.559251    27A     -0.544239
      28A     -0.532516    29A     -0.494530    30A     -0.487319
      31A     -0.427129    32A     -0.359922    33A     -0.342999

  @DF-RHF Final Energy:  -703.20420866256950

   => Energetics <=

    Nuclear Repulsion Energy =            413.1174149487679870
    One-Electron Energy =               -1784.5774709171862469
    Two-Electron Energy =                 668.2558473058486470
    Total Energy =                       -703.2042086625694992
  Basis Set: (AUG-CC-PVTZ AUX)
    Blend: AUG-CC-PVTZ-RI
    Molecular point group: c1

    Geometry (in Angstrom), charge = 0, multiplicity = 1:

       Center              X                  Y                   Z               Mass
    ------------   -----------------  -----------------  -----------------  -----------------
         S           -0.966709443654    -1.091408312739    -0.000054987301    31.972071174400
         O            1.998932556346    -1.262069312739    -0.000340987301    15.994914619570
         C            0.164202556346     0.212161687261     0.000003012699    12.000000000000
         C           -0.458216143654     1.396318087261     0.000223712699    12.000000000000
         C            1.603550556346    -0.092906312739    -0.000167987301    12.000000000000
         C           -1.887622443654     1.314593687261     0.000357012699    12.000000000000
         C            2.565031556346     1.074526687261    -0.000106987301    12.000000000000
         C           -2.291148443654    -0.006203312739     0.000220012699    12.000000000000
         H            0.045361556346     2.389710687261     0.000308012699     1.007825032230
         H           -2.579854443654     2.150136687261     0.000539012699     1.007825032230
         H            2.410795556346     1.699916687261    -0.884557987301     1.007825032230
         H            3.582980556346     0.683436687261    -0.000346987301     1.007825032230
         H            2.411086556346     1.699554687261     0.884653012699     1.007825032230
         H           -3.305067443654    -0.387805312739     0.000265012699     1.007825032230

  Basis Set: AUG-CC-PVTZ
    Blend: AUG-CC-PVTZ
  Basis Set: (AUG-CC-PVTZ AUX)
    Blend: AUG-CC-PVTZ-JKFIT
	 Reference Energy          =    -703.2042086625694992 [Eh]
	 Singles Energy            =      -0.0000000000000000 [Eh]
	 Same-Spin Energy          =      -0.3838245120275795 [Eh]
	 Opposite-Spin Energy      =      -1.1743627893516602 [Eh]
	 Correlation Energy        =      -1.5581873013792396 [Eh]
	 Total Energy              =    -704.7623959639487339 [Eh]

	 ================> DF-SCS-MP2 Energies <==================
	-----------------------------------------------------------
	 SCS Same-Spin Scale       =       0.3333333333333333 [-]
	 SCS Opposite-Spin Scale   =       1.2000000000000000 [-]
	 SCS Same-Spin Energy      =      -0.1279415040091932 [Eh]
	 SCS Opposite-Spin Energy  =      -1.4092353472219921 [Eh]
	 SCS Correlation Energy    =      -1.5371768512311852 [Eh]
	 SCS Total Energy          =    -704.7413855138006511 [Eh]
	-----------------------------------------------------------

  Dipole Moment: [D]
     X:    -1.5567      Y:     3.1004      Z:     0.0005     Total:     3.4693

*** Psi4 exiting successfully. Buy a developer a beer!
