                               Psi4 1.3.2 release

  ==> Input File <==

--------------------------------------------------------------------------
#psi4
#
memory 32 gb

molecule  {
0 1
  S       -0.9837490    -1.1570500    -0.0000620
  O        1.9818930    -1.3277110    -0.0003480
  C        0.1471630     0.1465200    -0.0000040
  C       -0.4985190     1.3749350     0.0002250
  C        1.7821647    -0.2000165    -0.0001982
  C       -1.9046620     1.2489520     0.0003500
  C        2.5479920     1.0088850    -0.0001140
  C       -2.3081880    -0.0718450     0.0002130
  H        0.0283220     2.3240690     0.0003010
  H       -2.5968940     2.0844950     0.0005320
  H        2.3937560     1.6342750    -0.8845650
  H        3.5659410     0.6177950    -0.0003540
  H        2.3940470     1.6339130     0.8846460
  H       -3.3221070    -0.4534470     0.0002580
units angstrom
no_reorient  #important for SAPT in psi4, default
symmetry c1  #important for SAPT in psi4, default
}

set PROPERTIES_ORIGIN ["COM"]
properties('MP2/aug-cc-pvtz', properties = ['dipole'])
--------------------------------------------------------------------------

    Molecular point group: c1
  Charge       = 0
  Multiplicity = 1
  Basis Set: AUG-CC-PVTZ
    Blend: AUG-CC-PVTZ
  Basis Set: (AUG-CC-PVTZ AUX)
    Blend: AUG-CC-PVTZ-JKFIT

    Orbital Energies [Eh]
    ---------------------

    Doubly Occupied:

       1A    -91.983791     2A    -20.570911     3A    -11.357509
       4A    -11.265342     5A    -11.264610     6A    -11.250915
       7A    -11.244561     8A    -11.239868     9A     -8.983727
      10A     -6.664637    11A     -6.664085    12A     -6.663450
      13A     -1.456198    14A     -1.169096    15A     -1.061280
      16A     -0.987512    17A     -0.972628    18A     -0.801651
      19A     -0.756535    20A     -0.727206    21A     -0.707264
      22A     -0.665110    23A     -0.637363    24A     -0.622804
      25A     -0.571680    26A     -0.558483    27A     -0.545634
      28A     -0.522319    29A     -0.515914    30A     -0.475892
      31A     -0.409521    32A     -0.347085    33A     -0.322200

  @DF-RHF Final Energy:  -703.17540154133678

   => Energetics <=

    Nuclear Repulsion Energy =            411.0470935565005561
    One-Electron Energy =               -1780.4714263054872845
    Two-Electron Energy =                 666.2489312076498891
    Total Energy =                       -703.1754015413367824
  Basis Set: (AUG-CC-PVTZ AUX)
    Blend: AUG-CC-PVTZ-RI
    Molecular point group: c1

    Geometry (in Angstrom), charge = 0, multiplicity = 1:

       Center              X                  Y                   Z               Mass
    ------------   -----------------  -----------------  -----------------  -----------------
         S           -0.983125761292    -1.091674007162    -0.000053568410    31.972071174400
         O            1.982516238708    -1.262335007162    -0.000339568410    15.994914619570
         C            0.147786238708     0.211895992838     0.000004431590    12.000000000000
         C           -0.497895761292     1.440310992838     0.000233431590    12.000000000000
         C            1.782787938708    -0.134640507162    -0.000189768410    12.000000000000
         C           -1.904038761292     1.314327992838     0.000358431590    12.000000000000
         C            2.548615238708     1.074260992838    -0.000105568410    12.000000000000
         C           -2.307564761292    -0.006469007162     0.000221431590    12.000000000000
         H            0.028945238708     2.389444992838     0.000309431590     1.007825032230
         H           -2.596270761292     2.149870992838     0.000540431590     1.007825032230
         H            2.394379238708     1.699650992838    -0.884556568410     1.007825032230
         H            3.566564238708     0.683170992838    -0.000345568410     1.007825032230
         H            2.394670238708     1.699288992838     0.884654431590     1.007825032230
         H           -3.321483761292    -0.388071007162     0.000266431590     1.007825032230

  Basis Set: AUG-CC-PVTZ
    Blend: AUG-CC-PVTZ
  Basis Set: (AUG-CC-PVTZ AUX)
    Blend: AUG-CC-PVTZ-JKFIT
	 Reference Energy          =    -703.1754015413367824 [Eh]
	 Singles Energy            =      -0.0000000000000000 [Eh]
	 Same-Spin Energy          =      -0.3833589846206395 [Eh]
	 Opposite-Spin Energy      =      -1.1722049620572481 [Eh]
	 Correlation Energy        =      -1.5555639466778877 [Eh]
	 Total Energy              =    -704.7309654880147036 [Eh]

	 ================> DF-SCS-MP2 Energies <==================
	-----------------------------------------------------------
	 SCS Same-Spin Scale       =       0.3333333333333333 [-]
	 SCS Opposite-Spin Scale   =       1.2000000000000000 [-]
	 SCS Same-Spin Energy      =      -0.1277863282068798 [Eh]
	 SCS Opposite-Spin Energy  =      -1.4066459544686978 [Eh]
	 SCS Correlation Energy    =      -1.5344322826755776 [Eh]
	 SCS Total Energy          =    -704.7098338240123212 [Eh]
	-----------------------------------------------------------

  Dipole Moment: [D]
     X:     0.1834      Y:     2.8070      Z:     0.0004     Total:     2.8130

*** Psi4 exiting successfully. Buy a developer a beer!
