                               Psi4 1.3.2 release

  ==> Input File <==

--------------------------------------------------------------------------
#psi4
#
memory 32 gb

molecule  {
0 1
  S       -0.9837490    -1.1570500    -0.0000620
  O        1.9818930    -1.3277110    -0.0003480
  C        0.1009801     0.1851942     0.0000057
  C       -0.4985190     1.3749350     0.0002250
  C        1.5865110    -0.1585480    -0.0001750
  C       -1.9046620     1.2489520     0.0003500
  C        2.5479920     1.0088850    -0.0001140
  C       -2.3081880    -0.0718450     0.0002130
  H        0.0283220     2.3240690     0.0003010
  H       -2.5968940     2.0844950     0.0005320
  H        2.3937560     1.6342750    -0.8845650
  H        3.5659410     0.6177950    -0.0003540
  H        2.3940470     1.6339130     0.8846460
  H       -3.3221070    -0.4534470     0.0002580
units angstrom
no_reorient  #important for SAPT in psi4, default
symmetry c1  #important for SAPT in psi4, default
}

set PROPERTIES_ORIGIN ["COM"]
properties('MP2/aug-cc-pvtz', properties = ['dipole'])
--------------------------------------------------------------------------

    Molecular point group: c1
  Charge       = 0
  Multiplicity = 1
  Basis Set: AUG-CC-PVTZ
    Blend: AUG-CC-PVTZ
  Basis Set: (AUG-CC-PVTZ AUX)
    Blend: AUG-CC-PVTZ-JKFIT

    Orbital Energies [Eh]
    ---------------------

    Doubly Occupied:

       1A    -91.994150     2A    -20.552305     3A    -11.351536
       4A    -11.280299     5A    -11.272463     6A    -11.257604
       7A    -11.250228     8A    -11.242274     9A     -8.994272
      10A     -6.675139    11A     -6.674486    12A     -6.673805
      13A     -1.380072    14A     -1.193248    15A     -1.041848
      16A     -1.003640    17A     -0.985664    18A     -0.829116
      19A     -0.775274    20A     -0.730565    21A     -0.695059
      22A     -0.623838    23A     -0.616363    24A     -0.610644
      25A     -0.573365    26A     -0.560272    27A     -0.544010
      28A     -0.528225    29A     -0.496240    30A     -0.493210
      31A     -0.424511    32A     -0.362500    33A     -0.339508

  @DF-RHF Final Energy:  -703.20247045647386

   => Energetics <=

    Nuclear Repulsion Energy =            412.3943286323017219
    One-Electron Energy =               -1783.1421336677376530
    Two-Electron Energy =                 667.5453345789620698
    Total Energy =                       -703.2024704564738613
  Basis Set: (AUG-CC-PVTZ AUX)
    Blend: AUG-CC-PVTZ-RI
    Molecular point group: c1

    Geometry (in Angstrom), charge = 0, multiplicity = 1:

       Center              X                  Y                   Z               Mass
    ------------   -----------------  -----------------  -----------------  -----------------
         S           -0.960096251284    -1.099305801157    -0.000056701397    31.972071174400
         O            2.005545748716    -1.269966801157    -0.000342701397    15.994914619570
         C            0.124632848716     0.242938398843     0.000010998603    12.000000000000
         C           -0.474866251284     1.432679198843     0.000230298603    12.000000000000
         C            1.610163748716    -0.100803801157    -0.000169701397    12.000000000000
         C           -1.881009251284     1.306696198843     0.000355298603    12.000000000000
         C            2.571644748716     1.066629198843    -0.000108701397    12.000000000000
         C           -2.284535251284    -0.014100801157     0.000218298603    12.000000000000
         H            0.051974748716     2.381813198843     0.000306298603     1.007825032230
         H           -2.573241251284     2.142239198843     0.000537298603     1.007825032230
         H            2.417408748716     1.692019198843    -0.884559701397     1.007825032230
         H            3.589593748716     0.675539198843    -0.000348701397     1.007825032230
         H            2.417699748716     1.691657198843     0.884651298603     1.007825032230
         H           -3.298454251284    -0.395702801157     0.000263298603     1.007825032230

  Basis Set: AUG-CC-PVTZ
    Blend: AUG-CC-PVTZ
  Basis Set: (AUG-CC-PVTZ AUX)
    Blend: AUG-CC-PVTZ-JKFIT
	 Reference Energy          =    -703.2024704564738613 [Eh]
	 Singles Energy            =      -0.0000000000000000 [Eh]
	 Same-Spin Energy          =      -0.3838906119167558 [Eh]
	 Opposite-Spin Energy      =      -1.1745362748471579 [Eh]
	 Correlation Energy        =      -1.5584268867639137 [Eh]
	 Total Energy              =    -704.7608973432377297 [Eh]

	 ================> DF-SCS-MP2 Energies <==================
	-----------------------------------------------------------
	 SCS Same-Spin Scale       =       0.3333333333333333 [-]
	 SCS Opposite-Spin Scale   =       1.2000000000000000 [-]
	 SCS Same-Spin Energy      =      -0.1279635373055852 [Eh]
	 SCS Opposite-Spin Energy  =      -1.4094435298165895 [Eh]
	 SCS Correlation Energy    =      -1.5374070671221747 [Eh]
	 SCS Total Energy          =    -704.7398775235960784 [Eh]
	-----------------------------------------------------------

  Dipole Moment: [D]
     X:    -1.3743      Y:     3.0216      Z:     0.0005     Total:     3.3195

*** Psi4 exiting successfully. Buy a developer a beer!
