                               Psi4 1.3.2 release

  ==> Input File <==

--------------------------------------------------------------------------
#psi4
#
memory 32 gb

molecule  {
0 1
  S       -0.9837490    -1.1570500    -0.0000620
  O        1.8575162    -1.3626349    -0.0003403
  C        0.1471630     0.1465200    -0.0000040
  C       -0.4985190     1.3749350     0.0002250
  C        1.5865110    -0.1585480    -0.0001750
  C       -1.9046620     1.2489520     0.0003500
  C        2.5479920     1.0088850    -0.0001140
  C       -2.3081880    -0.0718450     0.0002130
  H        0.0283220     2.3240690     0.0003010
  H       -2.5968940     2.0844950     0.0005320
  H        2.3937560     1.6342750    -0.8845650
  H        3.5659410     0.6177950    -0.0003540
  H        2.3940470     1.6339130     0.8846460
  H       -3.3221070    -0.4534470     0.0002580
units angstrom
no_reorient  #important for SAPT in psi4, default
symmetry c1  #important for SAPT in psi4, default
}

set PROPERTIES_ORIGIN ["COM"]
properties('MP2/aug-cc-pvtz', properties = ['dipole'])
--------------------------------------------------------------------------

    Molecular point group: c1
  Charge       = 0
  Multiplicity = 1
  Basis Set: AUG-CC-PVTZ
    Blend: AUG-CC-PVTZ
  Basis Set: (AUG-CC-PVTZ AUX)
    Blend: AUG-CC-PVTZ-JKFIT

    Orbital Energies [Eh]
    ---------------------

    Doubly Occupied:

       1A    -91.993774     2A    -20.547870     3A    -11.346987
       4A    -11.280483     5A    -11.269480     6A    -11.262711
       7A    -11.249326     8A    -11.248072     9A     -8.993518
      10A     -6.674347    11A     -6.673756    12A     -6.673110
      13A     -1.380648    14A     -1.183633    15A     -1.045664
      16A     -1.000195    17A     -0.983946    18A     -0.838174
      19A     -0.769746    20A     -0.724627    21A     -0.695770
      22A     -0.627056    23A     -0.617327    24A     -0.613709
      25A     -0.572667    26A     -0.560353    27A     -0.541514
      28A     -0.528221    29A     -0.495160    30A     -0.485752
      31A     -0.427592    32A     -0.356701    33A     -0.333847

  @DF-RHF Final Energy:  -703.20170687621817

   => Energetics <=

    Nuclear Repulsion Energy =            413.5651525539969384
    One-Electron Energy =               -1785.5422466761626765
    Two-Electron Energy =                 668.7753872459475133
    Total Energy =                       -703.2017068762181680
  Basis Set: (AUG-CC-PVTZ AUX)
    Blend: AUG-CC-PVTZ-RI
    Molecular point group: c1

    Geometry (in Angstrom), charge = 0, multiplicity = 1:

       Center              X                  Y                   Z               Mass
    ------------   -----------------  -----------------  -----------------  -----------------
         S           -0.948707022899    -1.091190070221    -0.000056755049    31.972071174400
         O            1.892558177101    -1.296774970221    -0.000335055049    15.994914619570
         C            0.182204977101     0.212379929779     0.000001244951    12.000000000000
         C           -0.463477022899     1.440794929779     0.000230244951    12.000000000000
         C            1.621552977101    -0.092688070221    -0.000169755049    12.000000000000
         C           -1.869620022899     1.314811929779     0.000355244951    12.000000000000
         C            2.583033977101     1.074744929779    -0.000108755049    12.000000000000
         C           -2.273146022899    -0.005985070221     0.000218244951    12.000000000000
         H            0.063363977101     2.389928929779     0.000306244951     1.007825032230
         H           -2.561852022899     2.150354929779     0.000537244951     1.007825032230
         H            2.428797977101     1.700134929779    -0.884559755049     1.007825032230
         H            3.600982977101     0.683654929779    -0.000348755049     1.007825032230
         H            2.429088977101     1.699772929779     0.884651244951     1.007825032230
         H           -3.287065022899    -0.387587070221     0.000263244951     1.007825032230

  Basis Set: AUG-CC-PVTZ
    Blend: AUG-CC-PVTZ
  Basis Set: (AUG-CC-PVTZ AUX)
    Blend: AUG-CC-PVTZ-JKFIT
	 Reference Energy          =    -703.2017068762181680 [Eh]
	 Singles Energy            =      -0.0000000000000000 [Eh]
	 Same-Spin Energy          =      -0.3850752941420678 [Eh]
	 Opposite-Spin Energy      =      -1.1759080289505026 [Eh]
	 Correlation Energy        =      -1.5609833230925703 [Eh]
	 Total Energy              =    -704.7626901993107822 [Eh]

	 ================> DF-SCS-MP2 Energies <==================
	-----------------------------------------------------------
	 SCS Same-Spin Scale       =       0.3333333333333333 [-]
	 SCS Opposite-Spin Scale   =       1.2000000000000000 [-]
	 SCS Same-Spin Energy      =      -0.1283584313806893 [Eh]
	 SCS Opposite-Spin Energy  =      -1.4110896347406030 [Eh]
	 SCS Correlation Energy    =      -1.5394480661212921 [Eh]
	 SCS Total Energy          =    -704.7411549423394490 [Eh]
	-----------------------------------------------------------

  Dipole Moment: [D]
     X:    -1.1554      Y:     3.1175      Z:     0.0005     Total:     3.3247

*** Psi4 exiting successfully. Buy a developer a beer!
