                               Psi4 1.3.2 release

  ==> Input File <==

--------------------------------------------------------------------------
#psi4
#
memory 32 gb

molecule  {
0 1
  S       -0.9837490    -1.1570500    -0.0000620
  O        1.9818930    -1.3277110    -0.0003480
  C        0.1719496     0.2461807     0.0000065
  C       -0.4985190     1.3749350     0.0002250
  C        1.5865110    -0.1585480    -0.0001750
  C       -1.9046620     1.2489520     0.0003500
  C        2.5479920     1.0088850    -0.0001140
  C       -2.3081880    -0.0718450     0.0002130
  H        0.0283220     2.3240690     0.0003010
  H       -2.5968940     2.0844950     0.0005320
  H        2.3937560     1.6342750    -0.8845650
  H        3.5659410     0.6177950    -0.0003540
  H        2.3940470     1.6339130     0.8846460
  H       -3.3221070    -0.4534470     0.0002580
units angstrom
no_reorient  #important for SAPT in psi4, default
symmetry c1  #important for SAPT in psi4, default
}

set PROPERTIES_ORIGIN ["COM"]
properties('MP2/aug-cc-pvtz', properties = ['dipole'])
--------------------------------------------------------------------------

    Molecular point group: c1
  Charge       = 0
  Multiplicity = 1
  Basis Set: AUG-CC-PVTZ
    Blend: AUG-CC-PVTZ
  Basis Set: (AUG-CC-PVTZ AUX)
    Blend: AUG-CC-PVTZ-JKFIT

    Orbital Energies [Eh]
    ---------------------

    Doubly Occupied:

       1A    -91.990859     2A    -20.552582     3A    -11.349691
       4A    -11.287019     5A    -11.274546     6A    -11.263264
       7A    -11.251761     8A    -11.240006     9A     -8.989876
      10A     -6.670726    11A     -6.669915    12A     -6.669393
      13A     -1.380438    14A     -1.188818    15A     -1.052423
      16A     -1.000435    17A     -0.983695    18A     -0.842940
      19A     -0.778401    20A     -0.729729    21A     -0.694379
      22A     -0.626367    23A     -0.622363    24A     -0.612095
      25A     -0.579654    26A     -0.561536    27A     -0.541151
      28A     -0.518409    29A     -0.496146    30A     -0.482334
      31A     -0.423896    32A     -0.368988    33A     -0.338437

  @DF-RHF Final Energy:  -703.19678559077579

   => Energetics <=

    Nuclear Repulsion Energy =            411.6207270542133188
    One-Electron Energy =               -1781.5704782713887653
    Two-Electron Energy =                 666.7529656263996003
    Total Energy =                       -703.1967855907757894
  Basis Set: (AUG-CC-PVTZ AUX)
    Blend: AUG-CC-PVTZ-RI
    Molecular point group: c1

    Geometry (in Angstrom), charge = 0, multiplicity = 1:

       Center              X                  Y                   Z               Mass
    ------------   -----------------  -----------------  -----------------  -----------------
         S           -0.966854503801    -1.105113396915    -0.000056777579    31.972071174400
         O            1.998787496199    -1.275774396915    -0.000342777579    15.994914619570
         C            0.188844096199     0.298117303085     0.000011722421    12.000000000000
         C           -0.481624503801     1.426871603085     0.000230222421    12.000000000000
         C            1.603405496199    -0.106611396915    -0.000169777579    12.000000000000
         C           -1.887767503801     1.300888603085     0.000355222421    12.000000000000
         C            2.564886496199     1.060821603085    -0.000108777579    12.000000000000
         C           -2.291293503801    -0.019908396915     0.000218222421    12.000000000000
         H            0.045216496199     2.376005603085     0.000306222421     1.007825032230
         H           -2.579999503801     2.136431603085     0.000537222421     1.007825032230
         H            2.410650496199     1.686211603085    -0.884559777579     1.007825032230
         H            3.582835496199     0.669731603085    -0.000348777579     1.007825032230
         H            2.410941496199     1.685849603085     0.884651222421     1.007825032230
         H           -3.305212503801    -0.401510396915     0.000263222421     1.007825032230

  Basis Set: AUG-CC-PVTZ
    Blend: AUG-CC-PVTZ
  Basis Set: (AUG-CC-PVTZ AUX)
    Blend: AUG-CC-PVTZ-JKFIT
	 Reference Energy          =    -703.1967855907757894 [Eh]
	 Singles Energy            =      -0.0000000000000000 [Eh]
	 Same-Spin Energy          =      -0.3838105581656124 [Eh]
	 Opposite-Spin Energy      =      -1.1751176447213361 [Eh]
	 Correlation Energy        =      -1.5589282028869484 [Eh]
	 Total Energy              =    -704.7557137936627214 [Eh]

	 ================> DF-SCS-MP2 Energies <==================
	-----------------------------------------------------------
	 SCS Same-Spin Scale       =       0.3333333333333333 [-]
	 SCS Opposite-Spin Scale   =       1.2000000000000000 [-]
	 SCS Same-Spin Energy      =      -0.1279368527218708 [Eh]
	 SCS Opposite-Spin Energy  =      -1.4101411736656033 [Eh]
	 SCS Correlation Energy    =      -1.5380780263874740 [Eh]
	 SCS Total Energy          =    -704.7348636171632279 [Eh]
	-----------------------------------------------------------

  Dipole Moment: [D]
     X:    -1.5044      Y:     3.1676      Z:     0.0006     Total:     3.5067

*** Psi4 exiting successfully. Buy a developer a beer!
