                               Psi4 1.3.2 release

  ==> Input File <==

--------------------------------------------------------------------------
#psi4
#
memory 32 gb

molecule  {
0 1
  S       -0.9837490    -1.1570500    -0.0000620
  O        1.9818930    -1.3277110    -0.0003480
  C        0.1697412     0.1265843    -0.0000089
  C       -0.4985190     1.3749350     0.0002250
  C        1.5865110    -0.1585480    -0.0001750
  C       -1.9046620     1.2489520     0.0003500
  C        2.5479920     1.0088850    -0.0001140
  C       -2.3081880    -0.0718450     0.0002130
  H        0.0283220     2.3240690     0.0003010
  H       -2.5968940     2.0844950     0.0005320
  H        2.3937560     1.6342750    -0.8845650
  H        3.5659410     0.6177950    -0.0003540
  H        2.3940470     1.6339130     0.8846460
  H       -3.3221070    -0.4534470     0.0002580
units angstrom
no_reorient  #important for SAPT in psi4, default
symmetry c1  #important for SAPT in psi4, default
}

set PROPERTIES_ORIGIN ["COM"]
properties('MP2/aug-cc-pvtz', properties = ['dipole'])
--------------------------------------------------------------------------

    Molecular point group: c1
  Charge       = 0
  Multiplicity = 1
  Basis Set: AUG-CC-PVTZ
    Blend: AUG-CC-PVTZ
  Basis Set: (AUG-CC-PVTZ AUX)
    Blend: AUG-CC-PVTZ-JKFIT

    Orbital Energies [Eh]
    ---------------------

    Doubly Occupied:

       1A    -91.999586     2A    -20.543601     3A    -11.341768
       4A    -11.286897     5A    -11.275289     6A    -11.272024
       7A    -11.254307     8A    -11.240310     9A     -8.999187
      10A     -6.680004    11A     -6.679463    12A     -6.678835
      13A     -1.376478    14A     -1.185741    15A     -1.045726
      16A     -1.005042    17A     -0.981644    18A     -0.846152
      19A     -0.772313    20A     -0.726049    21A     -0.693615
      22A     -0.624050    23A     -0.619180    24A     -0.610100
      25A     -0.577464    26A     -0.556977    27A     -0.541262
      28A     -0.531692    29A     -0.493061    30A     -0.486920
      31A     -0.426432    32A     -0.359883    33A     -0.336834

  @DF-RHF Final Energy:  -703.20252637215958

   => Energetics <=

    Nuclear Repulsion Energy =            412.2173039371564869
    One-Electron Energy =               -1782.7438833630139925
    Two-Electron Energy =                 667.3240530536979804
    Total Energy =                       -703.2025263721595820
  Basis Set: (AUG-CC-PVTZ AUX)
    Blend: AUG-CC-PVTZ-RI
    Molecular point group: c1

    Geometry (in Angstrom), charge = 0, multiplicity = 1:

       Center              X                  Y                   Z               Mass
    ------------   -----------------  -----------------  -----------------  -----------------
         S           -0.966644203251    -1.093724523226    -0.000055311075    31.972071174400
         O            1.998997796749    -1.264385523226    -0.000341311075    15.994914619570
         C            0.186845996749     0.189909776774    -0.000002211075    12.000000000000
         C           -0.481414203251     1.438260476774     0.000231688925    12.000000000000
         C            1.603615796749    -0.095222523226    -0.000168311075    12.000000000000
         C           -1.887557203251     1.312277476774     0.000356688925    12.000000000000
         C            2.565096796749     1.072210476774    -0.000107311075    12.000000000000
         C           -2.291083203251    -0.008519523226     0.000219688925    12.000000000000
         H            0.045426796749     2.387394476774     0.000307688925     1.007825032230
         H           -2.579789203251     2.147820476774     0.000538688925     1.007825032230
         H            2.410860796749     1.697600476774    -0.884558311075     1.007825032230
         H            3.583045796749     0.681120476774    -0.000347311075     1.007825032230
         H            2.411151796749     1.697238476774     0.884652688925     1.007825032230
         H           -3.305002203251    -0.390121523226     0.000264688925     1.007825032230

  Basis Set: AUG-CC-PVTZ
    Blend: AUG-CC-PVTZ
  Basis Set: (AUG-CC-PVTZ AUX)
    Blend: AUG-CC-PVTZ-JKFIT
	 Reference Energy          =    -703.2025263721595820 [Eh]
	 Singles Energy            =      -0.0000000000000000 [Eh]
	 Same-Spin Energy          =      -0.3855274493640578 [Eh]
	 Opposite-Spin Energy      =      -1.1763541209387114 [Eh]
	 Correlation Energy        =      -1.5618815703027691 [Eh]
	 Total Energy              =    -704.7644079424622987 [Eh]

	 ================> DF-SCS-MP2 Energies <==================
	-----------------------------------------------------------
	 SCS Same-Spin Scale       =       0.3333333333333333 [-]
	 SCS Opposite-Spin Scale   =       1.2000000000000000 [-]
	 SCS Same-Spin Energy      =      -0.1285091497880193 [Eh]
	 SCS Opposite-Spin Energy  =      -1.4116249451264535 [Eh]
	 SCS Correlation Energy    =      -1.5401340949144728 [Eh]
	 SCS Total Energy          =    -704.7426604670740744 [Eh]
	-----------------------------------------------------------

  Dipole Moment: [D]
     X:    -1.7274      Y:     3.0623      Z:     0.0006     Total:     3.5159

*** Psi4 exiting successfully. Buy a developer a beer!
