                               Psi4 1.3.2 release

  ==> Input File <==

--------------------------------------------------------------------------
#psi4
#
memory 32 gb

molecule  {
0 1
  S       -0.9837490    -1.1570500    -0.0000620
  O        1.9818930    -1.3277110    -0.0003480
  C        0.1471630     0.1465200    -0.0000040
  C       -0.4552546     1.3967207     0.0002242
  C        1.5865110    -0.1585480    -0.0001750
  C       -1.9046620     1.2489520     0.0003500
  C        2.5479920     1.0088850    -0.0001140
  C       -2.3081880    -0.0718450     0.0002130
  H        0.0283220     2.3240690     0.0003010
  H       -2.5968940     2.0844950     0.0005320
  H        2.3937560     1.6342750    -0.8845650
  H        3.5659410     0.6177950    -0.0003540
  H        2.3940470     1.6339130     0.8846460
  H       -3.3221070    -0.4534470     0.0002580
units angstrom
no_reorient  #important for SAPT in psi4, default
symmetry c1  #important for SAPT in psi4, default
}

set PROPERTIES_ORIGIN ["COM"]
properties('MP2/aug-cc-pvtz', properties = ['dipole'])
--------------------------------------------------------------------------

    Molecular point group: c1
  Charge       = 0
  Multiplicity = 1
  Basis Set: AUG-CC-PVTZ
    Blend: AUG-CC-PVTZ
  Basis Set: (AUG-CC-PVTZ AUX)
    Blend: AUG-CC-PVTZ-JKFIT

    Orbital Energies [Eh]
    ---------------------

    Doubly Occupied:

       1A    -91.996911     2A    -20.547213     3A    -11.344743
       4A    -11.283559     5A    -11.276730     6A    -11.268609
       7A    -11.256784     8A    -11.241289     9A     -8.996792
      10A     -6.677672    11A     -6.677040    12A     -6.676366
      13A     -1.378053    14A     -1.182840    15A     -1.045296
      16A     -0.999590    17A     -0.984214    18A     -0.840957
      19A     -0.773969    20A     -0.732070    21A     -0.693162
      22A     -0.624134    23A     -0.617152    24A     -0.610506
      25A     -0.575767    26A     -0.557965    27A     -0.539673
      28A     -0.532103    29A     -0.493108    30A     -0.490722
      31A     -0.425836    32A     -0.356881    33A     -0.340321

  @DF-RHF Final Energy:  -703.20269975404483

   => Energetics <=

    Nuclear Repulsion Energy =            411.7305412538805172
    One-Electron Energy =               -1781.7904260948232604
    Two-Electron Energy =                 666.8571850868978572
    Total Energy =                       -703.2026997540448292
  Basis Set: (AUG-CC-PVTZ AUX)
    Blend: AUG-CC-PVTZ-RI
    Molecular point group: c1

    Geometry (in Angstrom), charge = 0, multiplicity = 1:

       Center              X                  Y                   Z               Mass
    ------------   -----------------  -----------------  -----------------  -----------------
         S           -0.968614099660    -1.097697550464    -0.000055701508    31.972071174400
         O            1.997027900340    -1.268358550464    -0.000341701508    15.994914619570
         C            0.162297900340     0.205872449536     0.000002298492    12.000000000000
         C           -0.440119699660     1.456073149536     0.000230498492    12.000000000000
         C            1.601645900340    -0.099195550464    -0.000168701508    12.000000000000
         C           -1.889527099660     1.308304449536     0.000356298492    12.000000000000
         C            2.563126900340     1.068237449536    -0.000107701508    12.000000000000
         C           -2.293053099660    -0.012492550464     0.000219298492    12.000000000000
         H            0.043456900340     2.383421449536     0.000307298492     1.007825032230
         H           -2.581759099660     2.143847449536     0.000538298492     1.007825032230
         H            2.408890900340     1.693627449536    -0.884558701508     1.007825032230
         H            3.581075900340     0.677147449536    -0.000347701508     1.007825032230
         H            2.409181900340     1.693265449536     0.884652298492     1.007825032230
         H           -3.306972099660    -0.394094550464     0.000264298492     1.007825032230

  Basis Set: AUG-CC-PVTZ
    Blend: AUG-CC-PVTZ
  Basis Set: (AUG-CC-PVTZ AUX)
    Blend: AUG-CC-PVTZ-JKFIT
	 Reference Energy          =    -703.2026997540448292 [Eh]
	 Singles Energy            =      -0.0000000000000000 [Eh]
	 Same-Spin Energy          =      -0.3841599533723504 [Eh]
	 Opposite-Spin Energy      =      -1.1753304627206824 [Eh]
	 Correlation Energy        =      -1.5594904160930327 [Eh]
	 Total Energy              =    -704.7621901701378420 [Eh]

	 ================> DF-SCS-MP2 Energies <==================
	-----------------------------------------------------------
	 SCS Same-Spin Scale       =       0.3333333333333333 [-]
	 SCS Opposite-Spin Scale   =       1.2000000000000000 [-]
	 SCS Same-Spin Energy      =      -0.1280533177907834 [Eh]
	 SCS Opposite-Spin Energy  =      -1.4103965552648188 [Eh]
	 SCS Correlation Energy    =      -1.5384498730556022 [Eh]
	 SCS Total Energy          =    -704.7411496271004125 [Eh]
	-----------------------------------------------------------

  Dipole Moment: [D]
     X:    -1.5896      Y:     3.0484      Z:     0.0005     Total:     3.4379

*** Psi4 exiting successfully. Buy a developer a beer!
