                               Psi4 1.3.2 release

  ==> Input File <==

--------------------------------------------------------------------------
#psi4
#
memory 32 gb

molecule  {
0 1
  S       -0.8412936    -1.2681214    -0.0000913
  O        1.9818930    -1.3277110    -0.0003480
  C        0.1471630     0.1465200    -0.0000040
  C       -0.4985190     1.3749350     0.0002250
  C        1.5865110    -0.1585480    -0.0001750
  C       -1.9046620     1.2489520     0.0003500
  C        2.5479920     1.0088850    -0.0001140
  C       -2.3081880    -0.0718450     0.0002130
  H        0.0283220     2.3240690     0.0003010
  H       -2.5968940     2.0844950     0.0005320
  H        2.3937560     1.6342750    -0.8845650
  H        3.5659410     0.6177950    -0.0003540
  H        2.3940470     1.6339130     0.8846460
  H       -3.3221070    -0.4534470     0.0002580
units angstrom
no_reorient  #important for SAPT in psi4, default
symmetry c1  #important for SAPT in psi4, default
}

set PROPERTIES_ORIGIN ["COM"]
properties('MP2/aug-cc-pvtz', properties = ['dipole'])
--------------------------------------------------------------------------

    Molecular point group: c1
  Charge       = 0
  Multiplicity = 1
  Basis Set: AUG-CC-PVTZ
    Blend: AUG-CC-PVTZ
  Basis Set: (AUG-CC-PVTZ AUX)
    Blend: AUG-CC-PVTZ-JKFIT

    Orbital Energies [Eh]
    ---------------------

    Doubly Occupied:

       1A    -91.999496     2A    -20.549257     3A    -11.344551
       4A    -11.296092     5A    -11.278343     6A    -11.269881
       7A    -11.259530     8A    -11.240421     9A     -8.996282
      10A     -6.676980    11A     -6.676118    12A     -6.675595
      13A     -1.380718    14A     -1.170808    15A     -1.041632
      16A     -1.002680    17A     -0.971072    18A     -0.840041
      19A     -0.775255    20A     -0.722570    21A     -0.693681
      22A     -0.626212    23A     -0.612921    24A     -0.610325
      25A     -0.576615    26A     -0.559326    27A     -0.534374
      28A     -0.516355    29A     -0.489870    30A     -0.482355
      31A     -0.426437    32A     -0.365258    33A     -0.331720

  @DF-RHF Final Energy:  -703.18610103002175

   => Energetics <=

    Nuclear Repulsion Energy =            409.3185529738059927
    One-Electron Energy =               -1777.0237648059414823
    Two-Electron Energy =                 664.5191108021138007
    Total Energy =                       -703.1861010300217458
  Basis Set: (AUG-CC-PVTZ AUX)
    Blend: AUG-CC-PVTZ-RI
    Molecular point group: c1

    Geometry (in Angstrom), charge = 0, multiplicity = 1:

       Center              X                  Y                   Z               Mass
    ------------   -----------------  -----------------  -----------------  -----------------
         S           -0.858182311623    -1.178513478508    -0.000077643737    31.972071174400
         O            1.965004288377    -1.238103078508    -0.000334343737    15.994914619570
         C            0.130274288377     0.236127921492     0.000009656263    12.000000000000
         C           -0.515407711623     1.464542921492     0.000238656263    12.000000000000
         C            1.569622288377    -0.068940078508    -0.000161343737    12.000000000000
         C           -1.921550711623     1.338559921492     0.000363656263    12.000000000000
         C            2.531103288377     1.098492921492    -0.000100343737    12.000000000000
         C           -2.325076711623     0.017762921492     0.000226656263    12.000000000000
         H            0.011433288377     2.413676921492     0.000314656263     1.007825032230
         H           -2.613782711623     2.174102921492     0.000545656263     1.007825032230
         H            2.376867288377     1.723882921492    -0.884551343737     1.007825032230
         H            3.549052288377     0.707402921492    -0.000340343737     1.007825032230
         H            2.377158288377     1.723520921492     0.884659656263     1.007825032230
         H           -3.338995711623    -0.363839078508     0.000271656263     1.007825032230

  Basis Set: AUG-CC-PVTZ
    Blend: AUG-CC-PVTZ
  Basis Set: (AUG-CC-PVTZ AUX)
    Blend: AUG-CC-PVTZ-JKFIT
	 Reference Energy          =    -703.1861010300217458 [Eh]
	 Singles Energy            =      -0.0000000000000000 [Eh]
	 Same-Spin Energy          =      -0.3844286205997972 [Eh]
	 Opposite-Spin Energy      =      -1.1790188148855456 [Eh]
	 Correlation Energy        =      -1.5634474354853429 [Eh]
	 Total Energy              =    -704.7495484655071323 [Eh]

	 ================> DF-SCS-MP2 Energies <==================
	-----------------------------------------------------------
	 SCS Same-Spin Scale       =       0.3333333333333333 [-]
	 SCS Opposite-Spin Scale   =       1.2000000000000000 [-]
	 SCS Same-Spin Energy      =      -0.1281428735332657 [Eh]
	 SCS Opposite-Spin Energy  =      -1.4148225778626546 [Eh]
	 SCS Correlation Energy    =      -1.5429654513959203 [Eh]
	 SCS Total Energy          =    -704.7290664814177035 [Eh]
	-----------------------------------------------------------

  Dipole Moment: [D]
     X:    -1.5206      Y:     3.1593      Z:     0.0006     Total:     3.5062

*** Psi4 exiting successfully. Buy a developer a beer!
