                               Psi4 1.3.2 release

  ==> Input File <==

--------------------------------------------------------------------------
#psi4
#
memory 32 gb

molecule  {
0 1
  S       -0.9837490    -1.1570500    -0.0000620
  O        1.9408489    -1.3407974    -0.0003457
  C        0.1471630     0.1465200    -0.0000040
  C       -0.4985190     1.3749350     0.0002250
  C        1.5865110    -0.1585480    -0.0001750
  C       -1.9046620     1.2489520     0.0003500
  C        2.5479920     1.0088850    -0.0001140
  C       -2.3081880    -0.0718450     0.0002130
  H        0.0283220     2.3240690     0.0003010
  H       -2.5968940     2.0844950     0.0005320
  H        2.3937560     1.6342750    -0.8845650
  H        3.5659410     0.6177950    -0.0003540
  H        2.3940470     1.6339130     0.8846460
  H       -3.3221070    -0.4534470     0.0002580
units angstrom
no_reorient  #important for SAPT in psi4, default
symmetry c1  #important for SAPT in psi4, default
}

set PROPERTIES_ORIGIN ["COM"]
properties('MP2/aug-cc-pvtz', properties = ['dipole'])
--------------------------------------------------------------------------

    Molecular point group: c1
  Charge       = 0
  Multiplicity = 1
  Basis Set: AUG-CC-PVTZ
    Blend: AUG-CC-PVTZ
  Basis Set: (AUG-CC-PVTZ AUX)
    Blend: AUG-CC-PVTZ-JKFIT

    Orbital Energies [Eh]
    ---------------------

    Doubly Occupied:

       1A    -91.996430     2A    -20.547145     3A    -11.345870
       4A    -11.283255     5A    -11.272857     6A    -11.265850
       7A    -11.251716     8A    -11.243378     9A     -8.996199
      10A     -6.677031    11A     -6.676450    12A     -6.675804
      13A     -1.378572    14A     -1.186525    15A     -1.044632
      16A     -1.002883    17A     -0.983670    18A     -0.839735
      19A     -0.772070    20A     -0.726671    21A     -0.694643
      22A     -0.624753    23A     -0.618151    24A     -0.611399
      25A     -0.574900    26A     -0.558719    27A     -0.541775
      28A     -0.530043    29A     -0.494516    30A     -0.488178
      31A     -0.427057    32A     -0.358976    33A     -0.336844

  @DF-RHF Final Energy:  -703.20454966467048

   => Energetics <=

    Nuclear Repulsion Energy =            412.6622807487647719
    One-Electron Energy =               -1783.6802714673763148
    Two-Electron Energy =                 667.8134410539411192
    Total Energy =                       -703.2045496646704805
  Basis Set: (AUG-CC-PVTZ AUX)
    Blend: AUG-CC-PVTZ-RI
    Molecular point group: c1

    Geometry (in Angstrom), charge = 0, multiplicity = 1:

       Center              X                  Y                   Z               Mass
    ------------   -----------------  -----------------  -----------------  -----------------
         S           -0.959284419844    -1.093961898157    -0.000056069628    31.972071174400
         O            1.965313480156    -1.277709298157    -0.000339769628    15.994914619570
         C            0.171627580156     0.209608101843     0.000001930372    12.000000000000
         C           -0.474054419844     1.438023101843     0.000230930372    12.000000000000
         C            1.610975580156    -0.095459898157    -0.000169069628    12.000000000000
         C           -1.880197419844     1.312040101843     0.000355930372    12.000000000000
         C            2.572456580156     1.071973101843    -0.000108069628    12.000000000000
         C           -2.283723419844    -0.008756898157     0.000218930372    12.000000000000
         H            0.052786580156     2.387157101843     0.000306930372     1.007825032230
         H           -2.572429419844     2.147583101843     0.000537930372     1.007825032230
         H            2.418220580156     1.697363101843    -0.884559069628     1.007825032230
         H            3.590405580156     0.680883101843    -0.000348069628     1.007825032230
         H            2.418511580156     1.697001101843     0.884651930372     1.007825032230
         H           -3.297642419844    -0.390358898157     0.000263930372     1.007825032230

  Basis Set: AUG-CC-PVTZ
    Blend: AUG-CC-PVTZ
  Basis Set: (AUG-CC-PVTZ AUX)
    Blend: AUG-CC-PVTZ-JKFIT
	 Reference Energy          =    -703.2045496646704805 [Eh]
	 Singles Energy            =      -0.0000000000000000 [Eh]
	 Same-Spin Energy          =      -0.3849487836553691 [Eh]
	 Opposite-Spin Energy      =      -1.1756605861601894 [Eh]
	 Correlation Energy        =      -1.5606093698155585 [Eh]
	 Total Energy              =    -704.7651590344860324 [Eh]

	 ================> DF-SCS-MP2 Energies <==================
	-----------------------------------------------------------
	 SCS Same-Spin Scale       =       0.3333333333333333 [-]
	 SCS Opposite-Spin Scale   =       1.2000000000000000 [-]
	 SCS Same-Spin Energy      =      -0.1283162612184564 [Eh]
	 SCS Opposite-Spin Energy  =      -1.4107927033922272 [Eh]
	 SCS Correlation Energy    =      -1.5391089646106835 [Eh]
	 SCS Total Energy          =    -704.7436586292811853 [Eh]
	-----------------------------------------------------------

  Dipole Moment: [D]
     X:    -1.4628      Y:     3.0757      Z:     0.0005     Total:     3.4059

*** Psi4 exiting successfully. Buy a developer a beer!
