                               Psi4 1.3.2 release

  ==> Input File <==

--------------------------------------------------------------------------
#psi4
#
memory 32 gb

molecule  {
0 1
  S       -0.9837490    -1.1570500    -0.0000620
  O        1.9818930    -1.3277110    -0.0003480
  C        0.1471630     0.1465200    -0.0000040
  C       -0.4985190     1.3749350     0.0002250
  C        1.6843378    -0.1792823    -0.0001866
  C       -1.9046620     1.2489520     0.0003500
  C        2.5479920     1.0088850    -0.0001140
  C       -2.3081880    -0.0718450     0.0002130
  H        0.0283220     2.3240690     0.0003010
  H       -2.5968940     2.0844950     0.0005320
  H        2.3937560     1.6342750    -0.8845650
  H        3.5659410     0.6177950    -0.0003540
  H        2.3940470     1.6339130     0.8846460
  H       -3.3221070    -0.4534470     0.0002580
units angstrom
no_reorient  #important for SAPT in psi4, default
symmetry c1  #important for SAPT in psi4, default
}

set PROPERTIES_ORIGIN ["COM"]
properties('MP2/aug-cc-pvtz', properties = ['dipole'])
--------------------------------------------------------------------------

    Molecular point group: c1
  Charge       = 0
  Multiplicity = 1
  Basis Set: AUG-CC-PVTZ
    Blend: AUG-CC-PVTZ
  Basis Set: (AUG-CC-PVTZ AUX)
    Blend: AUG-CC-PVTZ-JKFIT

    Orbital Energies [Eh]
    ---------------------

    Doubly Occupied:

       1A    -91.991100     2A    -20.558241     3A    -11.350317
       4A    -11.274770     5A    -11.272286     6A    -11.255991
       7A    -11.246520     8A    -11.244664     9A     -8.990940
      10A     -6.671811    11A     -6.671256    12A     -6.670609
      13A     -1.417470    14A     -1.178541    15A     -1.047797
      16A     -0.995736    17A     -0.981144    18A     -0.819027
      19A     -0.764867    20A     -0.723556    21A     -0.704478
      22A     -0.642965    23A     -0.622137    24A     -0.620879
      25A     -0.570202    26A     -0.561014    27A     -0.538671
      28A     -0.526531    29A     -0.510422    30A     -0.483217
      31A     -0.424140    32A     -0.353785    33A     -0.330957

  @DF-RHF Final Energy:  -703.19984365954701

   => Energetics <=

    Nuclear Repulsion Energy =            411.6227530079907524
    One-Electron Energy =               -1781.6131148925483103
    Two-Electron Energy =                 666.7905182250106009
    Total Energy =                       -703.1998436595470139
  Basis Set: (AUG-CC-PVTZ AUX)
    Blend: AUG-CC-PVTZ-RI
    Molecular point group: c1

    Geometry (in Angstrom), charge = 0, multiplicity = 1:

       Center              X                  Y                   Z               Mass
    ------------   -----------------  -----------------  -----------------  -----------------
         S           -0.973809944031    -1.093648474494    -0.000054673050    31.972071174400
         O            1.991832055969    -1.264309474494    -0.000340673050    15.994914619570
         C            0.157102055969     0.209921525506     0.000003326950    12.000000000000
         C           -0.488579944031     1.438336525506     0.000232326950    12.000000000000
         C            1.694276855969    -0.115880774494    -0.000179273050    12.000000000000
         C           -1.894722944031     1.312353525506     0.000357326950    12.000000000000
         C            2.557931055969     1.072286525506    -0.000106673050    12.000000000000
         C           -2.298248944031    -0.008443474494     0.000220326950    12.000000000000
         H            0.038261055969     2.387470525506     0.000308326950     1.007825032230
         H           -2.586954944031     2.147896525506     0.000539326950     1.007825032230
         H            2.403695055969     1.697676525506    -0.884557673050     1.007825032230
         H            3.575880055969     0.681196525506    -0.000346673050     1.007825032230
         H            2.403986055969     1.697314525506     0.884653326950     1.007825032230
         H           -3.312167944031    -0.390045474494     0.000265326950     1.007825032230

  Basis Set: AUG-CC-PVTZ
    Blend: AUG-CC-PVTZ
  Basis Set: (AUG-CC-PVTZ AUX)
    Blend: AUG-CC-PVTZ-JKFIT
	 Reference Energy          =    -703.1998436595470139 [Eh]
	 Singles Energy            =      -0.0000000000000000 [Eh]
	 Same-Spin Energy          =      -0.3835783135631807 [Eh]
	 Opposite-Spin Energy      =      -1.1729908649171663 [Eh]
	 Correlation Energy        =      -1.5565691784803470 [Eh]
	 Total Energy              =    -704.7564128380273587 [Eh]

	 ================> DF-SCS-MP2 Energies <==================
	-----------------------------------------------------------
	 SCS Same-Spin Scale       =       0.3333333333333333 [-]
	 SCS Opposite-Spin Scale   =       1.2000000000000000 [-]
	 SCS Same-Spin Energy      =      -0.1278594378543936 [Eh]
	 SCS Opposite-Spin Energy  =      -1.4075890379005995 [Eh]
	 SCS Correlation Energy    =      -1.5354484757549931 [Eh]
	 SCS Total Energy          =    -704.7352921353019610 [Eh]
	-----------------------------------------------------------

  Dipole Moment: [D]
     X:    -0.7560      Y:     2.9382      Z:     0.0005     Total:     3.0339

*** Psi4 exiting successfully. Buy a developer a beer!
