                               Psi4 1.4a3.dev225

  ==> Input File <==

--------------------------------------------------------------------------
#psi4
#
memory 32 gb

molecule  {
0 1
  S       -0.9837490    -1.1570500    -0.0000620
  O        1.9818930    -1.3277110    -0.0003480
  C        0.1471630     0.1465200    -0.0000040
  C       -0.4985190     1.3749350     0.0002250
  C        1.5375976    -0.1481809    -0.0001692
  C       -1.9046620     1.2489520     0.0003500
  C        2.5479920     1.0088850    -0.0001140
  C       -2.3081880    -0.0718450     0.0002130
  H        0.0283220     2.3240690     0.0003010
  H       -2.5968940     2.0844950     0.0005320
  H        2.3937560     1.6342750    -0.8845650
  H        3.5659410     0.6177950    -0.0003540
  H        2.3940470     1.6339130     0.8846460
  H       -3.3221070    -0.4534470     0.0002580
units angstrom
no_reorient  #important for SAPT in psi4, default
symmetry c1  #important for SAPT in psi4, default
}

set PROPERTIES_ORIGIN ["COM"]
properties('MP2/aug-cc-pvtz', properties = ['dipole'])
--------------------------------------------------------------------------

    Molecular point group: c1
  Charge       = 0
  Multiplicity = 1
  Basis Set: AUG-CC-PVTZ
    Blend: AUG-CC-PVTZ
  Basis Set: (AUG-CC-PVTZ AUX)
    Blend: AUG-CC-PVTZ-JKFIT

    Orbital Energies [Eh]
    ---------------------

    Doubly Occupied:

       1A    -92.000931     2A    -20.540513     3A    -11.342715
       4A    -11.289940     5A    -11.274254     6A    -11.272912
       7A    -11.256135     8A    -11.239826     9A     -9.000696
      10A     -6.681511    11A     -6.680913    12A     -6.680273
      13A     -1.357494    14A     -1.192764    15A     -1.047506
      16A     -1.008451    17A     -0.981113    18A     -0.851957
      19A     -0.777563    20A     -0.730857    21A     -0.687957
      22A     -0.619548    23A     -0.614166    24A     -0.605599
      25A     -0.579342    26A     -0.555583    27A     -0.544600
      28A     -0.532131    29A     -0.491925    30A     -0.485089
      31A     -0.422779    32A     -0.363245    33A     -0.341356

  @DF-RHF Final Energy:  -703.19878248878035

   => Energetics <=

    Nuclear Repulsion Energy =            412.6170000712079968
    One-Electron Energy =               -1783.5282819153246692
    Two-Electron Energy =                 667.7124993553363765
    Total Energy =                       -703.1987824887803527
  Basis Set: (AUG-CC-PVTZ AUX)
    Blend: AUG-CC-PVTZ-RI
    Molecular point group: c1

    Geometry (in Angstrom), charge = 0, multiplicity = 1:

       Center              X                  Y                   Z               Mass
    ------------   -----------------  -----------------  -----------------  -----------------
         S           -0.959836232424    -1.096610185015    -0.000056330009    31.972071174400
         O            2.005805767576    -1.267271185015    -0.000342330009    15.994914619570
         C            0.171075767576     0.206959814985     0.000001669991    12.000000000000
         C           -0.474606232424     1.435374814985     0.000230669991    12.000000000000
         C            1.561510367576    -0.087741085015    -0.000163530009    12.000000000000
         C           -1.880749232424     1.309391814985     0.000355669991    12.000000000000
         C            2.571904767576     1.069324814985    -0.000108330009    12.000000000000
         C           -2.284275232424    -0.011405185015     0.000218669991    12.000000000000
         H            0.052234767576     2.384508814985     0.000306669991     1.007825032230
         H           -2.572981232424     2.144934814985     0.000537669991     1.007825032230
         H            2.417668767576     1.694714814985    -0.884559330009     1.007825032230
         H            3.589853767576     0.678234814985    -0.000348330009     1.007825032230
         H            2.417959767576     1.694352814985     0.884651669991     1.007825032230
         H           -3.298194232424    -0.393007185015     0.000263669991     1.007825032230

  Basis Set: AUG-CC-PVTZ
    Blend: AUG-CC-PVTZ
  Basis Set: (AUG-CC-PVTZ AUX)
    Blend: AUG-CC-PVTZ-JKFIT
	 Reference Energy          =    -703.1987824887803527 [Eh]
	 Singles Energy            =      -0.0000000000000000 [Eh]
	 Same-Spin Energy          =      -0.3860043999331508 [Eh]
	 Opposite-Spin Energy      =      -1.1776196566113244 [Eh]
	 Correlation Energy        =      -1.5636240565444752 [Eh]
	 Total Energy              =    -704.7624065453247795 [Eh]

	 ================> DF-SCS-MP2 Energies <==================
	-----------------------------------------------------------
	 SCS Same-Spin Scale       =       0.3333333333333333 [-]
	 SCS Opposite-Spin Scale   =       1.2000000000000000 [-]
	 SCS Same-Spin Energy      =      -0.1286681333110503 [Eh]
	 SCS Opposite-Spin Energy  =      -1.4131435879335892 [Eh]
	 SCS Correlation Energy    =      -1.5418117212446394 [Eh]
	 SCS Total Energy          =    -704.7405942100249376 [Eh]
	-----------------------------------------------------------

  Dipole Moment: [D]
     X:    -2.0152      Y:     3.0975      Z:     0.0006     Total:     3.6953

*** Psi4 exiting successfully. Buy a developer a beer!
