                               Psi4 1.3.2 release

  ==> Input File <==

--------------------------------------------------------------------------
#psi4
#
memory 32 gb

molecule  {
0 1
  S       -0.9837490    -1.1570500    -0.0000620
  O        1.9818930    -1.3277110    -0.0003480
  C        0.1471630     0.1465200    -0.0000040
  C       -0.5198595     1.3634792     0.0002253
  C        1.5865110    -0.1585480    -0.0001750
  C       -1.9046620     1.2489520     0.0003500
  C        2.5479920     1.0088850    -0.0001140
  C       -2.3081880    -0.0718450     0.0002130
  H        0.0283220     2.3240690     0.0003010
  H       -2.5968940     2.0844950     0.0005320
  H        2.3937560     1.6342750    -0.8845650
  H        3.5659410     0.6177950    -0.0003540
  H        2.3940470     1.6339130     0.8846460
  H       -3.3221070    -0.4534470     0.0002580
units angstrom
no_reorient  #important for SAPT in psi4, default
symmetry c1  #important for SAPT in psi4, default
}

set PROPERTIES_ORIGIN ["COM"]
properties('MP2/aug-cc-pvtz', properties = ['dipole'])
--------------------------------------------------------------------------

    Molecular point group: c1
  Charge       = 0
  Multiplicity = 1
  Basis Set: AUG-CC-PVTZ
    Blend: AUG-CC-PVTZ
  Basis Set: (AUG-CC-PVTZ AUX)
    Blend: AUG-CC-PVTZ-JKFIT

    Orbital Energies [Eh]
    ---------------------

    Doubly Occupied:

       1A    -91.998145     2A    -20.546472     3A    -11.345657
       4A    -11.285166     5A    -11.273523     6A    -11.266735
       7A    -11.250805     8A    -11.240856     9A     -8.997878
      10A     -6.678688    11A     -6.678136    12A     -6.677504
      13A     -1.377591    14A     -1.190745    15A     -1.043811
      16A     -1.006622    17A     -0.982825    18A     -0.840485
      19A     -0.773130    20A     -0.725552    21A     -0.694714
      22A     -0.624434    23A     -0.619135    24A     -0.610200
      25A     -0.576334    26A     -0.556575    27A     -0.543308
      28A     -0.529782    29A     -0.494584    30A     -0.488316
      31A     -0.426485    32A     -0.361950    33A     -0.337158

  @DF-RHF Final Energy:  -703.20371856009922

   => Energetics <=

    Nuclear Repulsion Energy =            412.5395817023629093
    One-Electron Energy =               -1783.3999907841107415
    Two-Electron Energy =                 667.6566905216485566
    Total Energy =                       -703.2037185600992188
  Basis Set: (AUG-CC-PVTZ AUX)
    Blend: AUG-CC-PVTZ-RI
    Molecular point group: c1

    Geometry (in Angstrom), charge = 0, multiplicity = 1:

       Center              X                  Y                   Z               Mass
    ------------   -----------------  -----------------  -----------------  -----------------
         S           -0.962461932490    -1.094532043435    -0.000055806258    31.972071174400
         O            2.003180067510    -1.265193043435    -0.000341806258    15.994914619570
         C            0.168450067510     0.209037956565     0.000002193742    12.000000000000
         C           -0.498572432490     1.425997156565     0.000231493742    12.000000000000
         C            1.607798067510    -0.096030043435    -0.000168806258    12.000000000000
         C           -1.883374932490     1.311469956565     0.000356193742    12.000000000000
         C            2.569279067510     1.071402956565    -0.000107806258    12.000000000000
         C           -2.286900932490    -0.009327043435     0.000219193742    12.000000000000
         H            0.049609067510     2.386586956565     0.000307193742     1.007825032230
         H           -2.575606932490     2.147012956565     0.000538193742     1.007825032230
         H            2.415043067510     1.696792956565    -0.884558806258     1.007825032230
         H            3.587228067510     0.680312956565    -0.000347806258     1.007825032230
         H            2.415334067510     1.696430956565     0.884652193742     1.007825032230
         H           -3.300819932490    -0.390929043435     0.000264193742     1.007825032230

  Basis Set: AUG-CC-PVTZ
    Blend: AUG-CC-PVTZ
  Basis Set: (AUG-CC-PVTZ AUX)
    Blend: AUG-CC-PVTZ-JKFIT
	 Reference Energy          =    -703.2037185600992188 [Eh]
	 Singles Energy            =      -0.0000000000000000 [Eh]
	 Same-Spin Energy          =      -0.3853404447625116 [Eh]
	 Opposite-Spin Energy      =      -1.1758768482780364 [Eh]
	 Correlation Energy        =      -1.5612172930405479 [Eh]
	 Total Energy              =    -704.7649358531397183 [Eh]

	 ================> DF-SCS-MP2 Energies <==================
	-----------------------------------------------------------
	 SCS Same-Spin Scale       =       0.3333333333333333 [-]
	 SCS Opposite-Spin Scale   =       1.2000000000000000 [-]
	 SCS Same-Spin Energy      =      -0.1284468149208372 [Eh]
	 SCS Opposite-Spin Energy  =      -1.4110522179336435 [Eh]
	 SCS Correlation Energy    =      -1.5394990328544806 [Eh]
	 SCS Total Energy          =    -704.7432175929536697 [Eh]
	-----------------------------------------------------------

  Dipole Moment: [D]
     X:    -1.6238      Y:     3.0467      Z:     0.0005     Total:     3.4524

*** Psi4 exiting successfully. Buy a developer a beer!
