                               Psi4 1.3.2 release

  ==> Input File <==

--------------------------------------------------------------------------
#psi4
#
memory 32 gb

molecule  {
0 1
  S       -0.9837490    -1.1570500    -0.0000620
  O        1.9614281    -1.3344333    -0.0003469
  C        0.1471630     0.1465200    -0.0000040
  C       -0.4985190     1.3749350     0.0002250
  C        1.5865110    -0.1585480    -0.0001750
  C       -1.9046620     1.2489520     0.0003500
  C        2.5479920     1.0088850    -0.0001140
  C       -2.3081880    -0.0718450     0.0002130
  H        0.0283220     2.3240690     0.0003010
  H       -2.5968940     2.0844950     0.0005320
  H        2.3937560     1.6342750    -0.8845650
  H        3.5659410     0.6177950    -0.0003540
  H        2.3940470     1.6339130     0.8846460
  H       -3.3221070    -0.4534470     0.0002580
units angstrom
no_reorient  #important for SAPT in psi4, default
symmetry c1  #important for SAPT in psi4, default
}

set PROPERTIES_ORIGIN ["COM"]
properties('MP2/aug-cc-pvtz', properties = ['dipole'])
--------------------------------------------------------------------------

    Molecular point group: c1
  Charge       = 0
  Multiplicity = 1
  Basis Set: AUG-CC-PVTZ
    Blend: AUG-CC-PVTZ
  Basis Set: (AUG-CC-PVTZ AUX)
    Blend: AUG-CC-PVTZ-JKFIT

    Orbital Energies [Eh]
    ---------------------

    Doubly Occupied:

       1A    -91.997063     2A    -20.546947     3A    -11.345611
       4A    -11.283917     5A    -11.273697     6A    -11.266604
       7A    -11.252289     8A    -11.242199     9A     -8.996839
      10A     -6.677672    11A     -6.677092    12A     -6.676446
      13A     -1.378148    14A     -1.187217    15A     -1.044410
      16A     -1.003526    17A     -0.983514    18A     -0.840130
      19A     -0.772634    20A     -0.727164    21A     -0.694395
      22A     -0.624270    23A     -0.618267    24A     -0.610845
      25A     -0.575438    26A     -0.558384    27A     -0.541871
      28A     -0.530422    29A     -0.494309    30A     -0.488744
      31A     -0.426726    32A     -0.359525    33A     -0.337564

  @DF-RHF Final Energy:  -703.20482743527521

   => Energetics <=

    Nuclear Repulsion Energy =            412.4558343422668258
    One-Electron Energy =               -1783.2535611761713881
    Two-Electron Energy =                 667.5928993986293563
    Total Energy =                       -703.2048274352752060
  Basis Set: (AUG-CC-PVTZ AUX)
    Blend: AUG-CC-PVTZ-RI
    Molecular point group: c1

    Geometry (in Angstrom), charge = 0, multiplicity = 1:

       Center              X                  Y                   Z               Mass
    ------------   -----------------  -----------------  -----------------  -----------------
         S           -0.961896532102    -1.094769691639    -0.000055917312    31.972071174400
         O            1.983280567898    -1.272152991639    -0.000340817312    15.994914619570
         C            0.169015467898     0.208800308361     0.000002082688    12.000000000000
         C           -0.476666532102     1.437215308361     0.000231082688    12.000000000000
         C            1.608363467898    -0.096267691639    -0.000168917312    12.000000000000
         C           -1.882809532102     1.311232308361     0.000356082688    12.000000000000
         C            2.569844467898     1.071165308361    -0.000107917312    12.000000000000
         C           -2.286335532102    -0.009564691639     0.000219082688    12.000000000000
         H            0.050174467898     2.386349308361     0.000307082688     1.007825032230
         H           -2.575041532102     2.146775308361     0.000538082688     1.007825032230
         H            2.415608467898     1.696555308361    -0.884558917312     1.007825032230
         H            3.587793467898     0.680075308361    -0.000347917312     1.007825032230
         H            2.415899467898     1.696193308361     0.884652082688     1.007825032230
         H           -3.300254532102    -0.391166691639     0.000264082688     1.007825032230

  Basis Set: AUG-CC-PVTZ
    Blend: AUG-CC-PVTZ
  Basis Set: (AUG-CC-PVTZ AUX)
    Blend: AUG-CC-PVTZ-JKFIT
	 Reference Energy          =    -703.2048274352752060 [Eh]
	 Singles Energy            =      -0.0000000000000000 [Eh]
	 Same-Spin Energy          =      -0.3849318946082174 [Eh]
	 Opposite-Spin Energy      =      -1.1756295745688963 [Eh]
	 Correlation Energy        =      -1.5605614691771137 [Eh]
	 Total Energy              =    -704.7653889044522657 [Eh]

	 ================> DF-SCS-MP2 Energies <==================
	-----------------------------------------------------------
	 SCS Same-Spin Scale       =       0.3333333333333333 [-]
	 SCS Opposite-Spin Scale   =       1.2000000000000000 [-]
	 SCS Same-Spin Energy      =      -0.1283106315360725 [Eh]
	 SCS Opposite-Spin Energy  =      -1.4107554894826755 [Eh]
	 SCS Correlation Energy    =      -1.5390661210187480 [Eh]
	 SCS Total Energy          =    -704.7438935562939832 [Eh]
	-----------------------------------------------------------

  Dipole Moment: [D]
     X:    -1.5377      Y:     3.0627      Z:     0.0005     Total:     3.4271

*** Psi4 exiting successfully. Buy a developer a beer!
