                               Psi4 1.3.2 release

  ==> Input File <==

--------------------------------------------------------------------------
#psi4
#
memory 32 gb

molecule  {
0 1
  S       -0.9837490    -1.1570500    -0.0000620
  O        1.9818930    -1.3277110    -0.0003480
  C        0.1242403     0.1660586     0.0000009
  C       -0.4985190     1.3749350     0.0002250
  C        1.5865110    -0.1585480    -0.0001750
  C       -1.9046620     1.2489520     0.0003500
  C        2.5479920     1.0088850    -0.0001140
  C       -2.3081880    -0.0718450     0.0002130
  H        0.0283220     2.3240690     0.0003010
  H       -2.5968940     2.0844950     0.0005320
  H        2.3937560     1.6342750    -0.8845650
  H        3.5659410     0.6177950    -0.0003540
  H        2.3940470     1.6339130     0.8846460
  H       -3.3221070    -0.4534470     0.0002580
units angstrom
no_reorient  #important for SAPT in psi4, default
symmetry c1  #important for SAPT in psi4, default
}

set PROPERTIES_ORIGIN ["COM"]
properties('MP2/aug-cc-pvtz', properties = ['dipole'])
--------------------------------------------------------------------------

    Molecular point group: c1
  Charge       = 0
  Multiplicity = 1
  Basis Set: AUG-CC-PVTZ
    Blend: AUG-CC-PVTZ
  Basis Set: (AUG-CC-PVTZ AUX)
    Blend: AUG-CC-PVTZ-JKFIT

    Orbital Energies [Eh]
    ---------------------

    Doubly Occupied:

       1A    -91.995868     2A    -20.549648     3A    -11.348625
       4A    -11.282366     5A    -11.273597     6A    -11.262519
       7A    -11.251488     8A    -11.241675     9A     -8.995825
      10A     -6.676676    11A     -6.676059    12A     -6.675396
      13A     -1.378967    14A     -1.190392    15A     -1.042902
      16A     -1.003621    17A     -0.984745    18A     -0.834833
      19A     -0.774188    20A     -0.729151    21A     -0.694649
      22A     -0.623818    23A     -0.617342    24A     -0.610487
      25A     -0.574584    26A     -0.559194    27A     -0.542883
      28A     -0.529593    29A     -0.495154    30A     -0.491388
      31A     -0.425689    32A     -0.360931    33A     -0.339169

  @DF-RHF Final Energy:  -703.20494964377986

   => Energetics <=

    Nuclear Repulsion Energy =            412.3158393632554066
    One-Electron Energy =               -1782.9747290841485210
    Two-Electron Energy =                 667.4539400771132023
    Total Energy =                       -703.2049496437798553
  Basis Set: (AUG-CC-PVTZ AUX)
    Blend: AUG-CC-PVTZ-RI
    Molecular point group: c1

    Geometry (in Angstrom), charge = 0, multiplicity = 1:

       Center              X                  Y                   Z               Mass
    ------------   -----------------  -----------------  -----------------  -----------------
         S           -0.962311263440    -1.097483564607    -0.000056244305    31.972071174400
         O            2.003330736560    -1.268144564607    -0.000342244305    15.994914619570
         C            0.145678036560     0.225625035393     0.000006655695    12.000000000000
         C           -0.477081263440     1.434501435393     0.000230755695    12.000000000000
         C            1.607948736560    -0.098981564607    -0.000169244305    12.000000000000
         C           -1.883224263440     1.308518435393     0.000355755695    12.000000000000
         C            2.569429736560     1.068451435393    -0.000108244305    12.000000000000
         C           -2.286750263440    -0.012278564607     0.000218755695    12.000000000000
         H            0.049759736560     2.383635435393     0.000306755695     1.007825032230
         H           -2.575456263440     2.144061435393     0.000537755695     1.007825032230
         H            2.415193736560     1.693841435393    -0.884559244305     1.007825032230
         H            3.587378736560     0.677361435393    -0.000348244305     1.007825032230
         H            2.415484736560     1.693479435393     0.884651755695     1.007825032230
         H           -3.300669263440    -0.393880564607     0.000263755695     1.007825032230

  Basis Set: AUG-CC-PVTZ
    Blend: AUG-CC-PVTZ
  Basis Set: (AUG-CC-PVTZ AUX)
    Blend: AUG-CC-PVTZ-JKFIT
	 Reference Energy          =    -703.2049496437798553 [Eh]
	 Singles Energy            =      -0.0000000000000000 [Eh]
	 Same-Spin Energy          =      -0.3843728012287172 [Eh]
	 Opposite-Spin Energy      =      -1.1750041901634196 [Eh]
	 Correlation Energy        =      -1.5593769913921367 [Eh]
	 Total Energy              =    -704.7643266351719831 [Eh]

	 ================> DF-SCS-MP2 Energies <==================
	-----------------------------------------------------------
	 SCS Same-Spin Scale       =       0.3333333333333333 [-]
	 SCS Opposite-Spin Scale   =       1.2000000000000000 [-]
	 SCS Same-Spin Energy      =      -0.1281242670762391 [Eh]
	 SCS Opposite-Spin Energy  =      -1.4100050281961034 [Eh]
	 SCS Correlation Energy    =      -1.5381292952723424 [Eh]
	 SCS Total Energy          =    -704.7430789390522250 [Eh]
	-----------------------------------------------------------

  Dipole Moment: [D]
     X:    -1.4931      Y:     3.0349      Z:     0.0005     Total:     3.3823

*** Psi4 exiting successfully. Buy a developer a beer!
