                               Psi4 1.3.2 release

  ==> Input File <==

--------------------------------------------------------------------------
#psi4
#
memory 32 gb

molecule  {
0 1
  N        0.6331050     1.8115130    -0.0000210
  C        0.1785470    -0.3913160     0.0000090
  C       -0.4036780     0.9062970    -0.0000200
  C        1.6123981    -0.2187172    -0.0226041
  C        1.8344040     1.1305020     0.0000620
  C       -0.6692560    -1.5149550    -0.0000180
  C       -1.7891560     1.1099920    -0.0000270
  C        2.6263130    -1.3178960     0.0000690
  C       -2.0437110    -1.3184960    -0.0000320
  C       -2.5979760    -0.0198630    -0.0000430
  H        0.5326130     2.8174890    -0.0000320
  H        2.7737950     1.6707360     0.0000730
  H       -0.2550790    -2.5217040    -0.0000060
  H       -2.2189390     2.1099340    -0.0000460
  H        2.5289900    -1.9586870     0.8831790
  H        2.5285290    -1.9592090    -0.8826100
  H        3.6376590    -0.9002700    -0.0003210
  H       -2.7095800    -2.1783550    -0.0000520
  H       -3.6790270     0.0987570    -0.0000620
units angstrom
no_reorient  #important for SAPT in psi4, default
symmetry c1  #important for SAPT in psi4, default
}

set PROPERTIES_ORIGIN ["COM"]
properties('MP2/aug-cc-pvtz', properties = ['dipole'])
--------------------------------------------------------------------------

    Molecular point group: c1
  Charge       = 0
  Multiplicity = 1
  Basis Set: AUG-CC-PVTZ
    Blend: AUG-CC-PVTZ
  Basis Set: (AUG-CC-PVTZ AUX)
    Blend: AUG-CC-PVTZ-JKFIT

    Orbital Energies [Eh]
    ---------------------

    Doubly Occupied:

       1A    -15.599004     2A    -11.265388     3A    -11.263551
       4A    -11.231678     5A    -11.230929     6A    -11.229605
       7A    -11.222936     8A    -11.222021     9A    -11.221390
      10A    -11.220984    11A     -1.291492    12A     -1.126760
      13A     -1.071967    14A     -0.997330    15A     -0.985816
      16A     -0.931697    17A     -0.838840    18A     -0.803359
      19A     -0.755420    20A     -0.720011    21A     -0.660072
      22A     -0.644572    23A     -0.603246    24A     -0.592525
      25A     -0.591904    26A     -0.569877    27A     -0.551723
      28A     -0.542782    29A     -0.529555    30A     -0.497941
      31A     -0.474214    32A     -0.463159    33A     -0.374142
      34A     -0.298227    35A     -0.279692

  @DF-RHF Final Energy:  -400.64049565645507

   => Energetics <=

    Nuclear Repulsion Energy =            483.1958207326757702
    One-Electron Energy =               -1499.8650164361683892
    Two-Electron Energy =                 616.0287000470375460
    Total Energy =                       -400.6404956564550730
  Basis Set: (AUG-CC-PVTZ AUX)
    Blend: AUG-CC-PVTZ-RI
    Molecular point group: c1

    Geometry (in Angstrom), charge = 0, multiplicity = 1:

       Center              X                  Y                   Z               Mass
    ------------   -----------------  -----------------  -----------------  -----------------
         N            0.655965755054     1.789312186099     0.002049741252    14.003074004430
         C            0.201407755054    -0.413516813901     0.002079741252    12.000000000000
         C           -0.380817244946     0.884096186099     0.002050741252    12.000000000000
         C            1.635258855054    -0.240918013901    -0.020533358748    12.000000000000
         C            1.857264755054     1.108301186099     0.002132741252    12.000000000000
         C           -0.646395244946    -1.537155813901     0.002052741252    12.000000000000
         C           -1.766295244946     1.087791186099     0.002043741252    12.000000000000
         C            2.649173755054    -1.340096813901     0.002139741252    12.000000000000
         C           -2.020850244946    -1.340696813901     0.002038741252    12.000000000000
         C           -2.575115244946    -0.042063813901     0.002027741252    12.000000000000
         H            0.555473755054     2.795288186099     0.002038741252     1.007825032230
         H            2.796655755054     1.648535186099     0.002143741252     1.007825032230
         H           -0.232218244946    -2.543904813901     0.002064741252     1.007825032230
         H           -2.196078244946     2.087733186099     0.002024741252     1.007825032230
         H            2.551850755054    -1.980887813901     0.885249741252     1.007825032230
         H            2.551389755054    -1.981409813901    -0.880539258748     1.007825032230
         H            3.660519755054    -0.922470813901     0.001749741252     1.007825032230
         H           -2.686719244946    -2.200555813901     0.002018741252     1.007825032230
         H           -3.656166244946     0.076556186099     0.002008741252     1.007825032230

  Basis Set: AUG-CC-PVTZ
    Blend: AUG-CC-PVTZ
  Basis Set: (AUG-CC-PVTZ AUX)
    Blend: AUG-CC-PVTZ-JKFIT
	 Reference Energy          =    -400.6404956564550730 [Eh]
	 Singles Energy            =      -0.0000000000000000 [Eh]
	 Same-Spin Energy          =      -0.4514044465842874 [Eh]
	 Opposite-Spin Energy      =      -1.4037139848988649 [Eh]
	 Correlation Energy        =      -1.8551184314831524 [Eh]
	 Total Energy              =    -402.4956140879382360 [Eh]

	 ================> DF-SCS-MP2 Energies <==================
	-----------------------------------------------------------
	 SCS Same-Spin Scale       =       0.3333333333333333 [-]
	 SCS Opposite-Spin Scale   =       1.2000000000000000 [-]
	 SCS Same-Spin Energy      =      -0.1504681488614291 [Eh]
	 SCS Opposite-Spin Energy  =      -1.6844567818786378 [Eh]
	 SCS Correlation Energy    =      -1.8349249307400668 [Eh]
	 SCS Total Energy          =    -402.4754205871951172 [Eh]
	-----------------------------------------------------------

  Dipole Moment: [D]
     X:     0.9526      Y:     1.7913      Z:     0.0175     Total:     2.0289

*** Psi4 exiting successfully. Buy a developer a beer!
