                               Psi4 1.3.2 release

  ==> Input File <==

--------------------------------------------------------------------------
#psi4
#
memory 32 gb

molecule  {
0 1
  N        0.6331050     1.8115130    -0.0000210
  C        0.1785470    -0.3913160     0.0000090
  C       -0.4036780     0.9062970    -0.0000200
  C        1.6223741    -0.2102912    -0.0452052
  C        1.8344040     1.1305020     0.0000620
  C       -0.6692560    -1.5149550    -0.0000180
  C       -1.7891560     1.1099920    -0.0000270
  C        2.6263130    -1.3178960     0.0000690
  C       -2.0437110    -1.3184960    -0.0000320
  C       -2.5979760    -0.0198630    -0.0000430
  H        0.5326130     2.8174890    -0.0000320
  H        2.7737950     1.6707360     0.0000730
  H       -0.2550790    -2.5217040    -0.0000060
  H       -2.2189390     2.1099340    -0.0000460
  H        2.5289900    -1.9586870     0.8831790
  H        2.5285290    -1.9592090    -0.8826100
  H        3.6376590    -0.9002700    -0.0003210
  H       -2.7095800    -2.1783550    -0.0000520
  H       -3.6790270     0.0987570    -0.0000620
units angstrom
no_reorient  #important for SAPT in psi4, default
symmetry c1  #important for SAPT in psi4, default
}

set PROPERTIES_ORIGIN ["COM"]
properties('MP2/aug-cc-pvtz', properties = ['dipole'])
--------------------------------------------------------------------------

    Molecular point group: c1
  Charge       = 0
  Multiplicity = 1
  Basis Set: AUG-CC-PVTZ
    Blend: AUG-CC-PVTZ
  Basis Set: (AUG-CC-PVTZ AUX)
    Blend: AUG-CC-PVTZ-JKFIT

    Orbital Energies [Eh]
    ---------------------

    Doubly Occupied:

       1A    -15.598183     2A    -11.265511     3A    -11.262716
       4A    -11.231536     5A    -11.231181     6A    -11.229743
       7A    -11.223439     8A    -11.222098     9A    -11.221433
      10A    -11.220919    11A     -1.291330    12A     -1.126526
      13A     -1.071781    14A     -0.997362    15A     -0.985865
      16A     -0.932440    17A     -0.838692    18A     -0.802786
      19A     -0.754979    20A     -0.720003    21A     -0.660136
      22A     -0.644513    23A     -0.602986    24A     -0.592322
      25A     -0.591837    26A     -0.570117    27A     -0.552720
      28A     -0.542807    29A     -0.529190    30A     -0.498057
      31A     -0.472479    32A     -0.463197    33A     -0.373734
      34A     -0.297799    35A     -0.281646

  @DF-RHF Final Energy:  -400.64005838682334

   => Energetics <=

    Nuclear Repulsion Energy =            483.1126396616092507
    One-Electron Energy =               -1499.7012732987632262
    Two-Electron Energy =                 615.9485752503305775
    Total Energy =                       -400.6400583868233980
  Basis Set: (AUG-CC-PVTZ AUX)
    Blend: AUG-CC-PVTZ-RI
    Molecular point group: c1

    Geometry (in Angstrom), charge = 0, multiplicity = 1:

       Center              X                  Y                   Z               Mass
    ------------   -----------------  -----------------  -----------------  -----------------
         N            0.655052435423     1.788540771584     0.004118910089    14.003074004430
         C            0.200494435423    -0.414288228416     0.004148910089    12.000000000000
         C           -0.381730564577     0.883324771584     0.004119910089    12.000000000000
         C            1.644321535423    -0.233263428416    -0.041065289911    12.000000000000
         C            1.856351435423     1.107529771584     0.004201910089    12.000000000000
         C           -0.647308564577    -1.537927228416     0.004121910089    12.000000000000
         C           -1.767208564577     1.087019771584     0.004112910089    12.000000000000
         C            2.648260435423    -1.340868228416     0.004208910089    12.000000000000
         C           -2.021763564577    -1.341468228416     0.004107910089    12.000000000000
         C           -2.576028564577    -0.042835228416     0.004096910089    12.000000000000
         H            0.554560435423     2.794516771584     0.004107910089     1.007825032230
         H            2.795742435423     1.647763771584     0.004212910089     1.007825032230
         H           -0.233131564577    -2.544676228416     0.004133910089     1.007825032230
         H           -2.196991564577     2.086961771584     0.004093910089     1.007825032230
         H            2.550937435423    -1.981659228416     0.887318910089     1.007825032230
         H            2.550476435423    -1.982181228416    -0.878470089911     1.007825032230
         H            3.659606435423    -0.923242228416     0.003818910089     1.007825032230
         H           -2.687632564577    -2.201327228416     0.004087910089     1.007825032230
         H           -3.657079564577     0.075784771584     0.004077910089     1.007825032230

  Basis Set: AUG-CC-PVTZ
    Blend: AUG-CC-PVTZ
  Basis Set: (AUG-CC-PVTZ AUX)
    Blend: AUG-CC-PVTZ-JKFIT
	 Reference Energy          =    -400.6400583868233412 [Eh]
	 Singles Energy            =      -0.0000000000000000 [Eh]
	 Same-Spin Energy          =      -0.4511475522647409 [Eh]
	 Opposite-Spin Energy      =      -1.4033657473888548 [Eh]
	 Correlation Energy        =      -1.8545132996535956 [Eh]
	 Total Energy              =    -402.4945716864769452 [Eh]

	 ================> DF-SCS-MP2 Energies <==================
	-----------------------------------------------------------
	 SCS Same-Spin Scale       =       0.3333333333333333 [-]
	 SCS Opposite-Spin Scale   =       1.2000000000000000 [-]
	 SCS Same-Spin Energy      =      -0.1503825174215803 [Eh]
	 SCS Opposite-Spin Energy  =      -1.6840388968666258 [Eh]
	 SCS Correlation Energy    =      -1.8344214142882060 [Eh]
	 SCS Total Energy          =    -402.4744798011115563 [Eh]
	-----------------------------------------------------------

  Dipole Moment: [D]
     X:     0.9464      Y:     1.7784      Z:     0.0351     Total:     2.0148

*** Psi4 exiting successfully. Buy a developer a beer!
