                               Psi4 1.3.2 release

  ==> Input File <==

--------------------------------------------------------------------------
#psi4
#
memory 32 gb

molecule  {
0 1
  N        0.6331050     1.8115130    -0.0000210
  C        0.2034746    -0.5392862     0.0000175
  C       -0.4036780     0.9062970    -0.0000200
  C        1.6027310    -0.2274780     0.0000040
  C        1.8344040     1.1305020     0.0000620
  C       -0.6692560    -1.5149550    -0.0000180
  C       -1.7891560     1.1099920    -0.0000270
  C        2.6263130    -1.3178960     0.0000690
  C       -2.0437110    -1.3184960    -0.0000320
  C       -2.5979760    -0.0198630    -0.0000430
  H        0.5326130     2.8174890    -0.0000320
  H        2.7737950     1.6707360     0.0000730
  H       -0.2550790    -2.5217040    -0.0000060
  H       -2.2189390     2.1099340    -0.0000460
  H        2.5289900    -1.9586870     0.8831790
  H        2.5285290    -1.9592090    -0.8826100
  H        3.6376590    -0.9002700    -0.0003210
  H       -2.7095800    -2.1783550    -0.0000520
  H       -3.6790270     0.0987570    -0.0000620
units angstrom
no_reorient  #important for SAPT in psi4, default
symmetry c1  #important for SAPT in psi4, default
}

set PROPERTIES_ORIGIN ["COM"]
properties('MP2/aug-cc-pvtz', properties = ['dipole'])
--------------------------------------------------------------------------

    Molecular point group: c1
  Charge       = 0
  Multiplicity = 1
  Basis Set: AUG-CC-PVTZ
    Blend: AUG-CC-PVTZ
  Basis Set: (AUG-CC-PVTZ AUX)
    Blend: AUG-CC-PVTZ-JKFIT

    Orbital Energies [Eh]
    ---------------------

    Doubly Occupied:

       1A    -15.605364     2A    -11.279189     3A    -11.270529
       4A    -11.230359     5A    -11.229328     6A    -11.227891
       7A    -11.227106     8A    -11.220400     9A    -11.218908
      10A    -11.218734    11A     -1.288080    12A     -1.130309
      13A     -1.076063    14A     -1.005470    15A     -0.977606
      16A     -0.930056    17A     -0.842293    18A     -0.812204
      19A     -0.749206    20A     -0.719525    21A     -0.669664
      22A     -0.647391    23A     -0.604123    24A     -0.589871
      25A     -0.586550    26A     -0.576282    27A     -0.549695
      28A     -0.538480    29A     -0.530572    30A     -0.509868
      31A     -0.467861    32A     -0.442426    33A     -0.388592
      34A     -0.286573    35A     -0.281130

  @DF-RHF Final Energy:  -400.61155619942451

   => Energetics <=

    Nuclear Repulsion Energy =            482.0974806059399498
    One-Electron Energy =               -1497.5626799899303023
    Two-Electron Energy =                 614.8536431845658399
    Total Energy =                       -400.6115561994245127
  Basis Set: (AUG-CC-PVTZ AUX)
    Blend: AUG-CC-PVTZ-RI
    Molecular point group: c1

    Geometry (in Angstrom), charge = 0, multiplicity = 1:

       Center              X                  Y                   Z               Mass
    ------------   -----------------  -----------------  -----------------  -----------------
         N            0.654568630532     1.803661173577    -0.000020846635    14.003074004430
         C            0.224938230532    -0.547138026423     0.000017653365    12.000000000000
         C           -0.382214369468     0.898445173577    -0.000019846635    12.000000000000
         C            1.624194630532    -0.235329826423     0.000004153365    12.000000000000
         C            1.855867630532     1.122650173577     0.000062153365    12.000000000000
         C           -0.647792369468    -1.522806826423    -0.000017846635    12.000000000000
         C           -1.767692369468     1.102140173577    -0.000026846635    12.000000000000
         C            2.647776630532    -1.325747826423     0.000069153365    12.000000000000
         C           -2.022247369468    -1.326347826423    -0.000031846635    12.000000000000
         C           -2.576512369468    -0.027714826423    -0.000042846635    12.000000000000
         H            0.554076630532     2.809637173577    -0.000031846635     1.007825032230
         H            2.795258630532     1.662884173577     0.000073153365     1.007825032230
         H           -0.233615369468    -2.529555826423    -0.000005846635     1.007825032230
         H           -2.197475369468     2.102082173577    -0.000045846635     1.007825032230
         H            2.550453630532    -1.966538826423     0.883179153365     1.007825032230
         H            2.549992630532    -1.967060826423    -0.882609846635     1.007825032230
         H            3.659122630532    -0.908121826423    -0.000320846635     1.007825032230
         H           -2.688116369468    -2.186206826423    -0.000051846635     1.007825032230
         H           -3.657563369468     0.090905173577    -0.000061846635     1.007825032230

  Basis Set: AUG-CC-PVTZ
    Blend: AUG-CC-PVTZ
  Basis Set: (AUG-CC-PVTZ AUX)
    Blend: AUG-CC-PVTZ-JKFIT
	 Reference Energy          =    -400.6115561994245127 [Eh]
	 Singles Energy            =      -0.0000000000000000 [Eh]
	 Same-Spin Energy          =      -0.4529884306687152 [Eh]
	 Opposite-Spin Energy      =      -1.4061727053226167 [Eh]
	 Correlation Energy        =      -1.8591611359913320 [Eh]
	 Total Energy              =    -402.4707173354158272 [Eh]

	 ================> DF-SCS-MP2 Energies <==================
	-----------------------------------------------------------
	 SCS Same-Spin Scale       =       0.3333333333333333 [-]
	 SCS Opposite-Spin Scale   =       1.2000000000000000 [-]
	 SCS Same-Spin Energy      =      -0.1509961435562384 [Eh]
	 SCS Opposite-Spin Energy  =      -1.6874072463871401 [Eh]
	 SCS Correlation Energy    =      -1.8384033899433785 [Eh]
	 SCS Total Energy          =    -402.4499595893678929 [Eh]
	-----------------------------------------------------------

  Dipole Moment: [D]
     X:     1.0292      Y:     1.9968      Z:     0.0000     Total:     2.2464

*** Psi4 exiting successfully. Buy a developer a beer!
