                               Psi4 1.3.2 release

  ==> Input File <==

--------------------------------------------------------------------------
#psi4
#
memory 32 gb

molecule  {
0 1
  N        0.6331050     1.8115130    -0.0000210
  C        0.1785470    -0.3913160     0.0000090
  C       -0.4036780     0.9062970    -0.0000200
  C        1.6653043    -0.1799852    -0.1354032
  C        1.8344040     1.1305020     0.0000620
  C       -0.6692560    -1.5149550    -0.0000180
  C       -1.7891560     1.1099920    -0.0000270
  C        2.6263130    -1.3178960     0.0000690
  C       -2.0437110    -1.3184960    -0.0000320
  C       -2.5979760    -0.0198630    -0.0000430
  H        0.5326130     2.8174890    -0.0000320
  H        2.7737950     1.6707360     0.0000730
  H       -0.2550790    -2.5217040    -0.0000060
  H       -2.2189390     2.1099340    -0.0000460
  H        2.5289900    -1.9586870     0.8831790
  H        2.5285290    -1.9592090    -0.8826100
  H        3.6376590    -0.9002700    -0.0003210
  H       -2.7095800    -2.1783550    -0.0000520
  H       -3.6790270     0.0987570    -0.0000620
units angstrom
no_reorient  #important for SAPT in psi4, default
symmetry c1  #important for SAPT in psi4, default
}

set PROPERTIES_ORIGIN ["COM"]
properties('MP2/aug-cc-pvtz', properties = ['dipole'])
--------------------------------------------------------------------------

    Molecular point group: c1
  Charge       = 0
  Multiplicity = 1
  Basis Set: AUG-CC-PVTZ
    Blend: AUG-CC-PVTZ
  Basis Set: (AUG-CC-PVTZ AUX)
    Blend: AUG-CC-PVTZ-JKFIT

    Orbital Energies [Eh]
    ---------------------

    Doubly Occupied:

       1A    -15.595990     2A    -11.266073     3A    -11.261207
       4A    -11.231841     5A    -11.231255     6A    -11.230000
       7A    -11.226062     8A    -11.222737     9A    -11.222033
      10A    -11.220682    11A     -1.290795    12A     -1.125760
      13A     -1.071019    14A     -0.997631    15A     -0.985782
      16A     -0.934995    17A     -0.838106    18A     -0.800706
      19A     -0.753010    20A     -0.720355    21A     -0.659845
      22A     -0.643985    23A     -0.602136    24A     -0.591583
      25A     -0.591228    26A     -0.572543    27A     -0.558288
      28A     -0.540791    29A     -0.526774    30A     -0.497303
      31A     -0.465779    32A     -0.460577    33A     -0.372085
      34A     -0.296485    35A     -0.288685

  @DF-RHF Final Energy:  -400.63117902347454

   => Energetics <=

    Nuclear Repulsion Energy =            482.6004780964810266
    One-Electron Energy =               -1498.6750611132811173
    Two-Electron Energy =                 615.4434039933255463
    Total Energy =                       -400.6311790234744876
  Basis Set: (AUG-CC-PVTZ AUX)
    Blend: AUG-CC-PVTZ-RI
    Molecular point group: c1

    Geometry (in Angstrom), charge = 0, multiplicity = 1:

       Center              X                  Y                   Z               Mass
    ------------   -----------------  -----------------  -----------------  -----------------
         N            0.651122103184     1.785766206153     0.012376689165    14.003074004430
         C            0.196564103184    -0.417062793847     0.012406689165    12.000000000000
         C           -0.385660896816     0.880550206153     0.012377689165    12.000000000000
         C            1.683321403184    -0.205731993847    -0.123005510835    12.000000000000
         C            1.852421103184     1.104755206153     0.012459689165    12.000000000000
         C           -0.651238896816    -1.540701793847     0.012379689165    12.000000000000
         C           -1.771138896816     1.084245206153     0.012370689165    12.000000000000
         C            2.644330103184    -1.343642793847     0.012466689165    12.000000000000
         C           -2.025693896816    -1.344242793847     0.012365689165    12.000000000000
         C           -2.579958896816    -0.045609793847     0.012354689165    12.000000000000
         H            0.550630103184     2.791742206153     0.012365689165     1.007825032230
         H            2.791812103184     1.644989206153     0.012470689165     1.007825032230
         H           -0.237061896816    -2.547450793847     0.012391689165     1.007825032230
         H           -2.200921896816     2.084187206153     0.012351689165     1.007825032230
         H            2.547007103184    -1.984433793847     0.895576689165     1.007825032230
         H            2.546546103184    -1.984955793847    -0.870212310835     1.007825032230
         H            3.655676103184    -0.926016793847     0.012076689165     1.007825032230
         H           -2.691562896816    -2.204101793847     0.012345689165     1.007825032230
         H           -3.661009896816     0.073010206153     0.012335689165     1.007825032230

  Basis Set: AUG-CC-PVTZ
    Blend: AUG-CC-PVTZ
  Basis Set: (AUG-CC-PVTZ AUX)
    Blend: AUG-CC-PVTZ-JKFIT
	 Reference Energy          =    -400.6311790234745445 [Eh]
	 Singles Energy            =      -0.0000000000000000 [Eh]
	 Same-Spin Energy          =      -0.4504642569156657 [Eh]
	 Opposite-Spin Energy      =      -1.4027338186562015 [Eh]
	 Correlation Energy        =      -1.8531980755718671 [Eh]
	 Total Energy              =    -402.4843770990464122 [Eh]

	 ================> DF-SCS-MP2 Energies <==================
	-----------------------------------------------------------
	 SCS Same-Spin Scale       =       0.3333333333333333 [-]
	 SCS Opposite-Spin Scale   =       1.2000000000000000 [-]
	 SCS Same-Spin Energy      =      -0.1501547523052219 [Eh]
	 SCS Opposite-Spin Energy  =      -1.6832805823874417 [Eh]
	 SCS Correlation Energy    =      -1.8334353346926635 [Eh]
	 SCS Total Energy          =    -402.4646143581671822 [Eh]
	-----------------------------------------------------------

  Dipole Moment: [D]
     X:     0.9065      Y:     1.7386      Z:     0.1069     Total:     1.9637

*** Psi4 exiting successfully. Buy a developer a beer!
