                               Psi4 1.3.2 release

  ==> Input File <==

--------------------------------------------------------------------------
#psi4
#
memory 32 gb

molecule  {
0 1
  N        0.6331050     1.8115130    -0.0000210
  C        0.1785470    -0.3913160     0.0000090
  C       -0.4036780     0.9062970    -0.0000200
  C        1.5933757    -0.2365710     0.0226121
  C        1.8344040     1.1305020     0.0000620
  C       -0.6692560    -1.5149550    -0.0000180
  C       -1.7891560     1.1099920    -0.0000270
  C        2.6263130    -1.3178960     0.0000690
  C       -2.0437110    -1.3184960    -0.0000320
  C       -2.5979760    -0.0198630    -0.0000430
  H        0.5326130     2.8174890    -0.0000320
  H        2.7737950     1.6707360     0.0000730
  H       -0.2550790    -2.5217040    -0.0000060
  H       -2.2189390     2.1099340    -0.0000460
  H        2.5289900    -1.9586870     0.8831790
  H        2.5285290    -1.9592090    -0.8826100
  H        3.6376590    -0.9002700    -0.0003210
  H       -2.7095800    -2.1783550    -0.0000520
  H       -3.6790270     0.0987570    -0.0000620
units angstrom
no_reorient  #important for SAPT in psi4, default
symmetry c1  #important for SAPT in psi4, default
}

set PROPERTIES_ORIGIN ["COM"]
properties('MP2/aug-cc-pvtz', properties = ['dipole'])
--------------------------------------------------------------------------

    Molecular point group: c1
  Charge       = 0
  Multiplicity = 1
  Basis Set: AUG-CC-PVTZ
    Blend: AUG-CC-PVTZ
  Basis Set: (AUG-CC-PVTZ AUX)
    Blend: AUG-CC-PVTZ-JKFIT

    Orbital Energies [Eh]
    ---------------------

    Doubly Occupied:

       1A    -15.600952     2A    -11.265707     3A    -11.265159
       4A    -11.232025     5A    -11.230320     6A    -11.229252
       7A    -11.222850     8A    -11.221487     9A    -11.221219
      10A    -11.221105    11A     -1.291846    12A     -1.127274
      13A     -1.072318    14A     -0.997313    15A     -0.985630
      16A     -0.930111    17A     -0.839131    18A     -0.804554
      19A     -0.756198    20A     -0.720133    21A     -0.659779
      22A     -0.644595    23A     -0.603822    24A     -0.592921
      25A     -0.591945    26A     -0.569534    27A     -0.551670
      28A     -0.541513    29A     -0.529491    30A     -0.497161
      31A     -0.477168    32A     -0.462942    33A     -0.374933
      34A     -0.299130    35A     -0.275679

  @DF-RHF Final Energy:  -400.63914453836151

   => Energetics <=

    Nuclear Repulsion Energy =            483.3079781973846707
    One-Electron Energy =               -1500.0805090970484343
    Two-Electron Energy =                 616.1333863613022004
    Total Energy =                       -400.6391445383615064
  Basis Set: (AUG-CC-PVTZ AUX)
    Blend: AUG-CC-PVTZ-RI
    Molecular point group: c1

    Geometry (in Angstrom), charge = 0, multiplicity = 1:

       Center              X                  Y                   Z               Mass
    ------------   -----------------  -----------------  -----------------  -----------------
         N            0.657707287867     1.790946731611    -0.002089878144    14.003074004430
         C            0.203149287867    -0.411882268389    -0.002059878144    12.000000000000
         C           -0.379075712133     0.885730731611    -0.002088878144    12.000000000000
         C            1.617977987867    -0.257137268389     0.020543221856    12.000000000000
         C            1.859006287867     1.109935731611    -0.002006878144    12.000000000000
         C           -0.644653712133    -1.535521268389    -0.002086878144    12.000000000000
         C           -1.764553712133     1.089425731611    -0.002095878144    12.000000000000
         C            2.650915287867    -1.338462268389    -0.001999878144    12.000000000000
         C           -2.019108712133    -1.339062268389    -0.002100878144    12.000000000000
         C           -2.573373712133    -0.040429268389    -0.002111878144    12.000000000000
         H            0.557215287867     2.796922731611    -0.002100878144     1.007825032230
         H            2.798397287867     1.650169731611    -0.001995878144     1.007825032230
         H           -0.230476712133    -2.542270268389    -0.002074878144     1.007825032230
         H           -2.194336712133     2.089367731611    -0.002114878144     1.007825032230
         H            2.553592287867    -1.979253268389     0.881110121856     1.007825032230
         H            2.553131287867    -1.979775268389    -0.884678878144     1.007825032230
         H            3.662261287867    -0.920836268389    -0.002389878144     1.007825032230
         H           -2.684977712133    -2.198921268389    -0.002120878144     1.007825032230
         H           -3.654424712133     0.078190731611    -0.002130878144     1.007825032230

  Basis Set: AUG-CC-PVTZ
    Blend: AUG-CC-PVTZ
  Basis Set: (AUG-CC-PVTZ AUX)
    Blend: AUG-CC-PVTZ-JKFIT
	 Reference Energy          =    -400.6391445383615064 [Eh]
	 Singles Energy            =      -0.0000000000000000 [Eh]
	 Same-Spin Energy          =      -0.4520076905156208 [Eh]
	 Opposite-Spin Energy      =      -1.4045955519408537 [Eh]
	 Correlation Energy        =      -1.8566032424564747 [Eh]
	 Total Energy              =    -402.4957477808179647 [Eh]

	 ================> DF-SCS-MP2 Energies <==================
	-----------------------------------------------------------
	 SCS Same-Spin Scale       =       0.3333333333333333 [-]
	 SCS Opposite-Spin Scale   =       1.2000000000000000 [-]
	 SCS Same-Spin Energy      =      -0.1506692301718736 [Eh]
	 SCS Opposite-Spin Energy  =      -1.6855146623290245 [Eh]
	 SCS Correlation Energy    =      -1.8361838925008982 [Eh]
	 SCS Total Energy          =    -402.4753284308624188 [Eh]
	-----------------------------------------------------------

  Dipole Moment: [D]
     X:     0.9602      Y:     1.8195      Z:    -0.0174     Total:     2.0574

*** Psi4 exiting successfully. Buy a developer a beer!
