                               Psi4 1.3.2 release

  ==> Input File <==

--------------------------------------------------------------------------
#psi4
#
memory 32 gb

molecule  {
0 1
  N        0.6331050     1.8115130    -0.0000210
  C        0.1759045    -0.3664356     0.0000076
  C       -0.4036780     0.9062970    -0.0000200
  C        1.6027310    -0.2274780     0.0000040
  C        1.8344040     1.1305020     0.0000620
  C       -0.6692560    -1.5149550    -0.0000180
  C       -1.7891560     1.1099920    -0.0000270
  C        2.6263130    -1.3178960     0.0000690
  C       -2.0437110    -1.3184960    -0.0000320
  C       -2.5979760    -0.0198630    -0.0000430
  H        0.5326130     2.8174890    -0.0000320
  H        2.7737950     1.6707360     0.0000730
  H       -0.2550790    -2.5217040    -0.0000060
  H       -2.2189390     2.1099340    -0.0000460
  H        2.5289900    -1.9586870     0.8831790
  H        2.5285290    -1.9592090    -0.8826100
  H        3.6376590    -0.9002700    -0.0003210
  H       -2.7095800    -2.1783550    -0.0000520
  H       -3.6790270     0.0987570    -0.0000620
units angstrom
no_reorient  #important for SAPT in psi4, default
symmetry c1  #important for SAPT in psi4, default
}

set PROPERTIES_ORIGIN ["COM"]
properties('MP2/aug-cc-pvtz', properties = ['dipole'])
--------------------------------------------------------------------------

    Molecular point group: c1
  Charge       = 0
  Multiplicity = 1
  Basis Set: AUG-CC-PVTZ
    Blend: AUG-CC-PVTZ
  Basis Set: (AUG-CC-PVTZ AUX)
    Blend: AUG-CC-PVTZ-JKFIT

    Orbital Energies [Eh]
    ---------------------

    Doubly Occupied:

       1A    -15.598771     2A    -11.263674     3A    -11.262211
       4A    -11.232489     5A    -11.232324     6A    -11.229533
       7A    -11.222236     8A    -11.221545     9A    -11.221389
      10A    -11.220530    11A     -1.292563    12A     -1.126650
      13A     -1.071495    14A     -0.997016    15A     -0.986781
      16A     -0.930907    17A     -0.838832    18A     -0.802087
      19A     -0.757340    20A     -0.719952    21A     -0.658661
      22A     -0.644255    23A     -0.604155    24A     -0.592641
      25A     -0.592509    26A     -0.568597    27A     -0.551735
      28A     -0.543138    29A     -0.529425    30A     -0.494724
      31A     -0.479947    32A     -0.462411    33A     -0.372150
      34A     -0.301183    35A     -0.277311

  @DF-RHF Final Energy:  -400.63988487241238

   => Energetics <=

    Nuclear Repulsion Energy =            483.4747766731973684
    One-Electron Energy =               -1500.4269948615408339
    Two-Electron Energy =                 616.3123333159311414
    Total Energy =                       -400.6398848724123809
  Basis Set: (AUG-CC-PVTZ AUX)
    Blend: AUG-CC-PVTZ-RI
    Molecular point group: c1

    Geometry (in Angstrom), charge = 0, multiplicity = 1:

       Center              X                  Y                   Z               Mass
    ------------   -----------------  -----------------  -----------------  -----------------
         N            0.657092719702     1.787836409523    -0.000019940273    14.003074004430
         C            0.199892219702    -0.390112190477     0.000008659727    12.000000000000
         C           -0.379690280298     0.882620409523    -0.000018940273    12.000000000000
         C            1.626718719702    -0.251154590477     0.000005059727    12.000000000000
         C            1.858391719702     1.106825409523     0.000063059727    12.000000000000
         C           -0.645268280298    -1.538631590477    -0.000016940273    12.000000000000
         C           -1.765168280298     1.086315409523    -0.000025940273    12.000000000000
         C            2.650300719702    -1.341572590477     0.000070059727    12.000000000000
         C           -2.019723280298    -1.342172590477    -0.000030940273    12.000000000000
         C           -2.573988280298    -0.043539590477    -0.000041940273    12.000000000000
         H            0.556600719702     2.793812409523    -0.000030940273     1.007825032230
         H            2.797782719702     1.647059409523     0.000074059727     1.007825032230
         H           -0.231091280298    -2.545380590477    -0.000004940273     1.007825032230
         H           -2.194951280298     2.086257409523    -0.000044940273     1.007825032230
         H            2.552977719702    -1.982363590477     0.883180059727     1.007825032230
         H            2.552516719702    -1.982885590477    -0.882608940273     1.007825032230
         H            3.661646719702    -0.923946590477    -0.000319940273     1.007825032230
         H           -2.685592280298    -2.202031590477    -0.000050940273     1.007825032230
         H           -3.655039280298     0.075080409523    -0.000060940273     1.007825032230

  Basis Set: AUG-CC-PVTZ
    Blend: AUG-CC-PVTZ
  Basis Set: (AUG-CC-PVTZ AUX)
    Blend: AUG-CC-PVTZ-JKFIT
	 Reference Energy          =    -400.6398848724123809 [Eh]
	 Singles Energy            =      -0.0000000000000000 [Eh]
	 Same-Spin Energy          =      -0.4514603551053607 [Eh]
	 Opposite-Spin Energy      =      -1.4039982347131725 [Eh]
	 Correlation Energy        =      -1.8554585898185332 [Eh]
	 Total Energy              =    -402.4953434622308919 [Eh]

	 ================> DF-SCS-MP2 Energies <==================
	-----------------------------------------------------------
	 SCS Same-Spin Scale       =       0.3333333333333333 [-]
	 SCS Opposite-Spin Scale   =       1.2000000000000000 [-]
	 SCS Same-Spin Energy      =      -0.1504867850351202 [Eh]
	 SCS Opposite-Spin Energy  =      -1.6847978816558069 [Eh]
	 SCS Correlation Energy    =      -1.8352846666909270 [Eh]
	 SCS Total Energy          =    -402.4751695391033195 [Eh]
	-----------------------------------------------------------

  Dipole Moment: [D]
     X:     0.9386      Y:     1.7679      Z:     0.0000     Total:     2.0016

*** Psi4 exiting successfully. Buy a developer a beer!
