                               Psi4 1.3.2 release

  ==> Input File <==

--------------------------------------------------------------------------
#psi4
#
memory 32 gb

molecule  {
0 1
  N        0.6331050     1.8115130    -0.0000210
  C        0.1785470    -0.3913160     0.0000090
  C       -0.4036780     0.9062970    -0.0000200
  C        1.6027310    -0.2274780     0.0000040
  C        1.9285676     1.1110333     0.0000702
  C       -0.6692560    -1.5149550    -0.0000180
  C       -1.7891560     1.1099920    -0.0000270
  C        2.6263130    -1.3178960     0.0000690
  C       -2.0437110    -1.3184960    -0.0000320
  C       -2.5979760    -0.0198630    -0.0000430
  H        0.5326130     2.8174890    -0.0000320
  H        2.7737950     1.6707360     0.0000730
  H       -0.2550790    -2.5217040    -0.0000060
  H       -2.2189390     2.1099340    -0.0000460
  H        2.5289900    -1.9586870     0.8831790
  H        2.5285290    -1.9592090    -0.8826100
  H        3.6376590    -0.9002700    -0.0003210
  H       -2.7095800    -2.1783550    -0.0000520
  H       -3.6790270     0.0987570    -0.0000620
units angstrom
no_reorient  #important for SAPT in psi4, default
symmetry c1  #important for SAPT in psi4, default
}

set PROPERTIES_ORIGIN ["COM"]
properties('MP2/aug-cc-pvtz', properties = ['dipole'])
--------------------------------------------------------------------------

    Molecular point group: c1
  Charge       = 0
  Multiplicity = 1
  Basis Set: AUG-CC-PVTZ
    Blend: AUG-CC-PVTZ
  Basis Set: (AUG-CC-PVTZ AUX)
    Blend: AUG-CC-PVTZ-JKFIT

    Orbital Energies [Eh]
    ---------------------

    Doubly Occupied:

       1A    -15.592582     2A    -11.268548     3A    -11.263902
       4A    -11.234601     5A    -11.233277     6A    -11.231647
       7A    -11.230267     8A    -11.222832     9A    -11.222010
      10A    -11.220836    11A     -1.267362    12A     -1.124461
      13A     -1.073773    14A     -0.996974    15A     -0.986061
      16A     -0.929594    17A     -0.842248    18A     -0.805784
      19A     -0.756658    20A     -0.709540    21A     -0.659798
      22A     -0.651476    23A     -0.600967    24A     -0.591181
      25A     -0.585464    26A     -0.581654    27A     -0.546909
      28A     -0.535091    29A     -0.530960    30A     -0.499482
      31A     -0.478091    32A     -0.458029    33A     -0.376928
      34A     -0.294201    35A     -0.285139

  @DF-RHF Final Energy:  -400.62827142194334

   => Energetics <=

    Nuclear Repulsion Energy =            481.6737915040366715
    One-Electron Energy =               -1496.8274679175044639
    Two-Electron Energy =                 614.5254049915245105
    Total Energy =                       -400.6282714219432819
  Basis Set: (AUG-CC-PVTZ AUX)
    Blend: AUG-CC-PVTZ-RI
    Molecular point group: c1

    Geometry (in Angstrom), charge = 0, multiplicity = 1:

       Center              X                  Y                   Z               Mass
    ------------   -----------------  -----------------  -----------------  -----------------
         N            0.648229957921     1.791896644452    -0.000020819170    14.003074004430
         C            0.193671957921    -0.410932355548     0.000009180830    12.000000000000
         C           -0.388553042079     0.886680644452    -0.000019819170    12.000000000000
         C            1.617855957921    -0.247094355548     0.000004180830    12.000000000000
         C            1.943692557921     1.091416944452     0.000070380830    12.000000000000
         C           -0.654131042079    -1.534571355548    -0.000017819170    12.000000000000
         C           -1.774031042079     1.090375644452    -0.000026819170    12.000000000000
         C            2.641437957921    -1.337512355548     0.000069180830    12.000000000000
         C           -2.028586042079    -1.338112355548    -0.000031819170    12.000000000000
         C           -2.582851042079    -0.039479355548    -0.000042819170    12.000000000000
         H            0.547737957921     2.797872644452    -0.000031819170     1.007825032230
         H            2.788919957921     1.651119644452     0.000073180830     1.007825032230
         H           -0.239954042079    -2.541320355548    -0.000005819170     1.007825032230
         H           -2.203814042079     2.090317644452    -0.000045819170     1.007825032230
         H            2.544114957921    -1.978303355548     0.883179180830     1.007825032230
         H            2.543653957921    -1.978825355548    -0.882609819170     1.007825032230
         H            3.652783957921    -0.919886355548    -0.000320819170     1.007825032230
         H           -2.694455042079    -2.197971355548    -0.000051819170     1.007825032230
         H           -3.663902042079     0.079140644452    -0.000061819170     1.007825032230

  Basis Set: AUG-CC-PVTZ
    Blend: AUG-CC-PVTZ
  Basis Set: (AUG-CC-PVTZ AUX)
    Blend: AUG-CC-PVTZ-JKFIT
	 Reference Energy          =    -400.6282714219433387 [Eh]
	 Singles Energy            =      -0.0000000000000000 [Eh]
	 Same-Spin Energy          =      -0.4512613303874728 [Eh]
	 Opposite-Spin Energy      =      -1.4052837833345495 [Eh]
	 Correlation Energy        =      -1.8565451137220224 [Eh]
	 Total Energy              =    -402.4848165356653453 [Eh]

	 ================> DF-SCS-MP2 Energies <==================
	-----------------------------------------------------------
	 SCS Same-Spin Scale       =       0.3333333333333333 [-]
	 SCS Opposite-Spin Scale   =       1.2000000000000000 [-]
	 SCS Same-Spin Energy      =      -0.1504204434624909 [Eh]
	 SCS Opposite-Spin Energy  =      -1.6863405400014593 [Eh]
	 SCS Correlation Energy    =      -1.8367609834639502 [Eh]
	 SCS Total Energy          =    -402.4650324054072712 [Eh]
	-----------------------------------------------------------

  Dipole Moment: [D]
     X:     0.9867      Y:     1.6234      Z:     0.0000     Total:     1.8998

*** Psi4 exiting successfully. Buy a developer a beer!
