                               Psi4 1.3.2 release

  ==> Input File <==

--------------------------------------------------------------------------
#psi4
#
memory 32 gb

molecule  {
0 1
  N        0.6331050     1.8115130    -0.0000210
  C        0.1785470    -0.3913160     0.0000090
  C       -0.4036780     0.9062970    -0.0000200
  C        1.6027310    -0.2274780     0.0000040
  C        1.8344040     1.1305020     0.0000620
  C       -0.6692560    -1.5149550    -0.0000180
  C       -1.7891560     1.1099920    -0.0000270
  C        2.7631948    -1.4637157     0.0000777
  C       -2.0437110    -1.3184960    -0.0000320
  C       -2.5979760    -0.0198630    -0.0000430
  H        0.5326130     2.8174890    -0.0000320
  H        2.7737950     1.6707360     0.0000730
  H       -0.2550790    -2.5217040    -0.0000060
  H       -2.2189390     2.1099340    -0.0000460
  H        2.5289900    -1.9586870     0.8831790
  H        2.5285290    -1.9592090    -0.8826100
  H        3.6376590    -0.9002700    -0.0003210
  H       -2.7095800    -2.1783550    -0.0000520
  H       -3.6790270     0.0987570    -0.0000620
units angstrom
no_reorient  #important for SAPT in psi4, default
symmetry c1  #important for SAPT in psi4, default
}

set PROPERTIES_ORIGIN ["COM"]
properties('MP2/aug-cc-pvtz', properties = ['dipole'])
--------------------------------------------------------------------------

    Molecular point group: c1
  Charge       = 0
  Multiplicity = 1
  Basis Set: AUG-CC-PVTZ
    Blend: AUG-CC-PVTZ
  Basis Set: (AUG-CC-PVTZ AUX)
    Blend: AUG-CC-PVTZ-JKFIT

    Orbital Energies [Eh]
    ---------------------

    Doubly Occupied:

       1A    -15.598732     2A    -11.264135     3A    -11.263046
       4A    -11.231002     5A    -11.229771     6A    -11.228435
       7A    -11.228104     8A    -11.222730     9A    -11.221757
      10A    -11.220198    11A     -1.289982    12A     -1.125773
      13A     -1.058868    14A     -0.994636    15A     -0.981336
      16A     -0.937563    17A     -0.838005    18A     -0.801756
      19A     -0.753487    20A     -0.717395    21A     -0.657472
      22A     -0.642268    23A     -0.605229    24A     -0.600989
      25A     -0.591050    26A     -0.579713    27A     -0.571147
      28A     -0.542973    29A     -0.503099    30A     -0.501901
      31A     -0.462104    32A     -0.453474    33A     -0.377182
      34A     -0.297838    35A     -0.277215

  @DF-RHF Final Energy:  -400.61268017875773

   => Energetics <=

    Nuclear Repulsion Energy =            479.9836087829868347
    One-Electron Energy =               -1493.4518486930537620
    Two-Electron Energy =                 612.8555597313091994
    Total Energy =                       -400.6126801787577278
  Basis Set: (AUG-CC-PVTZ AUX)
    Blend: AUG-CC-PVTZ-RI
    Molecular point group: c1

    Geometry (in Angstrom), charge = 0, multiplicity = 1:

       Center              X                  Y                   Z               Mass
    ------------   -----------------  -----------------  -----------------  -----------------
         N            0.644319034640     1.803464291674    -0.000020864945    14.003074004430
         C            0.189761034640    -0.399364708326     0.000009135055    12.000000000000
         C           -0.392463965360     0.898248291674    -0.000019864945    12.000000000000
         C            1.613945034640    -0.235526708326     0.000004135055    12.000000000000
         C            1.845618034640     1.122453291674     0.000062135055    12.000000000000
         C           -0.658041965360    -1.523003708326    -0.000017864945    12.000000000000
         C           -1.777941965360     1.101943291674    -0.000026864945    12.000000000000
         C            2.774408834640    -1.471764408326     0.000077835055    12.000000000000
         C           -2.032496965360    -1.326544708326    -0.000031864945    12.000000000000
         C           -2.586761965360    -0.027911708326    -0.000042864945    12.000000000000
         H            0.543827034640     2.809440291674    -0.000031864945     1.007825032230
         H            2.785009034640     1.662687291674     0.000073135055     1.007825032230
         H           -0.243864965360    -2.529752708326    -0.000005864945     1.007825032230
         H           -2.207724965360     2.101885291674    -0.000045864945     1.007825032230
         H            2.540204034640    -1.966735708326     0.883179135055     1.007825032230
         H            2.539743034640    -1.967257708326    -0.882609864945     1.007825032230
         H            3.648873034640    -0.908318708326    -0.000320864945     1.007825032230
         H           -2.698365965360    -2.186403708326    -0.000051864945     1.007825032230
         H           -3.667812965360     0.090708291674    -0.000061864945     1.007825032230

  Basis Set: AUG-CC-PVTZ
    Blend: AUG-CC-PVTZ
  Basis Set: (AUG-CC-PVTZ AUX)
    Blend: AUG-CC-PVTZ-JKFIT
	 Reference Energy          =    -400.6126801787577278 [Eh]
	 Singles Energy            =      -0.0000000000000000 [Eh]
	 Same-Spin Energy          =      -0.4514761216528715 [Eh]
	 Opposite-Spin Energy      =      -1.4051849739441931 [Eh]
	 Correlation Energy        =      -1.8566610955970646 [Eh]
	 Total Energy              =    -402.4693412743548038 [Eh]

	 ================> DF-SCS-MP2 Energies <==================
	-----------------------------------------------------------
	 SCS Same-Spin Scale       =       0.3333333333333333 [-]
	 SCS Opposite-Spin Scale   =       1.2000000000000000 [-]
	 SCS Same-Spin Energy      =      -0.1504920405509572 [Eh]
	 SCS Opposite-Spin Energy  =      -1.6862219687330315 [Eh]
	 SCS Correlation Energy    =      -1.8367140092839886 [Eh]
	 SCS Total Energy          =    -402.4493941880417083 [Eh]
	-----------------------------------------------------------

  Dipole Moment: [D]
     X:     0.9980      Y:     1.7734      Z:     0.0000     Total:     2.0349

*** Psi4 exiting successfully. Buy a developer a beer!
