                               Psi4 1.3.2 release

  ==> Input File <==

--------------------------------------------------------------------------
#psi4
#
memory 32 gb

molecule  {
0 1
  N        0.6331050     1.8115130    -0.0000210
  C        0.1785470    -0.3913160     0.0000090
  C       -0.4036780     0.9062970    -0.0000200
  C        1.6027310    -0.2274780     0.0000040
  C        1.9750824     1.0988464     0.0000741
  C       -0.6692560    -1.5149550    -0.0000180
  C       -1.7891560     1.1099920    -0.0000270
  C        2.6263130    -1.3178960     0.0000690
  C       -2.0437110    -1.3184960    -0.0000320
  C       -2.5979760    -0.0198630    -0.0000430
  H        0.5326130     2.8174890    -0.0000320
  H        2.7737950     1.6707360     0.0000730
  H       -0.2550790    -2.5217040    -0.0000060
  H       -2.2189390     2.1099340    -0.0000460
  H        2.5289900    -1.9586870     0.8831790
  H        2.5285290    -1.9592090    -0.8826100
  H        3.6376590    -0.9002700    -0.0003210
  H       -2.7095800    -2.1783550    -0.0000520
  H       -3.6790270     0.0987570    -0.0000620
units angstrom
no_reorient  #important for SAPT in psi4, default
symmetry c1  #important for SAPT in psi4, default
}

set PROPERTIES_ORIGIN ["COM"]
properties('MP2/aug-cc-pvtz', properties = ['dipole'])
--------------------------------------------------------------------------

    Molecular point group: c1
  Charge       = 0
  Multiplicity = 1
  Basis Set: AUG-CC-PVTZ
    Blend: AUG-CC-PVTZ
  Basis Set: (AUG-CC-PVTZ AUX)
    Blend: AUG-CC-PVTZ-JKFIT

    Orbital Energies [Eh]
    ---------------------

    Doubly Occupied:

       1A    -15.588488     2A    -11.270046     3A    -11.264414
       4A    -11.236702     5A    -11.236513     6A    -11.234872
       7A    -11.229716     8A    -11.223334     9A    -11.222440
      10A    -11.220746    11A     -1.257559    12A     -1.123217
      13A     -1.074953    14A     -0.997769    15A     -0.985579
      16A     -0.929323    17A     -0.845025    18A     -0.806191
      19A     -0.759451    20A     -0.705350    21A     -0.664652
      22A     -0.649947    23A     -0.600904    24A     -0.591773
      25A     -0.583850    26A     -0.583147    27A     -0.544574
      28A     -0.536213    29A     -0.525658    30A     -0.498769
      31A     -0.478984    32A     -0.455456    33A     -0.378241
      34A     -0.292133    35A     -0.288786

  @DF-RHF Final Energy:  -400.61487470194231

   => Energetics <=

    Nuclear Repulsion Energy =            480.9541813349093786
    One-Electron Energy =               -1495.3685618851634445
    Two-Electron Energy =                 613.7995058483116964
    Total Energy =                       -400.6148747019423126
  Basis Set: (AUG-CC-PVTZ AUX)
    Blend: AUG-CC-PVTZ-RI
    Molecular point group: c1

    Geometry (in Angstrom), charge = 0, multiplicity = 1:

       Center              X                  Y                   Z               Mass
    ------------   -----------------  -----------------  -----------------  -----------------
         N            0.643971449504     1.793012375708    -0.000021176221    14.003074004430
         C            0.189413449504    -0.409816624292     0.000008823779    12.000000000000
         C           -0.392811550496     0.887796375708    -0.000020176221    12.000000000000
         C            1.613597449504    -0.245978624292     0.000003823779    12.000000000000
         C            1.985948849504     1.080345775708     0.000073923779    12.000000000000
         C           -0.658389550496    -1.533455624292    -0.000018176221    12.000000000000
         C           -1.778289550496     1.091491375708    -0.000027176221    12.000000000000
         C            2.637179449504    -1.336396624292     0.000068823779    12.000000000000
         C           -2.032844550496    -1.336996624292    -0.000032176221    12.000000000000
         C           -2.587109550496    -0.038363624292    -0.000043176221    12.000000000000
         H            0.543479449504     2.798988375708    -0.000032176221     1.007825032230
         H            2.784661449504     1.652235375708     0.000072823779     1.007825032230
         H           -0.244212550496    -2.540204624292    -0.000006176221     1.007825032230
         H           -2.208072550496     2.091433375708    -0.000046176221     1.007825032230
         H            2.539856449504    -1.977187624292     0.883178823779     1.007825032230
         H            2.539395449504    -1.977709624292    -0.882610176221     1.007825032230
         H            3.648525449504    -0.918770624292    -0.000321176221     1.007825032230
         H           -2.698713550496    -2.196855624292    -0.000052176221     1.007825032230
         H           -3.668160550496     0.080256375708    -0.000062176221     1.007825032230

  Basis Set: AUG-CC-PVTZ
    Blend: AUG-CC-PVTZ
  Basis Set: (AUG-CC-PVTZ AUX)
    Blend: AUG-CC-PVTZ-JKFIT
	 Reference Energy          =    -400.6148747019423126 [Eh]
	 Singles Energy            =      -0.0000000000000000 [Eh]
	 Same-Spin Energy          =      -0.4511696161952236 [Eh]
	 Opposite-Spin Energy      =      -1.4061454321578879 [Eh]
	 Correlation Energy        =      -1.8573150483531116 [Eh]
	 Total Energy              =    -402.4721897502953993 [Eh]

	 ================> DF-SCS-MP2 Energies <==================
	-----------------------------------------------------------
	 SCS Same-Spin Scale       =       0.3333333333333333 [-]
	 SCS Opposite-Spin Scale   =       1.2000000000000000 [-]
	 SCS Same-Spin Energy      =      -0.1503898720650745 [Eh]
	 SCS Opposite-Spin Energy  =      -1.6873745185894655 [Eh]
	 SCS Correlation Energy    =      -1.8377643906545400 [Eh]
	 SCS Total Energy          =    -402.4526390925968258 [Eh]
	-----------------------------------------------------------

  Dipole Moment: [D]
     X:     1.0022      Y:     1.5310      Z:     0.0000     Total:     1.8299

*** Psi4 exiting successfully. Buy a developer a beer!
