                               Psi4 1.3.2 release

  ==> Input File <==

--------------------------------------------------------------------------
#psi4
#
memory 32 gb

molecule  {
0 1
  N        0.6331050     1.8115130    -0.0000210
  C        0.1785470    -0.3913160     0.0000090
  C       -0.4036780     0.9062970    -0.0000200
  C        1.6027310    -0.2274780     0.0000040
  C        1.8344040     1.1305020     0.0000620
  C       -0.6692560    -1.5149550    -0.0000180
  C       -1.7891560     1.1099920    -0.0000270
  C        2.6947539    -1.3908058     0.0000733
  C       -2.0437110    -1.3184960    -0.0000320
  C       -2.5979760    -0.0198630    -0.0000430
  H        0.5326130     2.8174890    -0.0000320
  H        2.7737950     1.6707360     0.0000730
  H       -0.2550790    -2.5217040    -0.0000060
  H       -2.2189390     2.1099340    -0.0000460
  H        2.5289900    -1.9586870     0.8831790
  H        2.5285290    -1.9592090    -0.8826100
  H        3.6376590    -0.9002700    -0.0003210
  H       -2.7095800    -2.1783550    -0.0000520
  H       -3.6790270     0.0987570    -0.0000620
units angstrom
no_reorient  #important for SAPT in psi4, default
symmetry c1  #important for SAPT in psi4, default
}

set PROPERTIES_ORIGIN ["COM"]
properties('MP2/aug-cc-pvtz', properties = ['dipole'])
--------------------------------------------------------------------------

    Molecular point group: c1
  Charge       = 0
  Multiplicity = 1
  Basis Set: AUG-CC-PVTZ
    Blend: AUG-CC-PVTZ
  Basis Set: (AUG-CC-PVTZ AUX)
    Blend: AUG-CC-PVTZ-JKFIT

    Orbital Energies [Eh]
    ---------------------

    Doubly Occupied:

       1A    -15.599236     2A    -11.264644     3A    -11.263635
       4A    -11.231383     5A    -11.230185     6A    -11.228897
       7A    -11.225863     8A    -11.221838     9A    -11.220586
      10A    -11.220510    11A     -1.290708    12A     -1.126313
      13A     -1.064256    14A     -0.995720    15A     -0.983328
      16A     -0.934087    17A     -0.838443    18A     -0.802736
      19A     -0.754638    20A     -0.718575    21A     -0.658492
      22A     -0.643233    23A     -0.603258    24A     -0.594472
      25A     -0.591662    26A     -0.573081    27A     -0.563551
      28A     -0.538378    29A     -0.518938    30A     -0.500768
      31A     -0.469693    32A     -0.462545    33A     -0.376311
      34A     -0.298226    35A     -0.277557

  @DF-RHF Final Energy:  -400.63291955059969

   => Energetics <=

    Nuclear Repulsion Energy =            481.5805397877878136
    One-Electron Energy =               -1496.6554249466164492
    Two-Electron Energy =                 614.4419656082289976
    Total Energy =                       -400.6329195505996950
  Basis Set: (AUG-CC-PVTZ AUX)
    Blend: AUG-CC-PVTZ-RI
    Molecular point group: c1

    Geometry (in Angstrom), charge = 0, multiplicity = 1:

       Center              X                  Y                   Z               Mass
    ------------   -----------------  -----------------  -----------------  -----------------
         N            0.650584914504     1.796789267319    -0.000020462118    14.003074004430
         C            0.196026914504    -0.406039732681     0.000009537882    12.000000000000
         C           -0.386198085496     0.891573267319    -0.000019462118    12.000000000000
         C            1.620210914504    -0.242201732681     0.000004537882    12.000000000000
         C            1.851883914504     1.115778267319     0.000062537882    12.000000000000
         C           -0.651776085496    -1.529678732681    -0.000017462118    12.000000000000
         C           -1.771676085496     1.095268267319    -0.000026462118    12.000000000000
         C            2.712233814504    -1.405529532681     0.000073837882    12.000000000000
         C           -2.026231085496    -1.333219732681    -0.000031462118    12.000000000000
         C           -2.580496085496    -0.034586732681    -0.000042462118    12.000000000000
         H            0.550092914504     2.802765267319    -0.000031462118     1.007825032230
         H            2.791274914504     1.656012267319     0.000073537882     1.007825032230
         H           -0.237599085496    -2.536427732681    -0.000005462118     1.007825032230
         H           -2.201459085496     2.095210267319    -0.000045462118     1.007825032230
         H            2.546469914504    -1.973410732681     0.883179537882     1.007825032230
         H            2.546008914504    -1.973932732681    -0.882609462118     1.007825032230
         H            3.655138914504    -0.914993732681    -0.000320462118     1.007825032230
         H           -2.692100085496    -2.193078732681    -0.000051462118     1.007825032230
         H           -3.661547085496     0.084033267319    -0.000061462118     1.007825032230

  Basis Set: AUG-CC-PVTZ
    Blend: AUG-CC-PVTZ
  Basis Set: (AUG-CC-PVTZ AUX)
    Blend: AUG-CC-PVTZ-JKFIT
	 Reference Energy          =    -400.6329195505996950 [Eh]
	 Singles Energy            =      -0.0000000000000000 [Eh]
	 Same-Spin Energy          =      -0.4512395759834483 [Eh]
	 Opposite-Spin Energy      =      -1.4040731775936153 [Eh]
	 Correlation Energy        =      -1.8553127535770635 [Eh]
	 Total Energy              =    -402.4882323041767336 [Eh]

	 ================> DF-SCS-MP2 Energies <==================
	-----------------------------------------------------------
	 SCS Same-Spin Scale       =       0.3333333333333333 [-]
	 SCS Opposite-Spin Scale   =       1.2000000000000000 [-]
	 SCS Same-Spin Energy      =      -0.1504131919944827 [Eh]
	 SCS Opposite-Spin Energy  =      -1.6848878131123384 [Eh]
	 SCS Correlation Energy    =      -1.8353010051068210 [Eh]
	 SCS Total Energy          =    -402.4682205557065231 [Eh]
	-----------------------------------------------------------

  Dipole Moment: [D]
     X:     0.9929      Y:     1.7777      Z:     0.0000     Total:     2.0362

*** Psi4 exiting successfully. Buy a developer a beer!
