                               Psi4 1.3.2 release

  ==> Input File <==

--------------------------------------------------------------------------
#psi4
#
memory 32 gb

molecule  {
0 1
  N        0.6331050     1.8115130    -0.0000210
  C        0.1785470    -0.3913160     0.0000090
  C       -0.4036780     0.9062970    -0.0000200
  C        1.6027310    -0.2274780     0.0000040
  C        1.8344040     1.1305020     0.0000620
  C       -0.6692560    -1.5149550    -0.0000180
  C       -1.7891560     1.1099920    -0.0000270
  C        2.6263130    -1.3178960     0.0000690
  C       -2.0437110    -1.3184960    -0.0000320
  C       -2.5979760    -0.0198630    -0.0000430
  H        0.5326130     2.8174890    -0.0000320
  H        2.7737950     1.6707360     0.0000730
  H       -0.2550790    -2.5217040    -0.0000060
  H       -2.2189390     2.1099340    -0.0000460
  H        2.5289900    -1.9586870     0.8831790
  H        2.5285290    -1.9592090    -0.8826100
  H        3.6376590    -0.9002700    -0.0003210
  H       -2.7095800    -2.1783550    -0.0000520
  H       -3.6790270     0.0987570    -0.0000620
units angstrom
no_reorient  #important for SAPT in psi4, default
symmetry c1  #important for SAPT in psi4, default
}

set PROPERTIES_ORIGIN ["COM"]
properties('MP2/aug-cc-pvtz', properties = ['dipole'])
--------------------------------------------------------------------------

    Molecular point group: c1
  Charge       = 0
  Multiplicity = 1
  Basis Set: AUG-CC-PVTZ
    Blend: AUG-CC-PVTZ
  Basis Set: (AUG-CC-PVTZ AUX)
    Blend: AUG-CC-PVTZ-JKFIT

    Orbital Energies [Eh]
    ---------------------

    Doubly Occupied:

       1A    -15.599928     2A    -11.265271     3A    -11.264551
       4A    -11.231842     5A    -11.230642     6A    -11.229441
       7A    -11.222718     8A    -11.221816     9A    -11.221339
      10A    -11.221048    11A     -1.291663    12A     -1.127010
      13A     -1.072147    14A     -0.997314    15A     -0.985737
      16A     -0.930919    17A     -0.838986    18A     -0.803949
      19A     -0.755828    20A     -0.720055    21A     -0.659952
      22A     -0.644600    23A     -0.603525    24A     -0.592726
      25A     -0.591939    26A     -0.569693    27A     -0.551361
      28A     -0.542321    29A     -0.529684    30A     -0.497651
      31A     -0.475778    32A     -0.463068    33A     -0.374543
      34A     -0.298672    35A     -0.277698

  @DF-RHF Final Energy:  -400.64019235263009

   => Energetics <=

    Nuclear Repulsion Energy =            483.2609380187438433
    One-Electron Energy =               -1499.9914281760197809
    Two-Electron Energy =                 616.0902978046457292
    Total Energy =                       -400.6401923526301516
  Basis Set: (AUG-CC-PVTZ AUX)
    Blend: AUG-CC-PVTZ-RI
    Molecular point group: c1

    Geometry (in Angstrom), charge = 0, multiplicity = 1:

       Center              X                  Y                   Z               Mass
    ------------   -----------------  -----------------  -----------------  -----------------
         N            0.656850794369     1.790114252120    -0.000020068446    14.003074004430
         C            0.202292794369    -0.412714747880     0.000009931554    12.000000000000
         C           -0.379932205631     0.884898252120    -0.000019068446    12.000000000000
         C            1.626476794369    -0.248876747880     0.000004931554    12.000000000000
         C            1.858149794369     1.109103252120     0.000062931554    12.000000000000
         C           -0.645510205631    -1.536353747880    -0.000017068446    12.000000000000
         C           -1.765410205631     1.088593252120    -0.000026068446    12.000000000000
         C            2.650058794369    -1.339294747880     0.000069931554    12.000000000000
         C           -2.019965205631    -1.339894747880    -0.000031068446    12.000000000000
         C           -2.574230205631    -0.041261747880    -0.000042068446    12.000000000000
         H            0.556358794369     2.796090252120    -0.000031068446     1.007825032230
         H            2.797540794369     1.649337252120     0.000073931554     1.007825032230
         H           -0.231333205631    -2.543102747880    -0.000005068446     1.007825032230
         H           -2.195193205631     2.088535252120    -0.000045068446     1.007825032230
         H            2.552735794369    -1.980085747880     0.883179931554     1.007825032230
         H            2.552274794369    -1.980607747880    -0.882609068446     1.007825032230
         H            3.661404794369    -0.921668747880    -0.000320068446     1.007825032230
         H           -2.685834205631    -2.199753747880    -0.000051068446     1.007825032230
         H           -3.655281205631     0.077358252120    -0.000061068446     1.007825032230

  Basis Set: AUG-CC-PVTZ
    Blend: AUG-CC-PVTZ
  Basis Set: (AUG-CC-PVTZ AUX)
    Blend: AUG-CC-PVTZ-JKFIT
	 Reference Energy          =    -400.6401923526300948 [Eh]
	 Singles Energy            =      -0.0000000000000000 [Eh]
	 Same-Spin Energy          =      -0.4516918817560505 [Eh]
	 Opposite-Spin Energy      =      -1.4041256905146469 [Eh]
	 Correlation Energy        =      -1.8558175722706973 [Eh]
	 Total Energy              =    -402.4960099249008181 [Eh]

	 ================> DF-SCS-MP2 Energies <==================
	-----------------------------------------------------------
	 SCS Same-Spin Scale       =       0.3333333333333333 [-]
	 SCS Opposite-Spin Scale   =       1.2000000000000000 [-]
	 SCS Same-Spin Energy      =      -0.1505639605853502 [Eh]
	 SCS Opposite-Spin Energy  =      -1.6849508286175763 [Eh]
	 SCS Correlation Energy    =      -1.8355147892029264 [Eh]
	 SCS Total Energy          =    -402.4757071418330270 [Eh]
	-----------------------------------------------------------

  Dipole Moment: [D]
     X:     0.9573      Y:     1.8051      Z:     0.0000     Total:     2.0432

*** Psi4 exiting successfully. Buy a developer a beer!
