                               Psi4 1.3.2 release

  ==> Input File <==

--------------------------------------------------------------------------
#psi4
#
memory 32 gb

molecule  {
0 1
  N        0.6331050     1.8115130    -0.0000210
  C        0.1785470    -0.3913160     0.0000090
  C       -0.4036780     0.9062970    -0.0000200
  C        1.6027310    -0.2274780     0.0000040
  C        1.8106687     1.1343384     0.0000599
  C       -0.6692560    -1.5149550    -0.0000180
  C       -1.7891560     1.1099920    -0.0000270
  C        2.6263130    -1.3178960     0.0000690
  C       -2.0437110    -1.3184960    -0.0000320
  C       -2.5979760    -0.0198630    -0.0000430
  H        0.5326130     2.8174890    -0.0000320
  H        2.7737950     1.6707360     0.0000730
  H       -0.2550790    -2.5217040    -0.0000060
  H       -2.2189390     2.1099340    -0.0000460
  H        2.5289900    -1.9586870     0.8831790
  H        2.5285290    -1.9592090    -0.8826100
  H        3.6376590    -0.9002700    -0.0003210
  H       -2.7095800    -2.1783550    -0.0000520
  H       -3.6790270     0.0987570    -0.0000620
units angstrom
no_reorient  #important for SAPT in psi4, default
symmetry c1  #important for SAPT in psi4, default
}

set PROPERTIES_ORIGIN ["COM"]
properties('MP2/aug-cc-pvtz', properties = ['dipole'])
--------------------------------------------------------------------------

    Molecular point group: c1
  Charge       = 0
  Multiplicity = 1
  Basis Set: AUG-CC-PVTZ
    Blend: AUG-CC-PVTZ
  Basis Set: (AUG-CC-PVTZ AUX)
    Blend: AUG-CC-PVTZ-JKFIT

    Orbital Energies [Eh]
    ---------------------

    Doubly Occupied:

       1A    -15.601637     2A    -11.265029     3A    -11.264439
       4A    -11.232124     5A    -11.229641     6A    -11.228594
       7A    -11.222083     8A    -11.221550     9A    -11.221119
      10A    -11.219887    11A     -1.298833    12A     -1.127674
      13A     -1.071909    14A     -0.997821    15A     -0.985383
      16A     -0.931401    17A     -0.838727    18A     -0.803283
      19A     -0.757149    20A     -0.722630    21A     -0.660770
      22A     -0.642063    23A     -0.604490    24A     -0.594425
      25A     -0.592992    26A     -0.565837    27A     -0.552339
      28A     -0.544311    29A     -0.528377    30A     -0.496761
      31A     -0.475040    32A     -0.464295    33A     -0.374012
      34A     -0.299846    35A     -0.275856

  @DF-RHF Final Energy:  -400.63960238058752

   => Energetics <=

    Nuclear Repulsion Energy =            483.6903055487184702
    One-Electron Energy =               -1500.8351575967722056
    Two-Electron Energy =                 616.5052496674661597
    Total Energy =                       -400.6396023805875757
  Basis Set: (AUG-CC-PVTZ AUX)
    Blend: AUG-CC-PVTZ-RI
    Molecular point group: c1

    Geometry (in Angstrom), charge = 0, multiplicity = 1:

       Center              X                  Y                   Z               Mass
    ------------   -----------------  -----------------  -----------------  -----------------
         N            0.659023801129     1.789763023228    -0.000019876187    14.003074004430
         C            0.204465801129    -0.413065976772     0.000010123813    12.000000000000
         C           -0.377759198871     0.884547023228    -0.000018876187    12.000000000000
         C            1.628649801129    -0.249227976772     0.000005123813    12.000000000000
         C            1.836587501129     1.112588423228     0.000061023813    12.000000000000
         C           -0.643337198871    -1.536704976772    -0.000016876187    12.000000000000
         C           -1.763237198871     1.088242023228    -0.000025876187    12.000000000000
         C            2.652231801129    -1.339645976772     0.000070123813    12.000000000000
         C           -2.017792198871    -1.340245976772    -0.000030876187    12.000000000000
         C           -2.572057198871    -0.041612976772    -0.000041876187    12.000000000000
         H            0.558531801129     2.795739023228    -0.000030876187     1.007825032230
         H            2.799713801129     1.648986023228     0.000074123813     1.007825032230
         H           -0.229160198871    -2.543453976772    -0.000004876187     1.007825032230
         H           -2.193020198871     2.088184023228    -0.000044876187     1.007825032230
         H            2.554908801129    -1.980436976772     0.883180123813     1.007825032230
         H            2.554447801129    -1.980958976772    -0.882608876187     1.007825032230
         H            3.663577801129    -0.922019976772    -0.000319876187     1.007825032230
         H           -2.683661198871    -2.200104976772    -0.000050876187     1.007825032230
         H           -3.653108198871     0.077007023228    -0.000060876187     1.007825032230

  Basis Set: AUG-CC-PVTZ
    Blend: AUG-CC-PVTZ
  Basis Set: (AUG-CC-PVTZ AUX)
    Blend: AUG-CC-PVTZ-JKFIT
	 Reference Energy          =    -400.6396023805875188 [Eh]
	 Singles Energy            =      -0.0000000000000000 [Eh]
	 Same-Spin Energy          =      -0.4518454840425498 [Eh]
	 Opposite-Spin Energy      =      -1.4039617034769312 [Eh]
	 Correlation Energy        =      -1.8558071875194810 [Eh]
	 Total Energy              =    -402.4954095681069930 [Eh]

	 ================> DF-SCS-MP2 Energies <==================
	-----------------------------------------------------------
	 SCS Same-Spin Scale       =       0.3333333333333333 [-]
	 SCS Opposite-Spin Scale   =       1.2000000000000000 [-]
	 SCS Same-Spin Energy      =      -0.1506151613475166 [Eh]
	 SCS Opposite-Spin Energy  =      -1.6847540441723174 [Eh]
	 SCS Correlation Energy    =      -1.8353692055198341 [Eh]
	 SCS Total Energy          =    -402.4749715861073582 [Eh]
	-----------------------------------------------------------

  Dipole Moment: [D]
     X:     0.9488      Y:     1.8495      Z:     0.0000     Total:     2.0787

*** Psi4 exiting successfully. Buy a developer a beer!
