                               Psi4 1.3.2 release

  ==> Input File <==

--------------------------------------------------------------------------
#psi4
#
memory 32 gb

molecule  {
0 1
  N        0.6331050     1.8115130    -0.0000210
  C        0.1785470    -0.3913160     0.0000090
  C       -0.4036780     0.9062970    -0.0000200
  C        1.6027310    -0.2274780     0.0000040
  C        1.8344040     1.1305020     0.0000620
  C       -0.6692560    -1.5149550    -0.0000180
  C       -1.7891560     1.1099920    -0.0000270
  C        2.5578721    -1.2449862     0.0000647
  C       -2.0437110    -1.3184960    -0.0000320
  C       -2.5979760    -0.0198630    -0.0000430
  H        0.5326130     2.8174890    -0.0000320
  H        2.7737950     1.6707360     0.0000730
  H       -0.2550790    -2.5217040    -0.0000060
  H       -2.2189390     2.1099340    -0.0000460
  H        2.5289900    -1.9586870     0.8831790
  H        2.5285290    -1.9592090    -0.8826100
  H        3.6376590    -0.9002700    -0.0003210
  H       -2.7095800    -2.1783550    -0.0000520
  H       -3.6790270     0.0987570    -0.0000620
units angstrom
no_reorient  #important for SAPT in psi4, default
symmetry c1  #important for SAPT in psi4, default
}

set PROPERTIES_ORIGIN ["COM"]
properties('MP2/aug-cc-pvtz', properties = ['dipole'])
--------------------------------------------------------------------------

    Molecular point group: c1
  Charge       = 0
  Multiplicity = 1
  Basis Set: AUG-CC-PVTZ
    Blend: AUG-CC-PVTZ
  Basis Set: (AUG-CC-PVTZ AUX)
    Blend: AUG-CC-PVTZ-JKFIT

    Orbital Energies [Eh]
    ---------------------

    Doubly Occupied:

       1A    -15.600936     2A    -11.266078     3A    -11.265977
       4A    -11.232428     5A    -11.231174     6A    -11.230108
       7A    -11.225335     8A    -11.222448     9A    -11.221631
      10A    -11.217033    11A     -1.292986    12A     -1.128010
      13A     -1.083864    14A     -0.999721    15A     -0.988351
      16A     -0.928725    17A     -0.839713    18A     -0.805483
      19A     -0.756510    20A     -0.721799    21A     -0.662077
      22A     -0.646509    23A     -0.606873    24A     -0.594527
      25A     -0.592320    26A     -0.574917    27A     -0.559024
      28A     -0.538158    29A     -0.522105    30A     -0.492259
      31A     -0.473056    32A     -0.463717    33A     -0.371376
      34A     -0.299215    35A     -0.277383

  @DF-RHF Final Energy:  -400.62759098994735

   => Energetics <=

    Nuclear Repulsion Energy =            485.0647999206466920
    One-Electron Energy =               -1503.5211275919666605
    Two-Electron Energy =                 617.8287366813726749
    Total Energy =                       -400.6275909899472936
  Basis Set: (AUG-CC-PVTZ AUX)
    Blend: AUG-CC-PVTZ-RI
    Molecular point group: c1

    Geometry (in Angstrom), charge = 0, multiplicity = 1:

       Center              X                  Y                   Z               Mass
    ------------   -----------------  -----------------  -----------------  -----------------
         N            0.663116674233     1.783439236921    -0.000019674773    14.003074004430
         C            0.208558674233    -0.419389763079     0.000010325227    12.000000000000
         C           -0.373666325767     0.878223236921    -0.000018674773    12.000000000000
         C            1.632742674233    -0.255551763079     0.000005325227    12.000000000000
         C            1.864415674233     1.102428236921     0.000063325227    12.000000000000
         C           -0.639244325767    -1.543028763079    -0.000016674773    12.000000000000
         C           -1.759144325767     1.081918236921    -0.000025674773    12.000000000000
         C            2.587883774233    -1.273059963079     0.000066025227    12.000000000000
         C           -2.013699325767    -1.346569763079    -0.000030674773    12.000000000000
         C           -2.567964325767    -0.047936763079    -0.000041674773    12.000000000000
         H            0.562624674233     2.789415236921    -0.000030674773     1.007825032230
         H            2.803806674233     1.642662236921     0.000074325227     1.007825032230
         H           -0.225067325767    -2.549777763079    -0.000004674773     1.007825032230
         H           -2.188927325767     2.081860236921    -0.000044674773     1.007825032230
         H            2.559001674233    -1.986760763079     0.883180325227     1.007825032230
         H            2.558540674233    -1.987282763079    -0.882608674773     1.007825032230
         H            3.667670674233    -0.928343763079    -0.000319674773     1.007825032230
         H           -2.679568325767    -2.206428763079    -0.000050674773     1.007825032230
         H           -3.649015325767     0.070683236921    -0.000060674773     1.007825032230

  Basis Set: AUG-CC-PVTZ
    Blend: AUG-CC-PVTZ
  Basis Set: (AUG-CC-PVTZ AUX)
    Blend: AUG-CC-PVTZ-JKFIT
	 Reference Energy          =    -400.6275909899473504 [Eh]
	 Singles Energy            =      -0.0000000000000000 [Eh]
	 Same-Spin Energy          =      -0.4529738079194763 [Eh]
	 Opposite-Spin Energy      =      -1.4055324939973080 [Eh]
	 Correlation Energy        =      -1.8585063019167842 [Eh]
	 Total Energy              =    -402.4860972918641551 [Eh]

	 ================> DF-SCS-MP2 Energies <==================
	-----------------------------------------------------------
	 SCS Same-Spin Scale       =       0.3333333333333333 [-]
	 SCS Opposite-Spin Scale   =       1.2000000000000000 [-]
	 SCS Same-Spin Energy      =      -0.1509912693064921 [Eh]
	 SCS Opposite-Spin Energy  =      -1.6866389927967695 [Eh]
	 SCS Correlation Energy    =      -1.8376302621032616 [Eh]
	 SCS Total Energy          =    -402.4652212520506396 [Eh]
	-----------------------------------------------------------

  Dipole Moment: [D]
     X:     0.8892      Y:     1.8563      Z:     0.0000     Total:     2.0583

*** Psi4 exiting successfully. Buy a developer a beer!
