                               Psi4 1.3.2 release

  ==> Input File <==

--------------------------------------------------------------------------
#psi4
#
memory 32 gb

molecule  {
0 1
  N        0.6331050     1.8115130    -0.0000210
  C        0.1785470    -0.3913160     0.0000090
  C       -0.4036780     0.9062970    -0.0000200
  C        1.5672085    -0.2658146     0.0903676
  C        1.8344040     1.1305020     0.0000620
  C       -0.6692560    -1.5149550    -0.0000180
  C       -1.7891560     1.1099920    -0.0000270
  C        2.6263130    -1.3178960     0.0000690
  C       -2.0437110    -1.3184960    -0.0000320
  C       -2.5979760    -0.0198630    -0.0000430
  H        0.5326130     2.8174890    -0.0000320
  H        2.7737950     1.6707360     0.0000730
  H       -0.2550790    -2.5217040    -0.0000060
  H       -2.2189390     2.1099340    -0.0000460
  H        2.5289900    -1.9586870     0.8831790
  H        2.5285290    -1.9592090    -0.8826100
  H        3.6376590    -0.9002700    -0.0003210
  H       -2.7095800    -2.1783550    -0.0000520
  H       -3.6790270     0.0987570    -0.0000620
units angstrom
no_reorient  #important for SAPT in psi4, default
symmetry c1  #important for SAPT in psi4, default
}

set PROPERTIES_ORIGIN ["COM"]
properties('MP2/aug-cc-pvtz', properties = ['dipole'])
--------------------------------------------------------------------------

    Molecular point group: c1
  Charge       = 0
  Multiplicity = 1
  Basis Set: AUG-CC-PVTZ
    Blend: AUG-CC-PVTZ
  Basis Set: (AUG-CC-PVTZ AUX)
    Blend: AUG-CC-PVTZ-JKFIT

    Orbital Energies [Eh]
    ---------------------

    Doubly Occupied:

       1A    -15.604575     2A    -11.270002     3A    -11.264860
       4A    -11.232658     5A    -11.229163     6A    -11.228557
       7A    -11.224207     8A    -11.221309     9A    -11.221163
      10A    -11.220115    11A     -1.292459    12A     -1.128151
      13A     -1.072729    14A     -0.997387    15A     -0.985165
      16A     -0.927545    17A     -0.839565    18A     -0.806443
      19A     -0.757034    20A     -0.720551    21A     -0.659001
      22A     -0.644368    23A     -0.604824    24A     -0.593451
      25A     -0.591786    26A     -0.569025    27A     -0.555090
      28A     -0.539232    29A     -0.526603    30A     -0.494299
      31A     -0.480301    32A     -0.462409    33A     -0.375996
      34A     -0.300537    35A     -0.269617

  @DF-RHF Final Energy:  -400.63158418949166

   => Energetics <=

    Nuclear Repulsion Energy =            483.3408722649287483
    One-Electron Energy =               -1500.1245628035492246
    Two-Electron Energy =                 616.1521063491288714
    Total Energy =                       -400.6315841894916048
  Basis Set: (AUG-CC-PVTZ AUX)
    Blend: AUG-CC-PVTZ-RI
    Molecular point group: c1

    Geometry (in Angstrom), charge = 0, multiplicity = 1:

       Center              X                  Y                   Z               Mass
    ------------   -----------------  -----------------  -----------------  -----------------
         N            0.660102939175     1.793624032529    -0.008293008482    14.003074004430
         C            0.205544939175    -0.409204967471    -0.008263008482    12.000000000000
         C           -0.376680060825     0.888408032529    -0.008292008482    12.000000000000
         C            1.594206439175    -0.283703567471     0.082095591518    12.000000000000
         C            1.861401939175     1.112613032529    -0.008210008482    12.000000000000
         C           -0.642258060825    -1.532843967471    -0.008290008482    12.000000000000
         C           -1.762158060825     1.092103032529    -0.008299008482    12.000000000000
         C            2.653310939175    -1.335784967471    -0.008203008482    12.000000000000
         C           -2.016713060825    -1.336384967471    -0.008304008482    12.000000000000
         C           -2.570978060825    -0.037751967471    -0.008315008482    12.000000000000
         H            0.559610939175     2.799600032529    -0.008304008482     1.007825032230
         H            2.800792939175     1.652847032529    -0.008199008482     1.007825032230
         H           -0.228081060825    -2.539592967471    -0.008278008482     1.007825032230
         H           -2.191941060825     2.092045032529    -0.008318008482     1.007825032230
         H            2.555987939175    -1.976575967471     0.874906991518     1.007825032230
         H            2.555526939175    -1.977097967471    -0.890882008482     1.007825032230
         H            3.664656939175    -0.918158967471    -0.008593008482     1.007825032230
         H           -2.682582060825    -2.196243967471    -0.008324008482     1.007825032230
         H           -3.652029060825     0.080868032529    -0.008334008482     1.007825032230

  Basis Set: AUG-CC-PVTZ
    Blend: AUG-CC-PVTZ
  Basis Set: (AUG-CC-PVTZ AUX)
    Blend: AUG-CC-PVTZ-JKFIT
	 Reference Energy          =    -400.6315841894916616 [Eh]
	 Singles Energy            =      -0.0000000000000000 [Eh]
	 Same-Spin Energy          =      -0.4531038738088673 [Eh]
	 Opposite-Spin Energy      =      -1.4063498470891460 [Eh]
	 Correlation Energy        =      -1.8594537208980133 [Eh]
	 Total Energy              =    -402.4910379103896503 [Eh]

	 ================> DF-SCS-MP2 Energies <==================
	-----------------------------------------------------------
	 SCS Same-Spin Scale       =       0.3333333333333333 [-]
	 SCS Opposite-Spin Scale   =       1.2000000000000000 [-]
	 SCS Same-Spin Energy      =      -0.1510346246029557 [Eh]
	 SCS Opposite-Spin Energy  =      -1.6876198165069751 [Eh]
	 SCS Correlation Energy    =      -1.8386544411099308 [Eh]
	 SCS Total Energy          =    -402.4702386306016137 [Eh]
	-----------------------------------------------------------

  Dipole Moment: [D]
     X:     0.9567      Y:     1.8643      Z:    -0.0691     Total:     2.0966

*** Psi4 exiting successfully. Buy a developer a beer!
