                               Psi4 1.3.2 release

  ==> Input File <==

--------------------------------------------------------------------------
#psi4
#
memory 32 gb

molecule  {
0 1
  N        0.6331050     1.8115130    -0.0000210
  C        0.1785470    -0.3913160     0.0000090
  C       -0.4036780     0.9062970    -0.0000200
  C        1.6027310    -0.2274780     0.0000040
  C        1.6911873     1.1472793     0.0000492
  C       -0.6692560    -1.5149550    -0.0000180
  C       -1.7891560     1.1099920    -0.0000270
  C        2.6263130    -1.3178960     0.0000690
  C       -2.0437110    -1.3184960    -0.0000320
  C       -2.5979760    -0.0198630    -0.0000430
  H        0.5326130     2.8174890    -0.0000320
  H        2.7737950     1.6707360     0.0000730
  H       -0.2550790    -2.5217040    -0.0000060
  H       -2.2189390     2.1099340    -0.0000460
  H        2.5289900    -1.9586870     0.8831790
  H        2.5285290    -1.9592090    -0.8826100
  H        3.6376590    -0.9002700    -0.0003210
  H       -2.7095800    -2.1783550    -0.0000520
  H       -3.6790270     0.0987570    -0.0000620
units angstrom
no_reorient  #important for SAPT in psi4, default
symmetry c1  #important for SAPT in psi4, default
}

set PROPERTIES_ORIGIN ["COM"]
properties('MP2/aug-cc-pvtz', properties = ['dipole'])
--------------------------------------------------------------------------

    Molecular point group: c1
  Charge       = 0
  Multiplicity = 1
  Basis Set: AUG-CC-PVTZ
    Blend: AUG-CC-PVTZ
  Basis Set: (AUG-CC-PVTZ AUX)
    Blend: AUG-CC-PVTZ-JKFIT

    Orbital Energies [Eh]
    ---------------------

    Doubly Occupied:

       1A    -15.609806     2A    -11.269173     3A    -11.260710
       4A    -11.234097     5A    -11.224859     6A    -11.224207
       7A    -11.221982     8A    -11.221579     9A    -11.221528
      10A    -11.210439    11A     -1.341721    12A     -1.131394
      13A     -1.071964    14A     -1.002073    15A     -0.982913
      16A     -0.934679    17A     -0.840729    18A     -0.799717
      19A     -0.775113    20A     -0.730666    21A     -0.663313
      22A     -0.630821    23A     -0.613344    24A     -0.609826
      25A     -0.593533    26A     -0.555987    27A     -0.551919
      28A     -0.547567    29A     -0.518728    30A     -0.489711
      31A     -0.470201    32A     -0.468795    33A     -0.371950
      34A     -0.306121    35A     -0.267049

  @DF-RHF Final Energy:  -400.61130442606304

   => Energetics <=

    Nuclear Repulsion Energy =            486.0416465371073969
    One-Electron Energy =               -1505.3694759346317369
    Two-Electron Energy =                 618.7165249714612401
    Total Energy =                       -400.6113044260630431
  Basis Set: (AUG-CC-PVTZ AUX)
    Blend: AUG-CC-PVTZ-RI
    Molecular point group: c1

    Geometry (in Angstrom), charge = 0, multiplicity = 1:

       Center              X                  Y                   Z               Mass
    ------------   -----------------  -----------------  -----------------  -----------------
         N            0.669962524881     1.788578261999    -0.000018896584    14.003074004430
         C            0.215404524881    -0.414250738001     0.000011103416    12.000000000000
         C           -0.366820475119     0.883362261999    -0.000017896584    12.000000000000
         C            1.639588524881    -0.250412738001     0.000006103416    12.000000000000
         C            1.728044824881     1.124344561999     0.000051303416    12.000000000000
         C           -0.632398475119    -1.537889738001    -0.000015896584    12.000000000000
         C           -1.752298475119     1.087057261999    -0.000024896584    12.000000000000
         C            2.663170524881    -1.340830738001     0.000071103416    12.000000000000
         C           -2.006853475119    -1.341430738001    -0.000029896584    12.000000000000
         C           -2.561118475119    -0.042797738001    -0.000040896584    12.000000000000
         H            0.569470524881     2.794554261999    -0.000029896584     1.007825032230
         H            2.810652524881     1.647801261999     0.000075103416     1.007825032230
         H           -0.218221475119    -2.544638738001    -0.000003896584     1.007825032230
         H           -2.182081475119     2.086999261999    -0.000043896584     1.007825032230
         H            2.565847524881    -1.981621738001     0.883181103416     1.007825032230
         H            2.565386524881    -1.982143738001    -0.882607896584     1.007825032230
         H            3.674516524881    -0.923204738001    -0.000318896584     1.007825032230
         H           -2.672722475119    -2.201289738001    -0.000049896584     1.007825032230
         H           -3.642169475119     0.075822261999    -0.000059896584     1.007825032230

  Basis Set: AUG-CC-PVTZ
    Blend: AUG-CC-PVTZ
  Basis Set: (AUG-CC-PVTZ AUX)
    Blend: AUG-CC-PVTZ-JKFIT
	 Reference Energy          =    -400.6113044260630431 [Eh]
	 Singles Energy            =      -0.0000000000000000 [Eh]
	 Same-Spin Energy          =      -0.4528278181535923 [Eh]
	 Opposite-Spin Energy      =      -1.4039091179682652 [Eh]
	 Correlation Energy        =      -1.8567369361218575 [Eh]
	 Total Energy              =    -402.4680413621849198 [Eh]

	 ================> DF-SCS-MP2 Energies <==================
	-----------------------------------------------------------
	 SCS Same-Spin Scale       =       0.3333333333333333 [-]
	 SCS Opposite-Spin Scale   =       1.2000000000000000 [-]
	 SCS Same-Spin Energy      =      -0.1509426060511974 [Eh]
	 SCS Opposite-Spin Energy  =      -1.6846909415619182 [Eh]
	 SCS Correlation Energy    =      -1.8356335476131156 [Eh]
	 SCS Total Energy          =    -402.4469379736761425 [Eh]
	-----------------------------------------------------------

  Dipole Moment: [D]
     X:     0.8817      Y:     2.0618      Z:     0.0000     Total:     2.2424

*** Psi4 exiting successfully. Buy a developer a beer!
