                               Psi4 1.3.2 release

  ==> Input File <==

--------------------------------------------------------------------------
#psi4
#
memory 32 gb

molecule  {
0 1
  N        0.6331050     1.8115130    -0.0000210
  C        0.1705875    -0.2915708     0.0000033
  C       -0.4036780     0.9062970    -0.0000200
  C        1.6027310    -0.2274780     0.0000040
  C        1.8344040     1.1305020     0.0000620
  C       -0.6692560    -1.5149550    -0.0000180
  C       -1.7891560     1.1099920    -0.0000270
  C        2.6263130    -1.3178960     0.0000690
  C       -2.0437110    -1.3184960    -0.0000320
  C       -2.5979760    -0.0198630    -0.0000430
  H        0.5326130     2.8174890    -0.0000320
  H        2.7737950     1.6707360     0.0000730
  H       -0.2550790    -2.5217040    -0.0000060
  H       -2.2189390     2.1099340    -0.0000460
  H        2.5289900    -1.9586870     0.8831790
  H        2.5285290    -1.9592090    -0.8826100
  H        3.6376590    -0.9002700    -0.0003210
  H       -2.7095800    -2.1783550    -0.0000520
  H       -3.6790270     0.0987570    -0.0000620
units angstrom
no_reorient  #important for SAPT in psi4, default
symmetry c1  #important for SAPT in psi4, default
}

set PROPERTIES_ORIGIN ["COM"]
properties('MP2/aug-cc-pvtz', properties = ['dipole'])
--------------------------------------------------------------------------

    Molecular point group: c1
  Charge       = 0
  Multiplicity = 1
  Basis Set: AUG-CC-PVTZ
    Blend: AUG-CC-PVTZ
  Basis Set: (AUG-CC-PVTZ AUX)
    Blend: AUG-CC-PVTZ-JKFIT

    Orbital Energies [Eh]
    ---------------------

    Doubly Occupied:

       1A    -15.594983     2A    -11.261358     3A    -11.252141
       4A    -11.236990     5A    -11.234343     6A    -11.230032
       7A    -11.223670     8A    -11.222325     9A    -11.219368
      10A    -11.216678    11A     -1.296124    12A     -1.125874
      13A     -1.069570    14A     -1.000487    15A     -0.986856
      16A     -0.930727    17A     -0.839120    18A     -0.795908
      19A     -0.762004    20A     -0.719639    21A     -0.655642
      22A     -0.643586    23A     -0.606739    24A     -0.594785
      25A     -0.590528    26A     -0.565841    27A     -0.553061
      28A     -0.545613    29A     -0.528481    30A     -0.492684
      31A     -0.481328    32A     -0.460635    33A     -0.365116
      34A     -0.309461    35A     -0.276583

  @DF-RHF Final Energy:  -400.62859649666495

   => Energetics <=

    Nuclear Repulsion Energy =            484.1618193544510973
    One-Electron Energy =               -1501.8042695414289938
    Two-Electron Energy =                 617.0138536903128852
    Total Energy =                       -400.6285964966649544
  Basis Set: (AUG-CC-PVTZ AUX)
    Blend: AUG-CC-PVTZ-RI
    Molecular point group: c1

    Geometry (in Angstrom), charge = 0, multiplicity = 1:

       Center              X                  Y                   Z               Mass
    ------------   -----------------  -----------------  -----------------  -----------------
         N            0.657579500022     1.780982410776    -0.000019546601    14.003074004430
         C            0.195062000022    -0.322101389224     0.000004753399    12.000000000000
         C           -0.379203499978     0.875766410776    -0.000018546601    12.000000000000
         C            1.627205500022    -0.258008589224     0.000005453399    12.000000000000
         C            1.858878500022     1.099971410776     0.000063453399    12.000000000000
         C           -0.644781499978    -1.545485589224    -0.000016546601    12.000000000000
         C           -1.764681499978     1.079461410776    -0.000025546601    12.000000000000
         C            2.650787500022    -1.348426589224     0.000070453399    12.000000000000
         C           -2.019236499978    -1.349026589224    -0.000030546601    12.000000000000
         C           -2.573501499978    -0.050393589224    -0.000041546601    12.000000000000
         H            0.557087500022     2.786958410776    -0.000030546601     1.007825032230
         H            2.798269500022     1.640205410776     0.000074453399     1.007825032230
         H           -0.230604499978    -2.552234589224    -0.000004546601     1.007825032230
         H           -2.194464499978     2.079403410776    -0.000044546601     1.007825032230
         H            2.553464500022    -1.989217589224     0.883180453399     1.007825032230
         H            2.553003500022    -1.989739589224    -0.882608546601     1.007825032230
         H            3.662133500022    -0.930800589224    -0.000319546601     1.007825032230
         H           -2.685105499978    -2.208885589224    -0.000050546601     1.007825032230
         H           -3.654552499978     0.068226410776    -0.000060546601     1.007825032230

  Basis Set: AUG-CC-PVTZ
    Blend: AUG-CC-PVTZ
  Basis Set: (AUG-CC-PVTZ AUX)
    Blend: AUG-CC-PVTZ-JKFIT
	 Reference Energy          =    -400.6285964966649544 [Eh]
	 Singles Energy            =      -0.0000000000000000 [Eh]
	 Same-Spin Energy          =      -0.4507644239282516 [Eh]
	 Opposite-Spin Energy      =      -1.4039781529544197 [Eh]
	 Correlation Energy        =      -1.8547425768826713 [Eh]
	 Total Energy              =    -402.4833390735476542 [Eh]

	 ================> DF-SCS-MP2 Energies <==================
	-----------------------------------------------------------
	 SCS Same-Spin Scale       =       0.3333333333333333 [-]
	 SCS Opposite-Spin Scale   =       1.2000000000000000 [-]
	 SCS Same-Spin Energy      =      -0.1502548079760839 [Eh]
	 SCS Opposite-Spin Energy  =      -1.6847737835453036 [Eh]
	 SCS Correlation Energy    =      -1.8350285915213875 [Eh]
	 SCS Total Energy          =    -402.4636250881863475 [Eh]
	-----------------------------------------------------------

  Dipole Moment: [D]
     X:     0.8708      Y:     1.6512      Z:     0.0000     Total:     1.8667

*** Psi4 exiting successfully. Buy a developer a beer!
