                               Psi4 1.4a3.dev225

  ==> Input File <==

--------------------------------------------------------------------------
#psi4
#
memory 32 gb

molecule  {
0 1
  N        0.6328470     1.8116750    -0.0000110
  C        0.1785880    -0.3910020     0.0000110
  C       -0.4037990     0.9065110    -0.0000170
  C        1.6028840    -0.2271790     0.0000140
  C        1.8343140     1.1308640     0.0000150
  C       -0.6688480    -1.5149650    -0.0000030
  C       -1.7894490     1.1098660    -0.0000340
  C        2.6123229    -1.3035774     0.0000712
  C       -2.0432580    -1.3188880    -0.0000200
  C       -2.5978380    -0.0201330    -0.0000420
  H        0.5326210     2.8176630    -0.0000280
  H        2.7737410     1.6710700     0.0000120
  H       -0.2538270    -2.5213870     0.0000180
  H       -2.2194200     2.1097690    -0.0000540
  H        2.5281550    -1.9589590     0.8831170
  H        2.5278660    -1.9593030    -0.8826910
  H        3.6376920    -0.9014020    -0.0001770
  H       -2.7093880    -2.1785190    -0.0000290
  H       -3.6789550     0.0979000    -0.0000560
units angstrom
no_reorient  #important for SAPT in psi4, default
symmetry c1  #important for SAPT in psi4, default
}

set PROPERTIES_ORIGIN ["COM"]
properties('MP2/aug-cc-pvtz', properties = ['dipole'])
--------------------------------------------------------------------------

    Molecular point group: c1
  Charge       = 0
  Multiplicity = 1
  Basis Set: AUG-CC-PVTZ
    Blend: AUG-CC-PVTZ
  Basis Set: (AUG-CC-PVTZ AUX)
    Blend: AUG-CC-PVTZ-JKFIT

    Orbital Energies [Eh]
    ---------------------

    Doubly Occupied:

       1A    -15.600111     2A    -11.265418     3A    -11.264780
       4A    -11.231960     5A    -11.230740     6A    -11.229572
       7A    -11.222455     8A    -11.222124     9A    -11.221165
      10A    -11.221021    11A     -1.291910    12A     -1.127160
      13A     -1.074109    14A     -0.997720    15A     -0.986216
      16A     -0.930402    17A     -0.839114    18A     -0.804208
      19A     -0.756008    20A     -0.720381    21A     -0.660322
      22A     -0.644941    23A     -0.603857    24A     -0.592990
      25A     -0.591829    26A     -0.569857    27A     -0.548691
      28A     -0.546652    29A     -0.527962    30A     -0.496645
      31A     -0.476009    32A     -0.463172    33A     -0.374033
      34A     -0.298737    35A     -0.277710

  @DF-RHF Final Energy:  -400.63950307827179

   => Energetics <=

    Nuclear Repulsion Energy =            483.6074395853970600
    One-Electron Energy =               -1500.6739166619793195
    Two-Electron Energy =                 616.4269739983104728
    Total Energy =                       -400.6395030782717868
  Basis Set: (AUG-CC-PVTZ AUX)
    Blend: AUG-CC-PVTZ-RI
    Molecular point group: c1

    Geometry (in Angstrom), charge = 0, multiplicity = 1:

       Center              X                  Y                   Z               Mass
    ------------   -----------------  -----------------  -----------------  -----------------
         N            0.657841755590     1.788926550219    -0.000010246549    14.003074004430
         C            0.203582755590    -0.413750449781     0.000011753451    12.000000000000
         C           -0.378804244410     0.883762550219    -0.000016246549    12.000000000000
         C            1.627878755590    -0.249927449781     0.000014753451    12.000000000000
         C            1.859308755590     1.108115550219     0.000015753451    12.000000000000
         C           -0.643853244410    -1.537713449781    -0.000002246549    12.000000000000
         C           -1.764454244410     1.087117550219    -0.000033246549    12.000000000000
         C            2.637317655590    -1.326325849781     0.000071953451    12.000000000000
         C           -2.018263244410    -1.341636449781    -0.000019246549    12.000000000000
         C           -2.572843244410    -0.042881449781    -0.000041246549    12.000000000000
         H            0.557615755590     2.794914550219    -0.000027246549     1.007825032230
         H            2.798735755590     1.648321550219     0.000012753451     1.007825032230
         H           -0.228832244410    -2.544135449781     0.000018753451     1.007825032230
         H           -2.194425244410     2.087020550219    -0.000053246549     1.007825032230
         H            2.553149755590    -1.981707449781     0.883117753451     1.007825032230
         H            2.552860755590    -1.982051449781    -0.882690246549     1.007825032230
         H            3.662686755590    -0.924150449781    -0.000176246549     1.007825032230
         H           -2.684393244410    -2.201267449781    -0.000028246549     1.007825032230
         H           -3.653960244410     0.075151550219    -0.000055246549     1.007825032230

  Basis Set: AUG-CC-PVTZ
    Blend: AUG-CC-PVTZ
  Basis Set: (AUG-CC-PVTZ AUX)
    Blend: AUG-CC-PVTZ-JKFIT
	 Reference Energy          =    -400.6395030782717868 [Eh]
	 Singles Energy            =      -0.0000000000000000 [Eh]
	 Same-Spin Energy          =      -0.4518742264779239 [Eh]
	 Opposite-Spin Energy      =      -1.4042906266620225 [Eh]
	 Correlation Energy        =      -1.8561648531399464 [Eh]
	 Total Energy              =    -402.4956679314117309 [Eh]

	 ================> DF-SCS-MP2 Energies <==================
	-----------------------------------------------------------
	 SCS Same-Spin Scale       =       0.3333333333333333 [-]
	 SCS Opposite-Spin Scale   =       1.2000000000000000 [-]
	 SCS Same-Spin Energy      =      -0.1506247421593080 [Eh]
	 SCS Opposite-Spin Energy  =      -1.6851487519944270 [Eh]
	 SCS Correlation Energy    =      -1.8357734941537349 [Eh]
	 SCS Total Energy          =    -402.4752765724255141 [Eh]
	-----------------------------------------------------------

  Dipole Moment: [D]
     X:     0.9469      Y:     1.8129      Z:     0.0000     Total:     2.0453

*** Psi4 exiting successfully. Buy a developer a beer!
