                               Psi4 1.3.2 release

  ==> Input File <==

--------------------------------------------------------------------------
#psi4
#
memory 32 gb

molecule  {
0 1
  N        0.6331050     1.8115130    -0.0000210
  C        0.1816233    -0.4161465     0.0000104
  C       -0.4036780     0.9062970    -0.0000200
  C        1.6027310    -0.2274780     0.0000040
  C        1.8344040     1.1305020     0.0000620
  C       -0.6692560    -1.5149550    -0.0000180
  C       -1.7891560     1.1099920    -0.0000270
  C        2.6263130    -1.3178960     0.0000690
  C       -2.0437110    -1.3184960    -0.0000320
  C       -2.5979760    -0.0198630    -0.0000430
  H        0.5326130     2.8174890    -0.0000320
  H        2.7737950     1.6707360     0.0000730
  H       -0.2550790    -2.5217040    -0.0000060
  H       -2.2189390     2.1099340    -0.0000460
  H        2.5289900    -1.9586870     0.8831790
  H        2.5285290    -1.9592090    -0.8826100
  H        3.6376590    -0.9002700    -0.0003210
  H       -2.7095800    -2.1783550    -0.0000520
  H       -3.6790270     0.0987570    -0.0000620
units angstrom
no_reorient  #important for SAPT in psi4, default
symmetry c1  #important for SAPT in psi4, default
}

set PROPERTIES_ORIGIN ["COM"]
properties('MP2/aug-cc-pvtz', properties = ['dipole'])
--------------------------------------------------------------------------

    Molecular point group: c1
  Charge       = 0
  Multiplicity = 1
  Basis Set: AUG-CC-PVTZ
    Blend: AUG-CC-PVTZ
  Basis Set: (AUG-CC-PVTZ AUX)
    Blend: AUG-CC-PVTZ-JKFIT

    Orbital Energies [Eh]
    ---------------------

    Doubly Occupied:

       1A    -15.601020     2A    -11.268148     3A    -11.265471
       4A    -11.231208     5A    -11.229369     6A    -11.228934
       7A    -11.223700     8A    -11.222735     9A    -11.220997
      10A    -11.220701    11A     -1.290877    12A     -1.127423
      13A     -1.072800    14A     -0.998137    15A     -0.984392
      16A     -0.930893    17A     -0.839267    18A     -0.805680
      19A     -0.754390    20A     -0.720132    21A     -0.661367
      22A     -0.644992    23A     -0.603155    24A     -0.592381
      25A     -0.591446    26A     -0.570840    27A     -0.551019
      28A     -0.541535    29A     -0.529914    30A     -0.500352
      31A     -0.471132    32A     -0.463761    33A     -0.376940
      34A     -0.296294    35A     -0.278153

  @DF-RHF Final Energy:  -400.63891250919380

   => Energetics <=

    Nuclear Repulsion Energy =            483.0538389689265273
    One-Electron Energy =               -1499.5663853523321905
    Two-Electron Energy =                 615.8736338742118051
    Total Energy =                       -400.6389125091938013
  Basis Set: (AUG-CC-PVTZ AUX)
    Blend: AUG-CC-PVTZ-RI
    Molecular point group: c1

    Geometry (in Angstrom), charge = 0, multiplicity = 1:

       Center              X                  Y                   Z               Mass
    ------------   -----------------  -----------------  -----------------  -----------------
         N            0.656569153914     1.792387526288    -0.000020196618    14.003074004430
         C            0.205087453914    -0.435271973712     0.000011203382    12.000000000000
         C           -0.380213846086     0.887171526288    -0.000019196618    12.000000000000
         C            1.626195153914    -0.246603473712     0.000004803382    12.000000000000
         C            1.857868153914     1.111376526288     0.000062803382    12.000000000000
         C           -0.645791846086    -1.534080473712    -0.000017196618    12.000000000000
         C           -1.765691846086     1.090866526288    -0.000026196618    12.000000000000
         C            2.649777153914    -1.337021473712     0.000069803382    12.000000000000
         C           -2.020246846086    -1.337621473712    -0.000031196618    12.000000000000
         C           -2.574511846086    -0.038988473712    -0.000042196618    12.000000000000
         H            0.556077153914     2.798363526288    -0.000031196618     1.007825032230
         H            2.797259153914     1.651610526288     0.000073803382     1.007825032230
         H           -0.231614846086    -2.540829473712    -0.000005196618     1.007825032230
         H           -2.195474846086     2.090808526288    -0.000045196618     1.007825032230
         H            2.552454153914    -1.977812473712     0.883179803382     1.007825032230
         H            2.551993153914    -1.978334473712    -0.882609196618     1.007825032230
         H            3.661123153914    -0.919395473712    -0.000320196618     1.007825032230
         H           -2.686115846086    -2.197480473712    -0.000051196618     1.007825032230
         H           -3.655562846086     0.079631526288    -0.000061196618     1.007825032230

  Basis Set: AUG-CC-PVTZ
    Blend: AUG-CC-PVTZ
  Basis Set: (AUG-CC-PVTZ AUX)
    Blend: AUG-CC-PVTZ-JKFIT
	 Reference Energy          =    -400.6389125091938013 [Eh]
	 Singles Energy            =      -0.0000000000000000 [Eh]
	 Same-Spin Energy          =      -0.4519188817103499 [Eh]
	 Opposite-Spin Energy      =      -1.4043138561847113 [Eh]
	 Correlation Energy        =      -1.8562327378950612 [Eh]
	 Total Energy              =    -402.4951452470888853 [Eh]

	 ================> DF-SCS-MP2 Energies <==================
	-----------------------------------------------------------
	 SCS Same-Spin Scale       =       0.3333333333333333 [-]
	 SCS Opposite-Spin Scale   =       1.2000000000000000 [-]
	 SCS Same-Spin Energy      =      -0.1506396272367833 [Eh]
	 SCS Opposite-Spin Energy  =      -1.6851766274216535 [Eh]
	 SCS Correlation Energy    =      -1.8358162546584369 [Eh]
	 SCS Total Energy          =    -402.4747287638522266 [Eh]
	-----------------------------------------------------------

  Dipole Moment: [D]
     X:     0.9739      Y:     1.8410      Z:     0.0000     Total:     2.0827

*** Psi4 exiting successfully. Buy a developer a beer!
