                               Psi4 1.3.2 release

  ==> Input File <==

--------------------------------------------------------------------------
#psi4
#
memory 32 gb

molecule  {
0 1
  N        0.6331050     1.8115130    -0.0000210
  C        0.1785470    -0.3913160     0.0000090
  C       -0.4036780     0.9062970    -0.0000200
  C        1.6027310    -0.2274780     0.0000040
  C        1.8344040     1.1305020     0.0000620
  C       -0.6692560    -1.5149550    -0.0000180
  C       -1.7891560     1.1099920    -0.0000270
  C        2.4894312    -1.1720763     0.0000603
  C       -2.0437110    -1.3184960    -0.0000320
  C       -2.5979760    -0.0198630    -0.0000430
  H        0.5326130     2.8174890    -0.0000320
  H        2.7737950     1.6707360     0.0000730
  H       -0.2550790    -2.5217040    -0.0000060
  H       -2.2189390     2.1099340    -0.0000460
  H        2.5289900    -1.9586870     0.8831790
  H        2.5285290    -1.9592090    -0.8826100
  H        3.6376590    -0.9002700    -0.0003210
  H       -2.7095800    -2.1783550    -0.0000520
  H       -3.6790270     0.0987570    -0.0000620
units angstrom
no_reorient  #important for SAPT in psi4, default
symmetry c1  #important for SAPT in psi4, default
}

set PROPERTIES_ORIGIN ["COM"]
properties('MP2/aug-cc-pvtz', properties = ['dipole'])
--------------------------------------------------------------------------

    Molecular point group: c1
  Charge       = 0
  Multiplicity = 1
  Basis Set: AUG-CC-PVTZ
    Blend: AUG-CC-PVTZ
  Basis Set: (AUG-CC-PVTZ AUX)
    Blend: AUG-CC-PVTZ-JKFIT

    Orbital Energies [Eh]
    ---------------------

    Doubly Occupied:

       1A    -15.602592     2A    -11.268377     3A    -11.267246
       4A    -11.233291     5A    -11.231907     6A    -11.231038
       7A    -11.230755     8A    -11.223112     9A    -11.222472
      10A    -11.210335    11A     -1.295021    12A     -1.129892
      13A     -1.100710    14A     -1.003148    15A     -0.990962
      16A     -0.928214    17A     -0.840842    18A     -0.807579
      19A     -0.755643    20A     -0.723704    21A     -0.665229
      22A     -0.649216    23A     -0.616212    24A     -0.597059
      25A     -0.594820    26A     -0.584682    27A     -0.564533
      28A     -0.527486    29A     -0.518872    30A     -0.489947
      31A     -0.464645    32A     -0.457635    33A     -0.366420
      34A     -0.300024    35A     -0.276221

  @DF-RHF Final Energy:  -400.58686400283335

   => Energetics <=

    Nuclear Repulsion Energy =            487.0381342281260686
    One-Electron Energy =               -1507.3103183572754915
    Two-Electron Energy =                 619.6853201263160145
    Total Energy =                       -400.5868640028334084
  Basis Set: (AUG-CC-PVTZ AUX)
    Blend: AUG-CC-PVTZ-RI
    Molecular point group: c1

    Geometry (in Angstrom), charge = 0, multiplicity = 1:

       Center              X                  Y                   Z               Mass
    ------------   -----------------  -----------------  -----------------  -----------------
         N            0.669382554098     1.776764212567    -0.000019271946    14.003074004430
         C            0.214824554098    -0.426064787433     0.000010728054    12.000000000000
         C           -0.367400445902     0.871548212567    -0.000018271946    12.000000000000
         C            1.639008554098    -0.262226787433     0.000005728054    12.000000000000
         C            1.870681554098     1.095753212567     0.000063728054    12.000000000000
         C           -0.632978445902    -1.549703787433    -0.000016271946    12.000000000000
         C           -1.752878445902     1.075243212567    -0.000025271946    12.000000000000
         C            2.525708754098    -1.206825087433     0.000062028054    12.000000000000
         C           -2.007433445902    -1.353244787433    -0.000030271946    12.000000000000
         C           -2.561698445902    -0.054611787433    -0.000041271946    12.000000000000
         H            0.568890554098     2.782740212567    -0.000030271946     1.007825032230
         H            2.810072554098     1.635987212567     0.000074728054     1.007825032230
         H           -0.218801445902    -2.556452787433    -0.000004271946     1.007825032230
         H           -2.182661445902     2.075185212567    -0.000044271946     1.007825032230
         H            2.565267554098    -1.993435787433     0.883180728054     1.007825032230
         H            2.564806554098    -1.993957787433    -0.882608271946     1.007825032230
         H            3.673936554098    -0.935018787433    -0.000319271946     1.007825032230
         H           -2.673302445902    -2.213103787433    -0.000050271946     1.007825032230
         H           -3.642749445902     0.064008212567    -0.000060271946     1.007825032230

  Basis Set: AUG-CC-PVTZ
    Blend: AUG-CC-PVTZ
  Basis Set: (AUG-CC-PVTZ AUX)
    Blend: AUG-CC-PVTZ-JKFIT
	 Reference Energy          =    -400.5868640028333516 [Eh]
	 Singles Energy            =      -0.0000000000000000 [Eh]
	 Same-Spin Energy          =      -0.4552413505598858 [Eh]
	 Opposite-Spin Energy      =      -1.4085655612342276 [Eh]
	 Correlation Energy        =      -1.8638069117941134 [Eh]
	 Total Energy              =    -402.4506709146274375 [Eh]

	 ================> DF-SCS-MP2 Energies <==================
	-----------------------------------------------------------
	 SCS Same-Spin Scale       =       0.3333333333333333 [-]
	 SCS Opposite-Spin Scale   =       1.2000000000000000 [-]
	 SCS Same-Spin Energy      =      -0.1517471168532953 [Eh]
	 SCS Opposite-Spin Energy  =      -1.6902786734810731 [Eh]
	 SCS Correlation Energy    =      -1.8420257903343684 [Eh]
	 SCS Total Energy          =    -402.4288897931677411 [Eh]
	-----------------------------------------------------------

  Dipole Moment: [D]
     X:     0.7683      Y:     1.9456      Z:     0.0000     Total:     2.0918

*** Psi4 exiting successfully. Buy a developer a beer!
