                               Psi4 1.3.2 release

  ==> Input File <==

--------------------------------------------------------------------------
#psi4
#
memory 32 gb

molecule  {
0 1
  N        0.6331050     1.8115130    -0.0000210
  C        0.1785470    -0.3913160     0.0000090
  C       -0.4036780     0.9062970    -0.0000200
  C        1.5513723    -0.2869177     0.1354119
  C        1.8344040     1.1305020     0.0000620
  C       -0.6692560    -1.5149550    -0.0000180
  C       -1.7891560     1.1099920    -0.0000270
  C        2.6263130    -1.3178960     0.0000690
  C       -2.0437110    -1.3184960    -0.0000320
  C       -2.5979760    -0.0198630    -0.0000430
  H        0.5326130     2.8174890    -0.0000320
  H        2.7737950     1.6707360     0.0000730
  H       -0.2550790    -2.5217040    -0.0000060
  H       -2.2189390     2.1099340    -0.0000460
  H        2.5289900    -1.9586870     0.8831790
  H        2.5285290    -1.9592090    -0.8826100
  H        3.6376590    -0.9002700    -0.0003210
  H       -2.7095800    -2.1783550    -0.0000520
  H       -3.6790270     0.0987570    -0.0000620
units angstrom
no_reorient  #important for SAPT in psi4, default
symmetry c1  #important for SAPT in psi4, default
}

set PROPERTIES_ORIGIN ["COM"]
properties('MP2/aug-cc-pvtz', properties = ['dipole'])
--------------------------------------------------------------------------

    Molecular point group: c1
  Charge       = 0
  Multiplicity = 1
  Basis Set: AUG-CC-PVTZ
    Blend: AUG-CC-PVTZ
  Basis Set: (AUG-CC-PVTZ AUX)
    Blend: AUG-CC-PVTZ-JKFIT

    Orbital Energies [Eh]
    ---------------------

    Doubly Occupied:

       1A    -15.607403     2A    -11.273441     3A    -11.264696
       4A    -11.233132     5A    -11.228261     6A    -11.228006
       7A    -11.225592     8A    -11.221428     9A    -11.221009
      10A    -11.219606    11A     -1.292934    12A     -1.128791
      13A     -1.072862    14A     -0.997492    15A     -0.984768
      16A     -0.925752    17A     -0.839866    18A     -0.807745
      19A     -0.757338    20A     -0.720968    21A     -0.658364
      22A     -0.644019    23A     -0.605571    24A     -0.593737
      25A     -0.591538    26A     -0.568548    27A     -0.558331
      28A     -0.538451    29A     -0.523488    30A     -0.491330
      31A     -0.481303    32A     -0.461917    33A     -0.376565
      34A     -0.301476    35A     -0.265714

  @DF-RHF Final Energy:  -400.62301218644365

   => Energetics <=

    Nuclear Repulsion Energy =            483.2732663390164589
    One-Electron Energy =               -1499.9696678739139770
    Two-Electron Energy =                 616.0733893484539294
    Total Energy =                       -400.6230121864435887
  Basis Set: (AUG-CC-PVTZ AUX)
    Blend: AUG-CC-PVTZ-RI
    Molecular point group: c1

    Geometry (in Angstrom), charge = 0, multiplicity = 1:

       Center              X                  Y                   Z               Mass
    ------------   -----------------  -----------------  -----------------  -----------------
         N            0.661552770003     1.795556056938    -0.012416890143    14.003074004430
         C            0.206994770003    -0.407272943062    -0.012386890143    12.000000000000
         C           -0.375230229997     0.890340056938    -0.012415890143    12.000000000000
         C            1.579820070003    -0.302874643062     0.123016009857    12.000000000000
         C            1.862851770003     1.114545056938    -0.012333890143    12.000000000000
         C           -0.640808229997    -1.530911943062    -0.012413890143    12.000000000000
         C           -1.760708229997     1.094035056938    -0.012422890143    12.000000000000
         C            2.654760770003    -1.333852943062    -0.012326890143    12.000000000000
         C           -2.015263229997    -1.334452943062    -0.012427890143    12.000000000000
         C           -2.569528229997    -0.035819943062    -0.012438890143    12.000000000000
         H            0.561060770003     2.801532056938    -0.012427890143     1.007825032230
         H            2.802242770003     1.654779056938    -0.012322890143     1.007825032230
         H           -0.226631229997    -2.537660943062    -0.012401890143     1.007825032230
         H           -2.190491229997     2.093977056938    -0.012441890143     1.007825032230
         H            2.557437770003    -1.974643943062     0.870783109857     1.007825032230
         H            2.556976770003    -1.975165943062    -0.895005890143     1.007825032230
         H            3.666106770003    -0.916226943062    -0.012716890143     1.007825032230
         H           -2.681132229997    -2.194311943062    -0.012447890143     1.007825032230
         H           -3.650579229997     0.082800056938    -0.012457890143     1.007825032230

  Basis Set: AUG-CC-PVTZ
    Blend: AUG-CC-PVTZ
  Basis Set: (AUG-CC-PVTZ AUX)
    Blend: AUG-CC-PVTZ-JKFIT
	 Reference Energy          =    -400.6230121864436455 [Eh]
	 Singles Energy            =      -0.0000000000000000 [Eh]
	 Same-Spin Energy          =      -0.4539356702031282 [Eh]
	 Opposite-Spin Energy      =      -1.4078058872143056 [Eh]
	 Correlation Energy        =      -1.8617415574174339 [Eh]
	 Total Energy              =    -402.4847537438610630 [Eh]

	 ================> DF-SCS-MP2 Energies <==================
	-----------------------------------------------------------
	 SCS Same-Spin Scale       =       0.3333333333333333 [-]
	 SCS Opposite-Spin Scale   =       1.2000000000000000 [-]
	 SCS Same-Spin Energy      =      -0.1513118900677094 [Eh]
	 SCS Opposite-Spin Energy  =      -1.6893670646571666 [Eh]
	 SCS Correlation Energy    =      -1.8406789547248761 [Eh]
	 SCS Total Energy          =    -402.4636911411685105 [Eh]
	-----------------------------------------------------------

  Dipole Moment: [D]
     X:     0.9422      Y:     1.8933      Z:    -0.1031     Total:     2.1173

*** Psi4 exiting successfully. Buy a developer a beer!
