                               Psi4 1.3.2 release

  ==> Input File <==

--------------------------------------------------------------------------
#psi4
#
memory 32 gb

molecule  {
0 1
  N        0.6331050     1.8115130    -0.0000210
  C        0.1785470    -0.3913160     0.0000090
  C       -0.4036780     0.9062970    -0.0000200
  C        1.6027310    -0.2274780     0.0000040
  C        1.7868701     1.1377600     0.0000578
  C       -0.6692560    -1.5149550    -0.0000180
  C       -1.7891560     1.1099920    -0.0000270
  C        2.6263130    -1.3178960     0.0000690
  C       -2.0437110    -1.3184960    -0.0000320
  C       -2.5979760    -0.0198630    -0.0000430
  H        0.5326130     2.8174890    -0.0000320
  H        2.7737950     1.6707360     0.0000730
  H       -0.2550790    -2.5217040    -0.0000060
  H       -2.2189390     2.1099340    -0.0000460
  H        2.5289900    -1.9586870     0.8831790
  H        2.5285290    -1.9592090    -0.8826100
  H        3.6376590    -0.9002700    -0.0003210
  H       -2.7095800    -2.1783550    -0.0000520
  H       -3.6790270     0.0987570    -0.0000620
units angstrom
no_reorient  #important for SAPT in psi4, default
symmetry c1  #important for SAPT in psi4, default
}

set PROPERTIES_ORIGIN ["COM"]
properties('MP2/aug-cc-pvtz', properties = ['dipole'])
--------------------------------------------------------------------------

    Molecular point group: c1
  Charge       = 0
  Multiplicity = 1
  Basis Set: AUG-CC-PVTZ
    Blend: AUG-CC-PVTZ
  Basis Set: (AUG-CC-PVTZ AUX)
    Blend: AUG-CC-PVTZ-JKFIT

    Orbital Energies [Eh]
    ---------------------

    Doubly Occupied:

       1A    -15.603311     2A    -11.265625     3A    -11.263621
       4A    -11.232453     5A    -11.228643     6A    -11.227713
       7A    -11.221926     8A    -11.221485     9A    -11.221199
      10A    -11.217889    11A     -1.306468    12A     -1.128358
      13A     -1.071747    14A     -0.998467    15A     -0.984954
      16A     -0.931941    17A     -0.838696    18A     -0.802557
      19A     -0.759277    20A     -0.724928    21A     -0.661509
      22A     -0.639589    23A     -0.605513    24A     -0.597319
      25A     -0.593185    26A     -0.561885    27A     -0.553238
      28A     -0.546123    29A     -0.526877    30A     -0.495711
      31A     -0.474202    32A     -0.465507    33A     -0.373515
      34A     -0.301044    35A     -0.274032

  @DF-RHF Final Energy:  -400.63742811097359

   => Energetics <=

    Nuclear Repulsion Energy =            484.1331555800585420
    One-Electron Energy =               -1501.7001586322264757
    Two-Electron Energy =                 616.9295749411943461
    Total Energy =                       -400.6374281109735875
  Basis Set: (AUG-CC-PVTZ AUX)
    Blend: AUG-CC-PVTZ-RI
    Molecular point group: c1

    Geometry (in Angstrom), charge = 0, multiplicity = 1:

       Center              X                  Y                   Z               Mass
    ------------   -----------------  -----------------  -----------------  -----------------
         N            0.661202603110     1.789449769975    -0.000019683929    14.003074004430
         C            0.206644603110    -0.413379230025     0.000010316071    12.000000000000
         C           -0.375580396890     0.884233769975    -0.000018683929    12.000000000000
         C            1.630828603110    -0.249541230025     0.000005316071    12.000000000000
         C            1.814967703110     1.115696769975     0.000059116071    12.000000000000
         C           -0.641158396890    -1.537018230025    -0.000016683929    12.000000000000
         C           -1.761058396890     1.087928769975    -0.000025683929    12.000000000000
         C            2.654410603110    -1.339959230025     0.000070316071    12.000000000000
         C           -2.015613396890    -1.340559230025    -0.000030683929    12.000000000000
         C           -2.569878396890    -0.041926230025    -0.000041683929    12.000000000000
         H            0.560710603110     2.795425769975    -0.000030683929     1.007825032230
         H            2.801892603110     1.648672769975     0.000074316071     1.007825032230
         H           -0.226981396890    -2.543767230025    -0.000004683929     1.007825032230
         H           -2.190841396890     2.087870769975    -0.000044683929     1.007825032230
         H            2.557087603110    -1.980750230025     0.883180316071     1.007825032230
         H            2.556626603110    -1.981272230025    -0.882608683929     1.007825032230
         H            3.665756603110    -0.922333230025    -0.000319683929     1.007825032230
         H           -2.681482396890    -2.200418230025    -0.000050683929     1.007825032230
         H           -3.650929396890     0.076693769975    -0.000060683929     1.007825032230

  Basis Set: AUG-CC-PVTZ
    Blend: AUG-CC-PVTZ
  Basis Set: (AUG-CC-PVTZ AUX)
    Blend: AUG-CC-PVTZ-JKFIT
	 Reference Energy          =    -400.6374281109735875 [Eh]
	 Singles Energy            =      -0.0000000000000000 [Eh]
	 Same-Spin Energy          =      -0.4520149418747090 [Eh]
	 Opposite-Spin Energy      =      -1.4038489127437743 [Eh]
	 Correlation Energy        =      -1.8558638546184834 [Eh]
	 Total Energy              =    -402.4932919655920500 [Eh]

	 ================> DF-SCS-MP2 Energies <==================
	-----------------------------------------------------------
	 SCS Same-Spin Scale       =       0.3333333333333333 [-]
	 SCS Opposite-Spin Scale   =       1.2000000000000000 [-]
	 SCS Same-Spin Energy      =      -0.1506716472915697 [Eh]
	 SCS Opposite-Spin Energy  =      -1.6846186952925291 [Eh]
	 SCS Correlation Energy    =      -1.8352903425840987 [Eh]
	 SCS Total Energy          =    -402.4727184535576612 [Eh]
	-----------------------------------------------------------

  Dipole Moment: [D]
     X:     0.9393      Y:     1.8934      Z:     0.0000     Total:     2.1136

*** Psi4 exiting successfully. Buy a developer a beer!
