                               Psi4 1.3.2 release

  ==> Input File <==

--------------------------------------------------------------------------
#psi4
#
memory 32 gb

molecule  {
0 1
  N        0.6331050     1.8115130    -0.0000210
  C        0.1934450    -0.4902630     0.0000147
  C       -0.4036780     0.9062970    -0.0000200
  C        1.6027310    -0.2274780     0.0000040
  C        1.8344040     1.1305020     0.0000620
  C       -0.6692560    -1.5149550    -0.0000180
  C       -1.7891560     1.1099920    -0.0000270
  C        2.6263130    -1.3178960     0.0000690
  C       -2.0437110    -1.3184960    -0.0000320
  C       -2.5979760    -0.0198630    -0.0000430
  H        0.5326130     2.8174890    -0.0000320
  H        2.7737950     1.6707360     0.0000730
  H       -0.2550790    -2.5217040    -0.0000060
  H       -2.2189390     2.1099340    -0.0000460
  H        2.5289900    -1.9586870     0.8831790
  H        2.5285290    -1.9592090    -0.8826100
  H        3.6376590    -0.9002700    -0.0003210
  H       -2.7095800    -2.1783550    -0.0000520
  H       -3.6790270     0.0987570    -0.0000620
units angstrom
no_reorient  #important for SAPT in psi4, default
symmetry c1  #important for SAPT in psi4, default
}

set PROPERTIES_ORIGIN ["COM"]
properties('MP2/aug-cc-pvtz', properties = ['dipole'])
--------------------------------------------------------------------------

    Molecular point group: c1
  Charge       = 0
  Multiplicity = 1
  Basis Set: AUG-CC-PVTZ
    Blend: AUG-CC-PVTZ
  Basis Set: (AUG-CC-PVTZ AUX)
    Blend: AUG-CC-PVTZ-JKFIT

    Orbital Energies [Eh]
    ---------------------

    Doubly Occupied:

       1A    -15.603857     2A    -11.275501     3A    -11.268436
       4A    -11.230140     5A    -11.228484     6A    -11.227170
       7A    -11.225780     8A    -11.223467     9A    -11.219684
      10A    -11.219607    11A     -1.289029    12A     -1.128992
      13A     -1.074763    14A     -1.002173    15A     -0.980095
      16A     -0.930536    17A     -0.840807    18A     -0.810011
      19A     -0.750790    20A     -0.720030    21A     -0.666182
      22A     -0.646367    23A     -0.603442    24A     -0.590347
      25A     -0.589233    26A     -0.574337    27A     -0.550156
      28A     -0.539490    29A     -0.530409    30A     -0.506820
      31A     -0.466085    32A     -0.454898    33A     -0.384045
      34A     -0.289987    35A     -0.279869

  @DF-RHF Final Energy:  -400.62636189497897

   => Energetics <=

    Nuclear Repulsion Energy =            482.4669202214370216
    One-Electron Energy =               -1498.3445314934358521
    Two-Electron Energy =                 615.2512493770198034
    Total Energy =                       -400.6263618949790271
  Basis Set: (AUG-CC-PVTZ AUX)
    Blend: AUG-CC-PVTZ-RI
    Molecular point group: c1

    Geometry (in Angstrom), charge = 0, multiplicity = 1:

       Center              X                  Y                   Z               Mass
    ------------   -----------------  -----------------  -----------------  -----------------
         N            0.655486857334     1.799173016908    -0.000020590290    14.003074004430
         C            0.215826857334    -0.502602983092     0.000015109710    12.000000000000
         C           -0.381296142666     0.893957016908    -0.000019590290    12.000000000000
         C            1.625112857334    -0.239817983092     0.000004409710    12.000000000000
         C            1.856785857334     1.118162016908     0.000062409710    12.000000000000
         C           -0.646874142666    -1.527294983092    -0.000017590290    12.000000000000
         C           -1.766774142666     1.097652016908    -0.000026590290    12.000000000000
         C            2.648694857334    -1.330235983092     0.000069409710    12.000000000000
         C           -2.021329142666    -1.330835983092    -0.000031590290    12.000000000000
         C           -2.575594142666    -0.032202983092    -0.000042590290    12.000000000000
         H            0.554994857334     2.805149016908    -0.000031590290     1.007825032230
         H            2.796176857334     1.658396016908     0.000073409710     1.007825032230
         H           -0.232697142666    -2.534043983092    -0.000005590290     1.007825032230
         H           -2.196557142666     2.097594016908    -0.000045590290     1.007825032230
         H            2.551371857334    -1.971026983092     0.883179409710     1.007825032230
         H            2.550910857334    -1.971548983092    -0.882609590290     1.007825032230
         H            3.660040857334    -0.912609983092    -0.000320590290     1.007825032230
         H           -2.687198142666    -2.190694983092    -0.000051590290     1.007825032230
         H           -3.656645142666     0.086417016908    -0.000061590290     1.007825032230

  Basis Set: AUG-CC-PVTZ
    Blend: AUG-CC-PVTZ
  Basis Set: (AUG-CC-PVTZ AUX)
    Blend: AUG-CC-PVTZ-JKFIT
	 Reference Energy          =    -400.6263618949789702 [Eh]
	 Singles Energy            =      -0.0000000000000000 [Eh]
	 Same-Spin Energy          =      -0.4525685719782219 [Eh]
	 Opposite-Spin Energy      =      -1.4052460838861549 [Eh]
	 Correlation Energy        =      -1.8578146558643769 [Eh]
	 Total Energy              =    -402.4841765508433582 [Eh]

	 ================> DF-SCS-MP2 Energies <==================
	-----------------------------------------------------------
	 SCS Same-Spin Scale       =       0.3333333333333333 [-]
	 SCS Opposite-Spin Scale   =       1.2000000000000000 [-]
	 SCS Same-Spin Energy      =      -0.1508561906594073 [Eh]
	 SCS Opposite-Spin Energy  =      -1.6862953006633858 [Eh]
	 SCS Correlation Energy    =      -1.8371514913227931 [Eh]
	 SCS Total Energy          =    -402.4635133863017700 [Eh]
	-----------------------------------------------------------

  Dipole Moment: [D]
     X:     1.0121      Y:     1.9397      Z:     0.0000     Total:     2.1879

*** Psi4 exiting successfully. Buy a developer a beer!
