                               Psi4 1.4a3.dev225

  ==> Input File <==

--------------------------------------------------------------------------
#psi4
#
memory 32 gb

molecule  {
0 1
  N        0.6328470     1.8116750    -0.0000110
  C        0.1785880    -0.3910020     0.0000110
  C       -0.4037990     0.9065110    -0.0000170
  C        1.6028840    -0.2271790     0.0000140
  C        1.8343140     1.1308640     0.0000150
  C       -0.6688480    -1.5149650    -0.0000030
  C       -1.7894490     1.1098660    -0.0000340
  C        2.5918013    -1.2816945     0.0000701
  C       -2.0432580    -1.3188880    -0.0000200
  C       -2.5978380    -0.0201330    -0.0000420
  H        0.5326210     2.8176630    -0.0000280
  H        2.7737410     1.6710700     0.0000120
  H       -0.2538270    -2.5213870     0.0000180
  H       -2.2194200     2.1097690    -0.0000540
  H        2.5281550    -1.9589590     0.8831170
  H        2.5278660    -1.9593030    -0.8826910
  H        3.6376920    -0.9014020    -0.0001770
  H       -2.7093880    -2.1785190    -0.0000290
  H       -3.6789550     0.0979000    -0.0000560
units angstrom
no_reorient  #important for SAPT in psi4, default
symmetry c1  #important for SAPT in psi4, default
}

set PROPERTIES_ORIGIN ["COM"]
properties('MP2/aug-cc-pvtz', properties = ['dipole'])
--------------------------------------------------------------------------

    Molecular point group: c1
  Charge       = 0
  Multiplicity = 1
  Basis Set: AUG-CC-PVTZ
    Blend: AUG-CC-PVTZ
  Basis Set: (AUG-CC-PVTZ AUX)
    Blend: AUG-CC-PVTZ-JKFIT

    Orbital Energies [Eh]
    ---------------------

    Doubly Occupied:

       1A    -15.600391     2A    -11.265647     3A    -11.265174
       4A    -11.232126     5A    -11.230893     6A    -11.229763
       7A    -11.223219     8A    -11.222279     9A    -11.221329
      10A    -11.219757    11A     -1.292282    12A     -1.127436
      13A     -1.077404    14A     -0.998396    15A     -0.986999
      16A     -0.929677    17A     -0.839318    18A     -0.804648
      19A     -0.756264    20A     -0.720895    21A     -0.660918
      22A     -0.645483    23A     -0.604633    24A     -0.593490
      25A     -0.591848    26A     -0.570852    27A     -0.552449
      28A     -0.544659    29A     -0.525481    30A     -0.494972
      31A     -0.475737    32A     -0.463357    33A     -0.373161
      34A     -0.298891    35A     -0.277646

  @DF-RHF Final Energy:  -400.63685482825792

   => Energetics <=

    Nuclear Repulsion Energy =            484.1415983237027945
    One-Electron Energy =               -1501.7219521485412770
    Two-Electron Energy =                 616.9434989965806153
    Total Energy =                       -400.6368548282579241
  Basis Set: (AUG-CC-PVTZ AUX)
    Blend: AUG-CC-PVTZ-RI
    Molecular point group: c1

    Geometry (in Angstrom), charge = 0, multiplicity = 1:

       Center              X                  Y                   Z               Mass
    ------------   -----------------  -----------------  -----------------  -----------------
         N            0.659720542693     1.786923133804    -0.000010145843    14.003074004430
         C            0.205461542693    -0.415753866196     0.000011854157    12.000000000000
         C           -0.376925457307     0.881759133804    -0.000016145843    12.000000000000
         C            1.629757542693    -0.251930866196     0.000014854157    12.000000000000
         C            1.861187542693     1.106112133804     0.000015854157    12.000000000000
         C           -0.641974457307    -1.539716866196    -0.000002145843    12.000000000000
         C           -1.762575457307     1.085114133804    -0.000033145843    12.000000000000
         C            2.618674842693    -1.306446366196     0.000070954157    12.000000000000
         C           -2.016384457307    -1.343639866196    -0.000019145843    12.000000000000
         C           -2.570964457307    -0.044884866196    -0.000041145843    12.000000000000
         H            0.559494542693     2.792911133804    -0.000027145843     1.007825032230
         H            2.800614542693     1.646318133804     0.000012854157     1.007825032230
         H           -0.226953457307    -2.546138866196     0.000018854157     1.007825032230
         H           -2.192546457307     2.085017133804    -0.000053145843     1.007825032230
         H            2.555028542693    -1.983710866196     0.883117854157     1.007825032230
         H            2.554739542693    -1.984054866196    -0.882690145843     1.007825032230
         H            3.664565542693    -0.926153866196    -0.000176145843     1.007825032230
         H           -2.682514457307    -2.203270866196    -0.000028145843     1.007825032230
         H           -3.652081457307     0.073148133804    -0.000055145843     1.007825032230

  Basis Set: AUG-CC-PVTZ
    Blend: AUG-CC-PVTZ
  Basis Set: (AUG-CC-PVTZ AUX)
    Blend: AUG-CC-PVTZ-JKFIT
	 Reference Energy          =    -400.6368548282579241 [Eh]
	 Singles Energy            =      -0.0000000000000000 [Eh]
	 Same-Spin Energy          =      -0.4522168153775218 [Eh]
	 Opposite-Spin Energy      =      -1.4046434784569430 [Eh]
	 Correlation Energy        =      -1.8568602938344649 [Eh]
	 Total Energy              =    -402.4937151220923965 [Eh]

	 ================> DF-SCS-MP2 Energies <==================
	-----------------------------------------------------------
	 SCS Same-Spin Scale       =       0.3333333333333333 [-]
	 SCS Opposite-Spin Scale   =       1.2000000000000000 [-]
	 SCS Same-Spin Energy      =      -0.1507389384591739 [Eh]
	 SCS Opposite-Spin Energy  =      -1.6855721741483316 [Eh]
	 SCS Correlation Energy    =      -1.8363111126075056 [Eh]
	 SCS Total Energy          =    -402.4731659408654423 [Eh]
	-----------------------------------------------------------

  Dipole Moment: [D]
     X:     0.9284      Y:     1.8269      Z:     0.0000     Total:     2.0492

*** Psi4 exiting successfully. Buy a developer a beer!
