                               Psi4 1.3.2 release

  ==> Input File <==

--------------------------------------------------------------------------
#psi4
#
memory 32 gb

molecule  {
0 1
  N        0.6331050     1.8115130    -0.0000210
  C        0.1785470    -0.3913160     0.0000090
  C       -0.4036780     0.9062970    -0.0000200
  C        1.6027310    -0.2274780     0.0000040
  C        1.7391118     1.1433547     0.0000536
  C       -0.6692560    -1.5149550    -0.0000180
  C       -1.7891560     1.1099920    -0.0000270
  C        2.6263130    -1.3178960     0.0000690
  C       -2.0437110    -1.3184960    -0.0000320
  C       -2.5979760    -0.0198630    -0.0000430
  H        0.5326130     2.8174890    -0.0000320
  H        2.7737950     1.6707360     0.0000730
  H       -0.2550790    -2.5217040    -0.0000060
  H       -2.2189390     2.1099340    -0.0000460
  H        2.5289900    -1.9586870     0.8831790
  H        2.5285290    -1.9592090    -0.8826100
  H        3.6376590    -0.9002700    -0.0003210
  H       -2.7095800    -2.1783550    -0.0000520
  H       -3.6790270     0.0987570    -0.0000620
units angstrom
no_reorient  #important for SAPT in psi4, default
symmetry c1  #important for SAPT in psi4, default
}

set PROPERTIES_ORIGIN ["COM"]
properties('MP2/aug-cc-pvtz', properties = ['dipole'])
--------------------------------------------------------------------------

    Molecular point group: c1
  Charge       = 0
  Multiplicity = 1
  Basis Set: AUG-CC-PVTZ
    Blend: AUG-CC-PVTZ
  Basis Set: (AUG-CC-PVTZ AUX)
    Blend: AUG-CC-PVTZ-JKFIT

    Orbital Energies [Eh]
    ---------------------

    Doubly Occupied:

       1A    -15.606583     2A    -11.267162     3A    -11.262068
       4A    -11.233209     5A    -11.226685     6A    -11.225932
       7A    -11.221841     8A    -11.221461     9A    -11.221386
      10A    -11.213994    11A     -1.323156    12A     -1.129801
      13A     -1.071671    14A     -1.000096    15A     -0.983962
      16A     -0.933193    17A     -0.839300    18A     -0.801024
      19A     -0.765968    20A     -0.728426    21A     -0.662644
      22A     -0.634960    23A     -0.607644    24A     -0.604415
      25A     -0.593412    26A     -0.554778    27A     -0.554219
      28A     -0.549242    29A     -0.523217    30A     -0.493081
      31A     -0.472063    32A     -0.467883    33A     -0.372638
      34A     -0.303523    35A     -0.270464

  @DF-RHF Final Energy:  -400.62801192273048

   => Energetics <=

    Nuclear Repulsion Energy =            485.0598599047658581
    One-Electron Energy =               -1503.4935430276977968
    Two-Electron Energy =                 617.8056712002014592
    Total Energy =                       -400.6280119227304795
  Basis Set: (AUG-CC-PVTZ AUX)
    Blend: AUG-CC-PVTZ-RI
    Molecular point group: c1

    Geometry (in Angstrom), charge = 0, multiplicity = 1:

       Center              X                  Y                   Z               Mass
    ------------   -----------------  -----------------  -----------------  -----------------
         N            0.665574956050     1.788937565751    -0.000019299412    14.003074004430
         C            0.211016956050    -0.413891434249     0.000010700588    12.000000000000
         C           -0.371208043950     0.883721565751    -0.000018299412    12.000000000000
         C            1.635200956050    -0.250053434249     0.000005700588    12.000000000000
         C            1.771581756050     1.120779265751     0.000055300588    12.000000000000
         C           -0.636786043950    -1.537530434249    -0.000016299412    12.000000000000
         C           -1.756686043950     1.087416565751    -0.000025299412    12.000000000000
         C            2.658782956050    -1.340471434249     0.000070700588    12.000000000000
         C           -2.011241043950    -1.341071434249    -0.000030299412    12.000000000000
         C           -2.565506043950    -0.042438434249    -0.000041299412    12.000000000000
         H            0.565082956050     2.794913565751    -0.000030299412     1.007825032230
         H            2.806264956050     1.648160565751     0.000074700588     1.007825032230
         H           -0.222609043950    -2.544279434249    -0.000004299412     1.007825032230
         H           -2.186469043950     2.087358565751    -0.000044299412     1.007825032230
         H            2.561459956050    -1.981262434249     0.883180700588     1.007825032230
         H            2.560998956050    -1.981784434249    -0.882608299412     1.007825032230
         H            3.670128956050    -0.922845434249    -0.000319299412     1.007825032230
         H           -2.677110043950    -2.200930434249    -0.000050299412     1.007825032230
         H           -3.646557043950     0.076181565751    -0.000060299412     1.007825032230

  Basis Set: AUG-CC-PVTZ
    Blend: AUG-CC-PVTZ
  Basis Set: (AUG-CC-PVTZ AUX)
    Blend: AUG-CC-PVTZ-JKFIT
	 Reference Energy          =    -400.6280119227304795 [Eh]
	 Singles Energy            =      -0.0000000000000000 [Eh]
	 Same-Spin Energy          =      -0.4523963777124078 [Eh]
	 Opposite-Spin Energy      =      -1.4037769390031043 [Eh]
	 Correlation Energy        =      -1.8561733167155121 [Eh]
	 Total Energy              =    -402.4841852394459920 [Eh]

	 ================> DF-SCS-MP2 Energies <==================
	-----------------------------------------------------------
	 SCS Same-Spin Scale       =       0.3333333333333333 [-]
	 SCS Opposite-Spin Scale   =       1.2000000000000000 [-]
	 SCS Same-Spin Energy      =      -0.1507987925708026 [Eh]
	 SCS Opposite-Spin Energy  =      -1.6845323268037251 [Eh]
	 SCS Correlation Energy    =      -1.8353311193745276 [Eh]
	 SCS Total Energy          =    -402.4633430421050093 [Eh]
	-----------------------------------------------------------

  Dipole Moment: [D]
     X:     0.9154      Y:     1.9793      Z:     0.0000     Total:     2.1807

*** Psi4 exiting successfully. Buy a developer a beer!
