                               Psi4 1.3.2 release

  ==> Input File <==

--------------------------------------------------------------------------
#psi4
#
memory 32 gb

molecule  {
0 1
  N        0.6331050     1.8115130    -0.0000210
  C        0.1851324    -0.4409195     0.0000118
  C       -0.4036780     0.9062970    -0.0000200
  C        1.6027310    -0.2274780     0.0000040
  C        1.8344040     1.1305020     0.0000620
  C       -0.6692560    -1.5149550    -0.0000180
  C       -1.7891560     1.1099920    -0.0000270
  C        2.6263130    -1.3178960     0.0000690
  C       -2.0437110    -1.3184960    -0.0000320
  C       -2.5979760    -0.0198630    -0.0000430
  H        0.5326130     2.8174890    -0.0000320
  H        2.7737950     1.6707360     0.0000730
  H       -0.2550790    -2.5217040    -0.0000060
  H       -2.2189390     2.1099340    -0.0000460
  H        2.5289900    -1.9586870     0.8831790
  H        2.5285290    -1.9592090    -0.8826100
  H        3.6376590    -0.9002700    -0.0003210
  H       -2.7095800    -2.1783550    -0.0000520
  H       -3.6790270     0.0987570    -0.0000620
units angstrom
no_reorient  #important for SAPT in psi4, default
symmetry c1  #important for SAPT in psi4, default
}

set PROPERTIES_ORIGIN ["COM"]
properties('MP2/aug-cc-pvtz', properties = ['dipole'])
--------------------------------------------------------------------------

    Molecular point group: c1
  Charge       = 0
  Multiplicity = 1
  Basis Set: AUG-CC-PVTZ
    Blend: AUG-CC-PVTZ
  Basis Set: (AUG-CC-PVTZ AUX)
    Blend: AUG-CC-PVTZ-JKFIT

    Orbital Energies [Eh]
    ---------------------

    Doubly Occupied:

       1A    -15.602041     2A    -11.270823     3A    -11.266430
       4A    -11.230637     5A    -11.229257     6A    -11.227283
       7A    -11.224700     8A    -11.223697     9A    -11.220550
      10A    -11.220346    11A     -1.290186    12A     -1.127891
      13A     -1.073455    14A     -0.999292    15A     -0.982937
      16A     -0.930823    17A     -0.839670    18A     -0.807269
      19A     -0.753053    20A     -0.720165    21A     -0.662890
      22A     -0.645423    23A     -0.603060    24A     -0.591620
      25A     -0.591021    26A     -0.572015    27A     -0.550705
      28A     -0.540794    29A     -0.530112    30A     -0.502780
      31A     -0.466083    32A     -0.464493    33A     -0.379331
      34A     -0.294051    35A     -0.278673

  @DF-RHF Final Energy:  -400.63612684809590

   => Energetics <=

    Nuclear Repulsion Energy =            482.8528966267946885
    One-Electron Energy =               -1499.1509363024977119
    Two-Electron Energy =                 615.6619128276070114
    Total Energy =                       -400.6361268480959552
  Basis Set: (AUG-CC-PVTZ AUX)
    Blend: AUG-CC-PVTZ-RI
    Molecular point group: c1

    Geometry (in Angstrom), charge = 0, multiplicity = 1:

       Center              X                  Y                   Z               Mass
    ------------   -----------------  -----------------  -----------------  -----------------
         N            0.656247889888     1.794655536233    -0.000020324790    14.003074004430
         C            0.208275289888    -0.457776963767     0.000012475210    12.000000000000
         C           -0.380535110112     0.889439536233    -0.000019324790    12.000000000000
         C            1.625873889888    -0.244335463767     0.000004675210    12.000000000000
         C            1.857546889888     1.113644536233     0.000062675210    12.000000000000
         C           -0.646113110112    -1.531812463767    -0.000017324790    12.000000000000
         C           -1.766013110112     1.093134536233    -0.000026324790    12.000000000000
         C            2.649455889888    -1.334753463767     0.000069675210    12.000000000000
         C           -2.020568110112    -1.335353463767    -0.000031324790    12.000000000000
         C           -2.574833110112    -0.036720463767    -0.000042324790    12.000000000000
         H            0.555755889888     2.800631536233    -0.000031324790     1.007825032230
         H            2.796937889888     1.653878536233     0.000073675210     1.007825032230
         H           -0.231936110112    -2.538561463767    -0.000005324790     1.007825032230
         H           -2.195796110112     2.093076536233    -0.000045324790     1.007825032230
         H            2.552132889888    -1.975544463767     0.883179675210     1.007825032230
         H            2.551671889888    -1.976066463767    -0.882609324790     1.007825032230
         H            3.660801889888    -0.917127463767    -0.000320324790     1.007825032230
         H           -2.686437110112    -2.195212463767    -0.000051324790     1.007825032230
         H           -3.655884110112     0.081899536233    -0.000061324790     1.007825032230

  Basis Set: AUG-CC-PVTZ
    Blend: AUG-CC-PVTZ
  Basis Set: (AUG-CC-PVTZ AUX)
    Blend: AUG-CC-PVTZ-JKFIT
	 Reference Energy          =    -400.6361268480958984 [Eh]
	 Singles Energy            =      -0.0000000000000000 [Eh]
	 Same-Spin Energy          =      -0.4521404108966961 [Eh]
	 Opposite-Spin Energy      =      -1.4045631481875749 [Eh]
	 Correlation Energy        =      -1.8567035590842709 [Eh]
	 Total Energy              =    -402.4928304071801790 [Eh]

	 ================> DF-SCS-MP2 Energies <==================
	-----------------------------------------------------------
	 SCS Same-Spin Scale       =       0.3333333333333333 [-]
	 SCS Opposite-Spin Scale   =       1.2000000000000000 [-]
	 SCS Same-Spin Energy      =      -0.1507134702988987 [Eh]
	 SCS Opposite-Spin Energy  =      -1.6854757778250897 [Eh]
	 SCS Correlation Energy    =      -1.8361892481239885 [Eh]
	 SCS Total Energy          =    -402.4723160962199131 [Eh]
	-----------------------------------------------------------

  Dipole Moment: [D]
     X:     0.9885      Y:     1.8755      Z:     0.0000     Total:     2.1201

*** Psi4 exiting successfully. Buy a developer a beer!
