                               Psi4 1.3.2 release

  ==> Input File <==

--------------------------------------------------------------------------
#psi4
#
memory 32 gb

molecule  {
0 1
  N        0.6331050     1.8115130    -0.0000210
  C        0.1692231    -0.2415507     0.0000005
  C       -0.4036780     0.9062970    -0.0000200
  C        1.6027310    -0.2274780     0.0000040
  C        1.8344040     1.1305020     0.0000620
  C       -0.6692560    -1.5149550    -0.0000180
  C       -1.7891560     1.1099920    -0.0000270
  C        2.6263130    -1.3178960     0.0000690
  C       -2.0437110    -1.3184960    -0.0000320
  C       -2.5979760    -0.0198630    -0.0000430
  H        0.5326130     2.8174890    -0.0000320
  H        2.7737950     1.6707360     0.0000730
  H       -0.2550790    -2.5217040    -0.0000060
  H       -2.2189390     2.1099340    -0.0000460
  H        2.5289900    -1.9586870     0.8831790
  H        2.5285290    -1.9592090    -0.8826100
  H        3.6376590    -0.9002700    -0.0003210
  H       -2.7095800    -2.1783550    -0.0000520
  H       -3.6790270     0.0987570    -0.0000620
units angstrom
no_reorient  #important for SAPT in psi4, default
symmetry c1  #important for SAPT in psi4, default
}

set PROPERTIES_ORIGIN ["COM"]
properties('MP2/aug-cc-pvtz', properties = ['dipole'])
--------------------------------------------------------------------------

    Molecular point group: c1
  Charge       = 0
  Multiplicity = 1
  Basis Set: AUG-CC-PVTZ
    Blend: AUG-CC-PVTZ
  Basis Set: (AUG-CC-PVTZ AUX)
    Blend: AUG-CC-PVTZ-JKFIT

    Orbital Energies [Eh]
    ---------------------

    Doubly Occupied:

       1A    -15.592303     2A    -11.260137     3A    -11.244939
       4A    -11.239604     5A    -11.235425     6A    -11.230581
       7A    -11.224783     8A    -11.222833     9A    -11.218190
      10A    -11.213891    11A     -1.299418    12A     -1.125579
      13A     -1.068332    14A     -1.005219    15A     -0.985472
      16A     -0.930599    17A     -0.839887    18A     -0.791625
      19A     -0.764856    20A     -0.719551    21A     -0.654420
      22A     -0.643437    23A     -0.608287    24A     -0.596914
      25A     -0.588309    26A     -0.564667    27A     -0.554136
      28A     -0.547084    29A     -0.527730    30A     -0.497881
      31A     -0.471982    32A     -0.459596    33A     -0.360659
      34A     -0.315537    35A     -0.276451

  @DF-RHF Final Energy:  -400.61154415245164

   => Energetics <=

    Nuclear Repulsion Energy =            484.6619323752290143
    One-Electron Energy =               -1502.7863179145911090
    Two-Electron Energy =                 617.5128413869103952
    Total Energy =                       -400.6115441524516427
  Basis Set: (AUG-CC-PVTZ AUX)
    Blend: AUG-CC-PVTZ-RI
    Molecular point group: c1

    Geometry (in Angstrom), charge = 0, multiplicity = 1:

       Center              X                  Y                   Z               Mass
    ------------   -----------------  -----------------  -----------------  -----------------
         N            0.657704413144     1.776402986230    -0.000019290256    14.003074004430
         C            0.193822513144    -0.276660713770     0.000002209744    12.000000000000
         C           -0.379078586856     0.871186986230    -0.000018290256    12.000000000000
         C            1.627330413144    -0.262588013770     0.000005709744    12.000000000000
         C            1.859003413144     1.095391986230     0.000063709744    12.000000000000
         C           -0.644656586856    -1.550065013770    -0.000016290256    12.000000000000
         C           -1.764556586856     1.074881986230    -0.000025290256    12.000000000000
         C            2.650912413144    -1.353006013770     0.000070709744    12.000000000000
         C           -2.019111586856    -1.353606013770    -0.000030290256    12.000000000000
         C           -2.573376586856    -0.054973013770    -0.000041290256    12.000000000000
         H            0.557212413144     2.782378986230    -0.000030290256     1.007825032230
         H            2.798394413144     1.635625986230     0.000074709744     1.007825032230
         H           -0.230479586856    -2.556814013770    -0.000004290256     1.007825032230
         H           -2.194339586856     2.074823986230    -0.000044290256     1.007825032230
         H            2.553589413144    -1.993797013770     0.883180709744     1.007825032230
         H            2.553128413144    -1.994319013770    -0.882608290256     1.007825032230
         H            3.662258413144    -0.935380013770    -0.000319290256     1.007825032230
         H           -2.684980586856    -2.213465013770    -0.000050290256     1.007825032230
         H           -3.654427586856     0.063646986230    -0.000060290256     1.007825032230

  Basis Set: AUG-CC-PVTZ
    Blend: AUG-CC-PVTZ
  Basis Set: (AUG-CC-PVTZ AUX)
    Blend: AUG-CC-PVTZ-JKFIT
	 Reference Energy          =    -400.6115441524516427 [Eh]
	 Singles Energy            =      -0.0000000000000000 [Eh]
	 Same-Spin Energy          =      -0.4503419922249897 [Eh]
	 Opposite-Spin Energy      =      -1.4042701649309468 [Eh]
	 Correlation Energy        =      -1.8546121571559366 [Eh]
	 Total Energy              =    -402.4661563096075838 [Eh]

	 ================> DF-SCS-MP2 Energies <==================
	-----------------------------------------------------------
	 SCS Same-Spin Scale       =       0.3333333333333333 [-]
	 SCS Opposite-Spin Scale   =       1.2000000000000000 [-]
	 SCS Same-Spin Energy      =      -0.1501139974083299 [Eh]
	 SCS Opposite-Spin Energy  =      -1.6851241979171361 [Eh]
	 SCS Correlation Energy    =      -1.8352381953254659 [Eh]
	 SCS Total Energy          =    -402.4467823477771162 [Eh]
	-----------------------------------------------------------

  Dipole Moment: [D]
     X:     0.8177      Y:     1.5717      Z:     0.0000     Total:     1.7717

*** Psi4 exiting successfully. Buy a developer a beer!
