                               Psi4 1.3.2 release

  ==> Input File <==

--------------------------------------------------------------------------
#psi4
#
memory 32 gb

molecule  {
0 1
  N        0.6331050     1.8115130    -0.0000210
  C        0.1785470    -0.3913160     0.0000090
  C       -0.4036780     0.9062970    -0.0000200
  C        1.6027310    -0.2274780     0.0000040
  C        1.8580687     1.1262519     0.0000641
  C       -0.6692560    -1.5149550    -0.0000180
  C       -1.7891560     1.1099920    -0.0000270
  C        2.6263130    -1.3178960     0.0000690
  C       -2.0437110    -1.3184960    -0.0000320
  C       -2.5979760    -0.0198630    -0.0000430
  H        0.5326130     2.8174890    -0.0000320
  H        2.7737950     1.6707360     0.0000730
  H       -0.2550790    -2.5217040    -0.0000060
  H       -2.2189390     2.1099340    -0.0000460
  H        2.5289900    -1.9586870     0.8831790
  H        2.5285290    -1.9592090    -0.8826100
  H        3.6376590    -0.9002700    -0.0003210
  H       -2.7095800    -2.1783550    -0.0000520
  H       -3.6790270     0.0987570    -0.0000620
units angstrom
no_reorient  #important for SAPT in psi4, default
symmetry c1  #important for SAPT in psi4, default
}

set PROPERTIES_ORIGIN ["COM"]
properties('MP2/aug-cc-pvtz', properties = ['dipole'])
--------------------------------------------------------------------------

    Molecular point group: c1
  Charge       = 0
  Multiplicity = 1
  Basis Set: AUG-CC-PVTZ
    Blend: AUG-CC-PVTZ
  Basis Set: (AUG-CC-PVTZ AUX)
    Blend: AUG-CC-PVTZ-JKFIT

    Orbital Energies [Eh]
    ---------------------

    Doubly Occupied:

       1A    -15.598176     2A    -11.266107     3A    -11.264194
       4A    -11.231677     5A    -11.231641     6A    -11.230179
       7A    -11.224625     8A    -11.222148     9A    -11.221578
      10A    -11.220987    11A     -1.284948    12A     -1.126359
      13A     -1.072456    14A     -0.996965    15A     -0.985995
      16A     -0.930496    17A     -0.839475    18A     -0.804539
      19A     -0.755227    20A     -0.717334    21A     -0.659134
      22A     -0.647119    23A     -0.602652    24A     -0.592373
      25A     -0.589833    26A     -0.573332    27A     -0.550314
      28A     -0.540159    29A     -0.530812    30A     -0.498383
      31A     -0.476439    32A     -0.461826    33A     -0.375103
      34A     -0.297522    35A     -0.279552

  @DF-RHF Final Energy:  -400.63927582053668

   => Energetics <=

    Nuclear Repulsion Energy =            482.8448601565173703
    One-Electron Energy =               -1499.1689530610324255
    Two-Electron Energy =                 615.6848170839783734
    Total Energy =                       -400.6392758205366817
  Basis Set: (AUG-CC-PVTZ AUX)
    Blend: AUG-CC-PVTZ-RI
    Molecular point group: c1

    Geometry (in Angstrom), charge = 0, multiplicity = 1:

       Center              X                  Y                   Z               Mass
    ------------   -----------------  -----------------  -----------------  -----------------
         N            0.654684251158     1.790503355946    -0.000020260704    14.003074004430
         C            0.200126251158    -0.412325644054     0.000009739296    12.000000000000
         C           -0.382098748842     0.885287355946    -0.000019260704    12.000000000000
         C            1.624310251158    -0.248487644054     0.000004739296    12.000000000000
         C            1.879647951158     1.105242255946     0.000064839296    12.000000000000
         C           -0.647676748842    -1.535964644054    -0.000017260704    12.000000000000
         C           -1.767576748842     1.088982355946    -0.000026260704    12.000000000000
         C            2.647892251158    -1.338905644054     0.000069739296    12.000000000000
         C           -2.022131748842    -1.339505644054    -0.000031260704    12.000000000000
         C           -2.576396748842    -0.040872644054    -0.000042260704    12.000000000000
         H            0.554192251158     2.796479355946    -0.000031260704     1.007825032230
         H            2.795374251158     1.649726355946     0.000073739296     1.007825032230
         H           -0.233499748842    -2.542713644054    -0.000005260704     1.007825032230
         H           -2.197359748842     2.088924355946    -0.000045260704     1.007825032230
         H            2.550569251158    -1.979696644054     0.883179739296     1.007825032230
         H            2.550108251158    -1.980218644054    -0.882609260704     1.007825032230
         H            3.659238251158    -0.921279644054    -0.000320260704     1.007825032230
         H           -2.688000748842    -2.199364644054    -0.000051260704     1.007825032230
         H           -3.657447748842     0.077747355946    -0.000061260704     1.007825032230

  Basis Set: AUG-CC-PVTZ
    Blend: AUG-CC-PVTZ
  Basis Set: (AUG-CC-PVTZ AUX)
    Blend: AUG-CC-PVTZ-JKFIT
	 Reference Energy          =    -400.6392758205366817 [Eh]
	 Singles Energy            =      -0.0000000000000000 [Eh]
	 Same-Spin Energy          =      -0.4515554626451884 [Eh]
	 Opposite-Spin Energy      =      -1.4043406334139665 [Eh]
	 Correlation Energy        =      -1.8558960960591548 [Eh]
	 Total Energy              =    -402.4951719165958366 [Eh]

	 ================> DF-SCS-MP2 Energies <==================
	-----------------------------------------------------------
	 SCS Same-Spin Scale       =       0.3333333333333333 [-]
	 SCS Opposite-Spin Scale   =       1.2000000000000000 [-]
	 SCS Same-Spin Energy      =      -0.1505184875483961 [Eh]
	 SCS Opposite-Spin Energy  =      -1.6852087600967598 [Eh]
	 SCS Correlation Energy    =      -1.8357272476451558 [Eh]
	 SCS Total Energy          =    -402.4750030681818203 [Eh]
	-----------------------------------------------------------

  Dipole Moment: [D]
     X:     0.9650      Y:     1.7602      Z:     0.0000     Total:     2.0074

*** Psi4 exiting successfully. Buy a developer a beer!
