                               Psi4 1.4a3.dev225

  ==> Input File <==

--------------------------------------------------------------------------
#psi4
#
memory 32 gb

molecule  {
0 1
  N        0.6328470     1.8116750    -0.0000110
  C        0.1785880    -0.3910020     0.0000110
  C       -0.4037990     0.9065110    -0.0000170
  C        1.6028840    -0.2271790     0.0000140
  C        1.8343140     1.1308640     0.0000150
  C       -0.6688480    -1.5149650    -0.0000030
  C       -1.7894490     1.1098660    -0.0000340
  C        2.6602067    -1.3546375     0.0000739
  C       -2.0432580    -1.3188880    -0.0000200
  C       -2.5978380    -0.0201330    -0.0000420
  H        0.5326210     2.8176630    -0.0000280
  H        2.7737410     1.6710700     0.0000120
  H       -0.2538270    -2.5213870     0.0000180
  H       -2.2194200     2.1097690    -0.0000540
  H        2.5281550    -1.9589590     0.8831170
  H        2.5278660    -1.9593030    -0.8826910
  H        3.6376920    -0.9014020    -0.0001770
  H       -2.7093880    -2.1785190    -0.0000290
  H       -3.6789550     0.0979000    -0.0000560
units angstrom
no_reorient  #important for SAPT in psi4, default
symmetry c1  #important for SAPT in psi4, default
}

set PROPERTIES_ORIGIN ["COM"]
properties('MP2/aug-cc-pvtz', properties = ['dipole'])
--------------------------------------------------------------------------

    Molecular point group: c1
  Charge       = 0
  Multiplicity = 1
  Basis Set: AUG-CC-PVTZ
    Blend: AUG-CC-PVTZ
  Basis Set: (AUG-CC-PVTZ AUX)
    Blend: AUG-CC-PVTZ-JKFIT

    Orbital Energies [Eh]
    ---------------------

    Doubly Occupied:

       1A    -15.599569     2A    -11.264946     3A    -11.264040
       4A    -11.231616     5A    -11.230409     6A    -11.229169
       7A    -11.224348     8A    -11.221852     9A    -11.220817
      10A    -11.220643    11A     -1.291173    12A     -1.126621
      13A     -1.067793    14A     -0.996435    15A     -0.984457
      16A     -0.932449    17A     -0.838702    18A     -0.803295
      19A     -0.755229    20A     -0.719276    21A     -0.659166
      22A     -0.643869    23A     -0.603098    24A     -0.592748
      25A     -0.592096    26A     -0.570689    27A     -0.557858
      28A     -0.534951    29A     -0.529789    30A     -0.499559
      31A     -0.473775    32A     -0.462784    33A     -0.375564
      34A     -0.298410    35A     -0.277695

  @DF-RHF Final Energy:  -400.63858129628818

   => Energetics <=

    Nuclear Repulsion Energy =            482.4051502420119846
    One-Electron Energy =               -1498.2976818881745658
    Two-Electron Energy =                 615.2539503498743443
    Total Energy =                       -400.6385812962881801
  Basis Set: (AUG-CC-PVTZ AUX)
    Blend: AUG-CC-PVTZ-RI
    Molecular point group: c1

    Geometry (in Angstrom), charge = 0, multiplicity = 1:

       Center              X                  Y                   Z               Mass
    ------------   -----------------  -----------------  -----------------  -----------------
         N            0.653457912914     1.793601188519    -0.000010493739    14.003074004430
         C            0.199198912914    -0.409075811481     0.000011506261    12.000000000000
         C           -0.383188087086     0.888437188519    -0.000016493739    12.000000000000
         C            1.623494912914    -0.245252811481     0.000014506261    12.000000000000
         C            1.854924912914     1.112790188519     0.000015506261    12.000000000000
         C           -0.648237087086    -1.533038811481    -0.000002493739    12.000000000000
         C           -1.768838087086     1.091792188519    -0.000033493739    12.000000000000
         C            2.680817612914    -1.372711311481     0.000074406261    12.000000000000
         C           -2.022647087086    -1.336961811481    -0.000019493739    12.000000000000
         C           -2.577227087086    -0.038206811481    -0.000041493739    12.000000000000
         H            0.553231912914     2.799589188519    -0.000027493739     1.007825032230
         H            2.794351912914     1.652996188519     0.000012506261     1.007825032230
         H           -0.233216087086    -2.539460811481     0.000018506261     1.007825032230
         H           -2.198809087086     2.091695188519    -0.000053493739     1.007825032230
         H            2.548765912914    -1.977032811481     0.883117506261     1.007825032230
         H            2.548476912914    -1.977376811481    -0.882690493739     1.007825032230
         H            3.658302912914    -0.919475811481    -0.000176493739     1.007825032230
         H           -2.688777087086    -2.196592811481    -0.000028493739     1.007825032230
         H           -3.658344087086     0.079826188519    -0.000055493739     1.007825032230

  Basis Set: AUG-CC-PVTZ
    Blend: AUG-CC-PVTZ
  Basis Set: (AUG-CC-PVTZ AUX)
    Blend: AUG-CC-PVTZ-JKFIT
	 Reference Energy          =    -400.6385812962881801 [Eh]
	 Singles Energy            =      -0.0000000000000000 [Eh]
	 Same-Spin Energy          =      -0.4513683605879126 [Eh]
	 Opposite-Spin Energy      =      -1.4039451883609102 [Eh]
	 Correlation Energy        =      -1.8553135489488228 [Eh]
	 Total Energy              =    -402.4938948452369800 [Eh]

	 ================> DF-SCS-MP2 Energies <==================
	-----------------------------------------------------------
	 SCS Same-Spin Scale       =       0.3333333333333333 [-]
	 SCS Opposite-Spin Scale   =       1.2000000000000000 [-]
	 SCS Same-Spin Energy      =      -0.1504561201959709 [Eh]
	 SCS Opposite-Spin Energy  =      -1.6847342260330922 [Eh]
	 SCS Correlation Energy    =      -1.8351903462290631 [Eh]
	 SCS Total Energy          =    -402.4737716425172493 [Eh]
	-----------------------------------------------------------

  Dipole Moment: [D]
     X:     0.9789      Y:     1.7886      Z:     0.0000     Total:     2.0390

*** Psi4 exiting successfully. Buy a developer a beer!
