                               Psi4 1.3.2 release

  ==> Input File <==

--------------------------------------------------------------------------
#psi4
#
memory 32 gb

molecule  {
0 1
  N        0.6331050     1.8115130    -0.0000210
  C        0.1736967    -0.3415129     0.0000062
  C       -0.4036780     0.9062970    -0.0000200
  C        1.6027310    -0.2274780     0.0000040
  C        1.8344040     1.1305020     0.0000620
  C       -0.6692560    -1.5149550    -0.0000180
  C       -1.7891560     1.1099920    -0.0000270
  C        2.6263130    -1.3178960     0.0000690
  C       -2.0437110    -1.3184960    -0.0000320
  C       -2.5979760    -0.0198630    -0.0000430
  H        0.5326130     2.8174890    -0.0000320
  H        2.7737950     1.6707360     0.0000730
  H       -0.2550790    -2.5217040    -0.0000060
  H       -2.2189390     2.1099340    -0.0000460
  H        2.5289900    -1.9586870     0.8831790
  H        2.5285290    -1.9592090    -0.8826100
  H        3.6376590    -0.9002700    -0.0003210
  H       -2.7095800    -2.1783550    -0.0000520
  H       -3.6790270     0.0987570    -0.0000620
units angstrom
no_reorient  #important for SAPT in psi4, default
symmetry c1  #important for SAPT in psi4, default
}

set PROPERTIES_ORIGIN ["COM"]
properties('MP2/aug-cc-pvtz', properties = ['dipole'])
--------------------------------------------------------------------------

    Molecular point group: c1
  Charge       = 0
  Multiplicity = 1
  Basis Set: AUG-CC-PVTZ
    Blend: AUG-CC-PVTZ
  Basis Set: (AUG-CC-PVTZ AUX)
    Blend: AUG-CC-PVTZ-JKFIT

    Orbital Energies [Eh]
    ---------------------

    Doubly Occupied:

       1A    -15.597555     2A    -11.262845     3A    -11.258987
       4A    -11.233956     5A    -11.233128     6A    -11.229658
       7A    -11.222632     8A    -11.221718     9A    -11.220797
      10A    -11.219328    11A     -1.293593    12A     -1.126342
      13A     -1.070847    14A     -0.997452    15A     -0.987314
      16A     -0.930864    17A     -0.838805    18A     -0.800109
      19A     -0.758895    20A     -0.719839    21A     -0.657507
      22A     -0.643967    23A     -0.604965    24A     -0.593165
      25A     -0.592188    26A     -0.567576    27A     -0.552141
      28A     -0.543971    29A     -0.529137    30A     -0.491859
      31A     -0.483331    32A     -0.461788    33A     -0.369774
      34A     -0.303821    35A     -0.276996

  @DF-RHF Final Energy:  -400.63790709300901

   => Energetics <=

    Nuclear Repulsion Energy =            483.6958893463176423
    One-Electron Energy =               -1500.8738937345444810
    Two-Electron Energy =                 616.5400972952178336
    Total Energy =                       -400.6379070930089483
  Basis Set: (AUG-CC-PVTZ AUX)
    Blend: AUG-CC-PVTZ-RI
    Molecular point group: c1

    Geometry (in Angstrom), charge = 0, multiplicity = 1:

       Center              X                  Y                   Z               Mass
    ------------   -----------------  -----------------  -----------------  -----------------
         N            0.657294847517     1.785554694290    -0.000019812101    14.003074004430
         C            0.197886547517    -0.367471205710     0.000007387899    12.000000000000
         C           -0.379488152483     0.880338694290    -0.000018812101    12.000000000000
         C            1.626920847517    -0.253436305710     0.000005187899    12.000000000000
         C            1.858593847517     1.104543694290     0.000063187899    12.000000000000
         C           -0.645066152483    -1.540913305710    -0.000016812101    12.000000000000
         C           -1.764966152483     1.084033694290    -0.000025812101    12.000000000000
         C            2.650502847517    -1.343854305710     0.000070187899    12.000000000000
         C           -2.019521152483    -1.344454305710    -0.000030812101    12.000000000000
         C           -2.573786152483    -0.045821305710    -0.000041812101    12.000000000000
         H            0.556802847517     2.791530694290    -0.000030812101     1.007825032230
         H            2.797984847517     1.644777694290     0.000074187899     1.007825032230
         H           -0.230889152483    -2.547662305710    -0.000004812101     1.007825032230
         H           -2.194749152483     2.083975694290    -0.000044812101     1.007825032230
         H            2.553179847517    -1.984645305710     0.883180187899     1.007825032230
         H            2.552718847517    -1.985167305710    -0.882608812101     1.007825032230
         H            3.661848847517    -0.926228305710    -0.000319812101     1.007825032230
         H           -2.685390152483    -2.204313305710    -0.000050812101     1.007825032230
         H           -3.654837152483     0.072798694290    -0.000060812101     1.007825032230

  Basis Set: AUG-CC-PVTZ
    Blend: AUG-CC-PVTZ
  Basis Set: (AUG-CC-PVTZ AUX)
    Blend: AUG-CC-PVTZ-JKFIT
	 Reference Energy          =    -400.6379070930090052 [Eh]
	 Singles Energy            =      -0.0000000000000000 [Eh]
	 Same-Spin Energy          =      -0.4512263523297706 [Eh]
	 Opposite-Spin Energy      =      -1.4039311745598546 [Eh]
	 Correlation Energy        =      -1.8551575268896252 [Eh]
	 Total Energy              =    -402.4930646198986324 [Eh]

	 ================> DF-SCS-MP2 Energies <==================
	-----------------------------------------------------------
	 SCS Same-Spin Scale       =       0.3333333333333333 [-]
	 SCS Opposite-Spin Scale   =       1.2000000000000000 [-]
	 SCS Same-Spin Energy      =      -0.1504087841099235 [Eh]
	 SCS Opposite-Spin Energy  =      -1.6847174094718256 [Eh]
	 SCS Correlation Energy    =      -1.8351261935817491 [Eh]
	 SCS Total Energy          =    -402.4730332865907485 [Eh]
	-----------------------------------------------------------

  Dipole Moment: [D]
     X:     0.9179      Y:     1.7298      Z:     0.0000     Total:     1.9582

*** Psi4 exiting successfully. Buy a developer a beer!
