                               Psi4 1.4a3.dev225

  ==> Input File <==

--------------------------------------------------------------------------
#psi4
#
memory 32 gb

molecule  {
0 1
  N        0.6328470     1.8116750    -0.0000110
  C        0.1785880    -0.3910020     0.0000110
  C       -0.4037990     0.9065110    -0.0000170
  C        1.6028840    -0.2271790     0.0000140
  C        1.8343140     1.1308640     0.0000150
  C       -0.6688480    -1.5149650    -0.0000030
  C       -1.7894490     1.1098660    -0.0000340
  C        2.6396851    -1.3327546     0.0000728
  C       -2.0432580    -1.3188880    -0.0000200
  C       -2.5978380    -0.0201330    -0.0000420
  H        0.5326210     2.8176630    -0.0000280
  H        2.7737410     1.6710700     0.0000120
  H       -0.2538270    -2.5213870     0.0000180
  H       -2.2194200     2.1097690    -0.0000540
  H        2.5281550    -1.9589590     0.8831170
  H        2.5278660    -1.9593030    -0.8826910
  H        3.6376920    -0.9014020    -0.0001770
  H       -2.7093880    -2.1785190    -0.0000290
  H       -3.6789550     0.0979000    -0.0000560
units angstrom
no_reorient  #important for SAPT in psi4, default
symmetry c1  #important for SAPT in psi4, default
}

set PROPERTIES_ORIGIN ["COM"]
properties('MP2/aug-cc-pvtz', properties = ['dipole'])
--------------------------------------------------------------------------

    Molecular point group: c1
  Charge       = 0
  Multiplicity = 1
  Basis Set: AUG-CC-PVTZ
    Blend: AUG-CC-PVTZ
  Basis Set: (AUG-CC-PVTZ AUX)
    Blend: AUG-CC-PVTZ-JKFIT

    Orbital Energies [Eh]
    ---------------------

    Doubly Occupied:

       1A    -15.599785     2A    -11.265140     3A    -11.264331
       4A    -11.231757     5A    -11.230548     6A    -11.229336
       7A    -11.223325     8A    -11.221839     9A    -11.221062
      10A    -11.220959    11A     -1.291470    12A     -1.126837
      13A     -1.070287    14A     -0.996941    15A     -0.985196
      16A     -0.931521    17A     -0.838870    18A     -0.803669
      19A     -0.755584    20A     -0.719733    21A     -0.659625
      22A     -0.644298    23A     -0.603271    24A     -0.592439
      25A     -0.592168    26A     -0.569894    27A     -0.554029
      28A     -0.537868    29A     -0.531319    30A     -0.498504
      31A     -0.475194    32A     -0.462944    33A     -0.374987
      34A     -0.298545    35A     -0.277725

  @DF-RHF Final Energy:  -400.64009028542966

   => Energetics <=

    Nuclear Repulsion Energy =            482.9134615933818395
    One-Electron Energy =               -1499.3051056710071407
    Two-Electron Energy =                 615.7515537921956366
    Total Energy =                       -400.6400902854296646
  Basis Set: (AUG-CC-PVTZ AUX)
    Blend: AUG-CC-PVTZ-RI
    Molecular point group: c1

    Geometry (in Angstrom), charge = 0, multiplicity = 1:

       Center              X                  Y                   Z               Mass
    ------------   -----------------  -----------------  -----------------  -----------------
         N            0.655336700016     1.791597772105    -0.000010393032    14.003074004430
         C            0.201077700016    -0.411079227895     0.000011606968    12.000000000000
         C           -0.381309299984     0.886433772105    -0.000016393032    12.000000000000
         C            1.625373700016    -0.247256227895     0.000014606968    12.000000000000
         C            1.856803700016     1.110786772105     0.000015606968    12.000000000000
         C           -0.646358299984    -1.535042227895    -0.000002393032    12.000000000000
         C           -1.766959299984     1.089788772105    -0.000033393032    12.000000000000
         C            2.662174800016    -1.352831827895     0.000073406968    12.000000000000
         C           -2.020768299984    -1.338965227895    -0.000019393032    12.000000000000
         C           -2.575348299984    -0.040210227895    -0.000041393032    12.000000000000
         H            0.555110700016     2.797585772105    -0.000027393032     1.007825032230
         H            2.796230700016     1.650992772105     0.000012606968     1.007825032230
         H           -0.231337299984    -2.541464227895     0.000018606968     1.007825032230
         H           -2.196930299984     2.089691772105    -0.000053393032     1.007825032230
         H            2.550644700016    -1.979036227895     0.883117606968     1.007825032230
         H            2.550355700016    -1.979380227895    -0.882690393032     1.007825032230
         H            3.660181700016    -0.921479227895    -0.000176393032     1.007825032230
         H           -2.686898299984    -2.198596227895    -0.000028393032     1.007825032230
         H           -3.656465299984     0.077822772105    -0.000055393032     1.007825032230

  Basis Set: AUG-CC-PVTZ
    Blend: AUG-CC-PVTZ
  Basis Set: (AUG-CC-PVTZ AUX)
    Blend: AUG-CC-PVTZ-JKFIT
	 Reference Energy          =    -400.6400902854296646 [Eh]
	 Singles Energy            =      -0.0000000000000000 [Eh]
	 Same-Spin Energy          =      -0.4515369586051284 [Eh]
	 Opposite-Spin Energy      =      -1.4040149003691409 [Eh]
	 Correlation Energy        =      -1.8555518589742692 [Eh]
	 Total Energy              =    -402.4956421444039165 [Eh]

	 ================> DF-SCS-MP2 Energies <==================
	-----------------------------------------------------------
	 SCS Same-Spin Scale       =       0.3333333333333333 [-]
	 SCS Opposite-Spin Scale   =       1.2000000000000000 [-]
	 SCS Same-Spin Energy      =      -0.1505123195350428 [Eh]
	 SCS Opposite-Spin Energy  =      -1.6848178804429690 [Eh]
	 SCS Correlation Energy    =      -1.8353301999780118 [Eh]
	 SCS Total Energy          =    -402.4754204854076534 [Eh]
	-----------------------------------------------------------

  Dipole Moment: [D]
     X:     0.9670      Y:     1.7977      Z:     0.0000     Total:     2.0413

*** Psi4 exiting successfully. Buy a developer a beer!
