                               Psi4 1.3.2 release

  ==> Input File <==

--------------------------------------------------------------------------
#psi4
#
memory 32 gb

molecule  {
0 1
  N        0.6331050     1.8115130    -0.0000210
  C        0.1785470    -0.3913160     0.0000090
  C       -0.4036780     0.9062970    -0.0000200
  C        1.6432403    -0.1944538    -0.0903593
  C        1.8344040     1.1305020     0.0000620
  C       -0.6692560    -1.5149550    -0.0000180
  C       -1.7891560     1.1099920    -0.0000270
  C        2.6263130    -1.3178960     0.0000690
  C       -2.0437110    -1.3184960    -0.0000320
  C       -2.5979760    -0.0198630    -0.0000430
  H        0.5326130     2.8174890    -0.0000320
  H        2.7737950     1.6707360     0.0000730
  H       -0.2550790    -2.5217040    -0.0000060
  H       -2.2189390     2.1099340    -0.0000460
  H        2.5289900    -1.9586870     0.8831790
  H        2.5285290    -1.9592090    -0.8826100
  H        3.6376590    -0.9002700    -0.0003210
  H       -2.7095800    -2.1783550    -0.0000520
  H       -3.6790270     0.0987570    -0.0000620
units angstrom
no_reorient  #important for SAPT in psi4, default
symmetry c1  #important for SAPT in psi4, default
}

set PROPERTIES_ORIGIN ["COM"]
properties('MP2/aug-cc-pvtz', properties = ['dipole'])
--------------------------------------------------------------------------

    Molecular point group: c1
  Charge       = 0
  Multiplicity = 1
  Basis Set: AUG-CC-PVTZ
    Blend: AUG-CC-PVTZ
  Basis Set: (AUG-CC-PVTZ AUX)
    Blend: AUG-CC-PVTZ-JKFIT

    Orbital Energies [Eh]
    ---------------------

    Doubly Occupied:

       1A    -15.596863     2A    -11.265776     3A    -11.261580
       4A    -11.231579     5A    -11.231333     6A    -11.229930
       7A    -11.224703     8A    -11.222312     9A    -11.221623
      10A    -11.220794    11A     -1.291038    12A     -1.126109
      13A     -1.071402    14A     -0.997469    15A     -0.985877
      16A     -0.933808    17A     -0.838396    18A     -0.801700
      19A     -0.754022    20A     -0.720098    21A     -0.660094
      22A     -0.644306    23A     -0.602523    24A     -0.591930
      25A     -0.591604    26A     -0.570931    27A     -0.555626
      28A     -0.542022    29A     -0.528063    30A     -0.497872
      31A     -0.468652    32A     -0.462897    33A     -0.372909
      34A     -0.297031    35A     -0.285367

  @DF-RHF Final Energy:  -400.63700677831332

   => Energetics <=

    Nuclear Repulsion Energy =            482.8922710878401290
    One-Electron Energy =               -1499.2620813184482813
    Two-Electron Energy =                 615.7328034522948883
    Total Energy =                       -400.6370067783133209
  Basis Set: (AUG-CC-PVTZ AUX)
    Blend: AUG-CC-PVTZ-RI
    Molecular point group: c1

    Geometry (in Angstrom), charge = 0, multiplicity = 1:

       Center              X                  Y                   Z               Mass
    ------------   -----------------  -----------------  -----------------  -----------------
         N            0.653142099609     1.787090830894     0.008252844125    14.003074004430
         C            0.198584099609    -0.415738169106     0.008282844125    12.000000000000
         C           -0.383640900391     0.881874830894     0.008253844125    12.000000000000
         C            1.663277399609    -0.218875969106    -0.082085455875    12.000000000000
         C            1.854441099609     1.106079830894     0.008335844125    12.000000000000
         C           -0.649218900391    -1.539377169106     0.008255844125    12.000000000000
         C           -1.769118900391     1.085569830894     0.008246844125    12.000000000000
         C            2.646350099609    -1.342318169106     0.008342844125    12.000000000000
         C           -2.023673900391    -1.342918169106     0.008241844125    12.000000000000
         C           -2.577938900391    -0.044285169106     0.008230844125    12.000000000000
         H            0.552650099609     2.793066830894     0.008241844125     1.007825032230
         H            2.793832099609     1.646313830894     0.008346844125     1.007825032230
         H           -0.235041900391    -2.546126169106     0.008267844125     1.007825032230
         H           -2.198901900391     2.085511830894     0.008227844125     1.007825032230
         H            2.549027099609    -1.983109169106     0.891452844125     1.007825032230
         H            2.548566099609    -1.983631169106    -0.874336155875     1.007825032230
         H            3.657696099609    -0.924692169106     0.007952844125     1.007825032230
         H           -2.689542900391    -2.202777169106     0.008221844125     1.007825032230
         H           -3.658989900391     0.074334830894     0.008211844125     1.007825032230

  Basis Set: AUG-CC-PVTZ
    Blend: AUG-CC-PVTZ
  Basis Set: (AUG-CC-PVTZ AUX)
    Blend: AUG-CC-PVTZ-JKFIT
	 Reference Energy          =    -400.6370067783133209 [Eh]
	 Singles Energy            =      -0.0000000000000000 [Eh]
	 Same-Spin Energy          =      -0.4507336202283078 [Eh]
	 Opposite-Spin Energy      =      -1.4028873300510591 [Eh]
	 Correlation Energy        =      -1.8536209502793670 [Eh]
	 Total Energy              =    -402.4906277285926990 [Eh]

	 ================> DF-SCS-MP2 Energies <==================
	-----------------------------------------------------------
	 SCS Same-Spin Scale       =       0.3333333333333333 [-]
	 SCS Opposite-Spin Scale   =       1.2000000000000000 [-]
	 SCS Same-Spin Energy      =      -0.1502445400761026 [Eh]
	 SCS Opposite-Spin Energy  =      -1.6834647960612710 [Eh]
	 SCS Correlation Energy    =      -1.8337093361373735 [Eh]
	 SCS Total Energy          =    -402.4707161144506813 [Eh]
	-----------------------------------------------------------

  Dipole Moment: [D]
     X:     0.9293      Y:     1.7558      Z:     0.0707     Total:     1.9878

*** Psi4 exiting successfully. Buy a developer a beer!
