                               Psi4 1.3.2 release

  ==> Input File <==

--------------------------------------------------------------------------
#psi4
#
memory 32 gb

molecule  {
0 1
  N        0.6331050     1.8115130    -0.0000210
  C        0.1785470    -0.3913160     0.0000090
  C       -0.4036780     0.9062970    -0.0000200
  C        1.6027310    -0.2274780     0.0000040
  C        1.8816557     1.1215895     0.0000661
  C       -0.6692560    -1.5149550    -0.0000180
  C       -1.7891560     1.1099920    -0.0000270
  C        2.6263130    -1.3178960     0.0000690
  C       -2.0437110    -1.3184960    -0.0000320
  C       -2.5979760    -0.0198630    -0.0000430
  H        0.5326130     2.8174890    -0.0000320
  H        2.7737950     1.6707360     0.0000730
  H       -0.2550790    -2.5217040    -0.0000060
  H       -2.2189390     2.1099340    -0.0000460
  H        2.5289900    -1.9586870     0.8831790
  H        2.5285290    -1.9592090    -0.8826100
  H        3.6376590    -0.9002700    -0.0003210
  H       -2.7095800    -2.1783550    -0.0000520
  H       -3.6790270     0.0987570    -0.0000620
units angstrom
no_reorient  #important for SAPT in psi4, default
symmetry c1  #important for SAPT in psi4, default
}

set PROPERTIES_ORIGIN ["COM"]
properties('MP2/aug-cc-pvtz', properties = ['dipole'])
--------------------------------------------------------------------------

    Molecular point group: c1
  Charge       = 0
  Multiplicity = 1
  Basis Set: AUG-CC-PVTZ
    Blend: AUG-CC-PVTZ
  Basis Set: (AUG-CC-PVTZ AUX)
    Blend: AUG-CC-PVTZ-JKFIT

    Orbital Energies [Eh]
    ---------------------

    Doubly Occupied:

       1A    -15.596373     2A    -11.266937     3A    -11.263964
       4A    -11.232637     5A    -11.231870     6A    -11.230558
       7A    -11.226871     8A    -11.222373     9A    -11.221705
      10A    -11.220932    11A     -1.278673    12A     -1.125719
      13A     -1.072832    14A     -0.996791    15A     -0.986138
      16A     -0.930133    17A     -0.840189    18A     -0.805043
      19A     -0.755233    20A     -0.714604    21A     -0.658515
      22A     -0.649423    23A     -0.601910    24A     -0.591943
      25A     -0.588074    26A     -0.576639    27A     -0.549213
      28A     -0.537888    29A     -0.531722    30A     -0.498951
      31A     -0.477038    32A     -0.460571    33A     -0.375689
      34A     -0.296394    35A     -0.281414

  @DF-RHF Final Energy:  -400.63693066247748

   => Energetics <=

    Nuclear Repulsion Energy =            482.4418318516744080
    One-Electron Energy =               -1498.3676103901102579
    Two-Electron Energy =                 615.2888478759584814
    Total Energy =                       -400.6369306624774254
  Basis Set: (AUG-CC-PVTZ AUX)
    Blend: AUG-CC-PVTZ-RI
    Molecular point group: c1

    Geometry (in Angstrom), charge = 0, multiplicity = 1:

       Center              X                  Y                   Z               Mass
    ------------   -----------------  -----------------  -----------------  -----------------
         N            0.652524821513     1.790930206532    -0.000020443808    14.003074004430
         C            0.197966821513    -0.411898793468     0.000009556192    12.000000000000
         C           -0.384258178487     0.885714206532    -0.000019443808    12.000000000000
         C            1.622150821513    -0.248060793468     0.000004556192    12.000000000000
         C            1.901075521513     1.101006706532     0.000066656192    12.000000000000
         C           -0.649836178487    -1.535537793468    -0.000017443808    12.000000000000
         C           -1.769736178487     1.089409206532    -0.000026443808    12.000000000000
         C            2.645732821513    -1.338478793468     0.000069556192    12.000000000000
         C           -2.024291178487    -1.339078793468    -0.000031443808    12.000000000000
         C           -2.578556178487    -0.040445793468    -0.000042443808    12.000000000000
         H            0.552032821513     2.796906206532    -0.000031443808     1.007825032230
         H            2.793214821513     1.650153206532     0.000073556192     1.007825032230
         H           -0.235659178487    -2.542286793468    -0.000005443808     1.007825032230
         H           -2.199519178487     2.089351206532    -0.000045443808     1.007825032230
         H            2.548409821513    -1.979269793468     0.883179556192     1.007825032230
         H            2.547948821513    -1.979791793468    -0.882609443808     1.007825032230
         H            3.657078821513    -0.920852793468    -0.000320443808     1.007825032230
         H           -2.690160178487    -2.198937793468    -0.000051443808     1.007825032230
         H           -3.659607178487     0.078174206532    -0.000061443808     1.007825032230

  Basis Set: AUG-CC-PVTZ
    Blend: AUG-CC-PVTZ
  Basis Set: (AUG-CC-PVTZ AUX)
    Blend: AUG-CC-PVTZ-JKFIT
	 Reference Energy          =    -400.6369306624774822 [Eh]
	 Singles Energy            =      -0.0000000000000000 [Eh]
	 Same-Spin Energy          =      -0.4514375050736568 [Eh]
	 Opposite-Spin Energy      =      -1.4046059971853768 [Eh]
	 Correlation Energy        =      -1.8560435022590336 [Eh]
	 Total Energy              =    -402.4929741647364949 [Eh]

	 ================> DF-SCS-MP2 Energies <==================
	-----------------------------------------------------------
	 SCS Same-Spin Scale       =       0.3333333333333333 [-]
	 SCS Opposite-Spin Scale   =       1.2000000000000000 [-]
	 SCS Same-Spin Energy      =      -0.1504791683578856 [Eh]
	 SCS Opposite-Spin Energy  =      -1.6855271966224521 [Eh]
	 SCS Correlation Energy    =      -1.8360063649803378 [Eh]
	 SCS Total Energy          =    -402.4729370274578173 [Eh]
	-----------------------------------------------------------

  Dipole Moment: [D]
     X:     0.9723      Y:     1.7149      Z:     0.0000     Total:     1.9714

*** Psi4 exiting successfully. Buy a developer a beer!
