                               Psi4 1.3.2 release

  ==> Input File <==

--------------------------------------------------------------------------
#psi4
#
memory 32 gb

molecule  {
0 1
  N        0.6331050     1.8115130    -0.0000210
  C        0.1785470    -0.3913160     0.0000090
  C       -0.4036780     0.9062970    -0.0000200
  C        1.5843350    -0.2459933     0.0452133
  C        1.8344040     1.1305020     0.0000620
  C       -0.6692560    -1.5149550    -0.0000180
  C       -1.7891560     1.1099920    -0.0000270
  C        2.6263130    -1.3178960     0.0000690
  C       -2.0437110    -1.3184960    -0.0000320
  C       -2.5979760    -0.0198630    -0.0000430
  H        0.5326130     2.8174890    -0.0000320
  H        2.7737950     1.6707360     0.0000730
  H       -0.2550790    -2.5217040    -0.0000060
  H       -2.2189390     2.1099340    -0.0000460
  H        2.5289900    -1.9586870     0.8831790
  H        2.5285290    -1.9592090    -0.8826100
  H        3.6376590    -0.9002700    -0.0003210
  H       -2.7095800    -2.1783550    -0.0000520
  H       -3.6790270     0.0987570    -0.0000620
units angstrom
no_reorient  #important for SAPT in psi4, default
symmetry c1  #important for SAPT in psi4, default
}

set PROPERTIES_ORIGIN ["COM"]
properties('MP2/aug-cc-pvtz', properties = ['dipole'])
--------------------------------------------------------------------------

    Molecular point group: c1
  Charge       = 0
  Multiplicity = 1
  Basis Set: AUG-CC-PVTZ
    Blend: AUG-CC-PVTZ
  Basis Set: (AUG-CC-PVTZ AUX)
    Blend: AUG-CC-PVTZ-JKFIT

    Orbital Energies [Eh]
    ---------------------

    Doubly Occupied:

       1A    -15.602070     2A    -11.267008     3A    -11.265053
       4A    -11.232224     5A    -11.229965     6A    -11.229040
       7A    -11.223183     8A    -11.221322     9A    -11.221186
      10A    -11.220863    11A     -1.292038    12A     -1.127554
      13A     -1.072475    14A     -0.997325    15A     -0.985497
      16A     -0.929277    17A     -0.839275    18A     -0.805173
      19A     -0.756524    20A     -0.720242    21A     -0.659557
      22A     -0.644556    23A     -0.604138    24A     -0.593109
      25A     -0.591921    26A     -0.569379    27A     -0.552499
      28A     -0.540614    29A     -0.528905    30A     -0.496449
      31A     -0.478386    32A     -0.462788    33A     -0.375308
      34A     -0.299595    35A     -0.273649

  @DF-RHF Final Energy:  -400.63735429947479

   => Energetics <=

    Nuclear Repulsion Energy =            483.3369539524117613
    One-Electron Energy =               -1500.1323149460663444
    Two-Electron Energy =                 616.1580066941797895
    Total Energy =                       -400.6373542994748504
  Basis Set: (AUG-CC-PVTZ AUX)
    Blend: AUG-CC-PVTZ-RI
    Molecular point group: c1

    Geometry (in Angstrom), charge = 0, multiplicity = 1:

       Center              X                  Y                   Z               Mass
    ------------   -----------------  -----------------  -----------------  -----------------
         N            0.658534979205     1.791809359073    -0.004159056135    14.003074004430
         C            0.203976979205    -0.411019640927    -0.004129056135    12.000000000000
         C           -0.378248020795     0.886593359073    -0.004158056135    12.000000000000
         C            1.609764979205    -0.265696940927     0.041075243865    12.000000000000
         C            1.859833979205     1.110798359073    -0.004076056135    12.000000000000
         C           -0.643826020795    -1.534658640927    -0.004156056135    12.000000000000
         C           -1.763726020795     1.090288359073    -0.004165056135    12.000000000000
         C            2.651742979205    -1.337599640927    -0.004069056135    12.000000000000
         C           -2.018281020795    -1.338199640927    -0.004170056135    12.000000000000
         C           -2.572546020795    -0.039566640927    -0.004181056135    12.000000000000
         H            0.558042979205     2.797785359073    -0.004170056135     1.007825032230
         H            2.799224979205     1.651032359073    -0.004065056135     1.007825032230
         H           -0.229649020795    -2.541407640927    -0.004144056135     1.007825032230
         H           -2.193509020795     2.090230359073    -0.004184056135     1.007825032230
         H            2.554419979205    -1.978390640927     0.879040943865     1.007825032230
         H            2.553958979205    -1.978912640927    -0.886748056135     1.007825032230
         H            3.663088979205    -0.919973640927    -0.004459056135     1.007825032230
         H           -2.684150020795    -2.198058640927    -0.004190056135     1.007825032230
         H           -3.653597020795     0.079053359073    -0.004200056135     1.007825032230

  Basis Set: AUG-CC-PVTZ
    Blend: AUG-CC-PVTZ
  Basis Set: (AUG-CC-PVTZ AUX)
    Blend: AUG-CC-PVTZ-JKFIT
	 Reference Energy          =    -400.6373542994747936 [Eh]
	 Singles Energy            =      -0.0000000000000000 [Eh]
	 Same-Spin Energy          =      -0.4523497355799574 [Eh]
	 Opposite-Spin Energy      =      -1.4051220808708327 [Eh]
	 Correlation Energy        =      -1.8574718164507900 [Eh]
	 Total Energy              =    -402.4948261159256049 [Eh]

	 ================> DF-SCS-MP2 Energies <==================
	-----------------------------------------------------------
	 SCS Same-Spin Scale       =       0.3333333333333333 [-]
	 SCS Opposite-Spin Scale   =       1.2000000000000000 [-]
	 SCS Same-Spin Energy      =      -0.1507832451933191 [Eh]
	 SCS Opposite-Spin Energy  =      -1.6861464970449991 [Eh]
	 SCS Correlation Energy    =      -1.8369297422383182 [Eh]
	 SCS Total Energy          =    -402.4742840417131333 [Eh]
	-----------------------------------------------------------

  Dipole Moment: [D]
     X:     0.9612      Y:     1.8343      Z:    -0.0347     Total:     2.0712

*** Psi4 exiting successfully. Buy a developer a beer!
