                               Psi4 1.4a3.dev225

  ==> Input File <==

--------------------------------------------------------------------------
#psi4
#
memory 32 gb

molecule  {
0 1
  O        0.2506850     2.2433030    -0.0000120
  N       -0.1535360    -0.0391100    -0.0000040
  C       -1.6091660     0.2193680    -0.0000060
  C       -2.2505560    -0.3204400     1.2726240
  C       -2.2713334    -0.2199234    -1.3003591
  C        0.7061140     1.0894960    -0.0000070
  C        0.3060350    -1.3272880     0.0000050
  C        2.1126960     0.7529310    -0.0000050
  C        1.6422530    -1.6174930     0.0000090
  C        2.5632190    -0.5392750     0.0000030
  H       -1.6749870     1.3090010    -0.0000250
  H       -3.3054200    -0.0314760     1.3049310
  H       -2.2011690    -1.4127350     1.3198810
  H       -1.7528960     0.0901600     2.1548740
  H       -1.7529050     0.0900740    -2.1548810
  H       -3.3054260    -0.0315150    -1.3049260
  H       -2.2011880    -1.4127830    -1.3198260
  H       -0.4545900    -2.1014670     0.0000100
  H        2.7949640     1.5970390    -0.0000090
  H        1.9701580    -2.6507840     0.0000170
  H        3.6325460    -0.7390360     0.0000060
units angstrom
no_reorient  #important for SAPT in psi4, default
symmetry c1  #important for SAPT in psi4, default
}

set PROPERTIES_ORIGIN ["COM"]
properties('MP2/aug-cc-pvtz', properties = ['dipole'])
--------------------------------------------------------------------------

    Molecular point group: c1
  Charge       = 0
  Multiplicity = 1
  Basis Set: AUG-CC-PVTZ
    Blend: AUG-CC-PVTZ
  Basis Set: (AUG-CC-PVTZ AUX)
    Blend: AUG-CC-PVTZ-JKFIT

    Orbital Energies [Eh]
    ---------------------

    Doubly Occupied:

       1A    -20.505641     2A    -15.622441     3A    -11.350262
       4A    -11.305549     5A    -11.274275     6A    -11.269121
       7A    -11.238158     8A    -11.235310     9A    -11.231153
      10A    -11.229999    11A     -1.367163    12A     -1.277621
      13A     -1.122474    14A     -1.051630    15A     -1.022453
      16A     -0.953076    17A     -0.892844    18A     -0.856431
      19A     -0.803939    20A     -0.710866    21A     -0.699520
      22A     -0.657517    23A     -0.640675    24A     -0.630549
      25A     -0.617096    26A     -0.604245    27A     -0.571802
      28A     -0.557500    29A     -0.548155    30A     -0.539406
      31A     -0.525610    32A     -0.513391    33A     -0.474618
      34A     -0.468967    35A     -0.417333    36A     -0.407838
      37A     -0.307295

  @DF-RHF Final Energy:  -438.80723370474374

   => Energetics <=

    Nuclear Repulsion Energy =            527.5866518881003913
    One-Electron Energy =               -1641.7839246523913062
    Two-Electron Energy =                 675.3900390595472345
    Total Energy =                       -438.8072337047437941
  Basis Set: (AUG-CC-PVTZ AUX)
    Blend: AUG-CC-PVTZ-RI
    Molecular point group: c1

    Geometry (in Angstrom), charge = 0, multiplicity = 1:

       Center              X                  Y                   Z               Mass
    ------------   -----------------  -----------------  -----------------  -----------------
         O            0.192798098265     2.196270961708     0.002417376068    15.994914619570
         N           -0.211422901735    -0.086142038292     0.002425376068    14.003074004430
         C           -1.667052901735     0.172335961708     0.002423376068    12.000000000000
         C           -2.308442901735    -0.367472038292     1.275053376068    12.000000000000
         C           -2.329220301735    -0.266955438292    -1.297929723932    12.000000000000
         C            0.648227098265     1.042463961708     0.002422376068    12.000000000000
         C            0.248148098265    -1.374320038292     0.002434376068    12.000000000000
         C            2.054809098265     0.705898961708     0.002424376068    12.000000000000
         C            1.584366098265    -1.664525038292     0.002438376068    12.000000000000
         C            2.505332098265    -0.586307038292     0.002432376068    12.000000000000
         H           -1.732873901735     1.261968961708     0.002404376068     1.007825032230
         H           -3.363306901735    -0.078508038292     1.307360376068     1.007825032230
         H           -2.259055901735    -1.459767038292     1.322310376068     1.007825032230
         H           -1.810782901735     0.043127961708     2.157303376068     1.007825032230
         H           -1.810791901735     0.043041961708    -2.152451623932     1.007825032230
         H           -3.363312901735    -0.078547038292    -1.302496623932     1.007825032230
         H           -2.259074901735    -1.459815038292    -1.317396623932     1.007825032230
         H           -0.512476901735    -2.148499038292     0.002439376068     1.007825032230
         H            2.737077098265     1.550006961708     0.002420376068     1.007825032230
         H            1.912271098265    -2.697816038292     0.002446376068     1.007825032230
         H            3.574659098265    -0.786068038292     0.002435376068     1.007825032230

  Basis Set: AUG-CC-PVTZ
    Blend: AUG-CC-PVTZ
  Basis Set: (AUG-CC-PVTZ AUX)
    Blend: AUG-CC-PVTZ-JKFIT
	 Reference Energy          =    -438.8072337047437372 [Eh]
	 Singles Energy            =      -0.0000000000000000 [Eh]
	 Same-Spin Energy          =      -0.4680094657549104 [Eh]
	 Opposite-Spin Energy      =      -1.4975790111259595 [Eh]
	 Correlation Energy        =      -1.9655884768808698 [Eh]
	 Total Energy              =    -440.7728221816246332 [Eh]

	 ================> DF-SCS-MP2 Energies <==================
	-----------------------------------------------------------
	 SCS Same-Spin Scale       =       0.3333333333333333 [-]
	 SCS Opposite-Spin Scale   =       1.2000000000000000 [-]
	 SCS Same-Spin Energy      =      -0.1560031552516368 [Eh]
	 SCS Opposite-Spin Energy  =      -1.7970948133511513 [Eh]
	 SCS Correlation Energy    =      -1.9530979686027881 [Eh]
	 SCS Total Energy          =    -440.7603316733465135 [Eh]
	-----------------------------------------------------------

  Dipole Moment: [D]
     X:    -0.6529      Y:    -3.7951      Z:     0.0121     Total:     3.8508

*** Psi4 exiting successfully. Buy a developer a beer!
