                               Psi4 1.4a3.dev225

  ==> Input File <==

--------------------------------------------------------------------------
#psi4
#
memory 32 gb

molecule  {
0 1
  O        0.2506850     2.2433030    -0.0000120
  N       -0.1535360    -0.0391100    -0.0000040
  C       -1.6091660     0.2193680    -0.0000060
  C       -2.2505560    -0.3204400     1.2726240
  C       -2.2505640    -0.3204870    -1.2726120
  C        0.7061140     1.0894960    -0.0000070
  C        0.3060350    -1.3272880     0.0000050
  C        2.1126960     0.7529310    -0.0000050
  C        1.6422530    -1.6174930     0.0000090
  C        2.5632190    -0.5392750     0.0000030
  H       -1.6749870     1.3090010    -0.0000250
  H       -3.3054200    -0.0314760     1.3049310
  H       -2.2011690    -1.4127350     1.3198810
  H       -1.7528960     0.0901600     2.1548740
  H       -1.7568178     0.1076866    -2.1486859
  H       -3.3054260    -0.0315150    -1.3049260
  H       -2.2011880    -1.4127830    -1.3198260
  H       -0.4545900    -2.1014670     0.0000100
  H        2.7949640     1.5970390    -0.0000090
  H        1.9701580    -2.6507840     0.0000170
  H        3.6325460    -0.7390360     0.0000060
units angstrom
no_reorient  #important for SAPT in psi4, default
symmetry c1  #important for SAPT in psi4, default
}

set PROPERTIES_ORIGIN ["COM"]
properties('MP2/aug-cc-pvtz', properties = ['dipole'])
--------------------------------------------------------------------------

    Molecular point group: c1
  Charge       = 0
  Multiplicity = 1
  Basis Set: AUG-CC-PVTZ
    Blend: AUG-CC-PVTZ
  Basis Set: (AUG-CC-PVTZ AUX)
    Blend: AUG-CC-PVTZ-JKFIT

    Orbital Energies [Eh]
    ---------------------

    Doubly Occupied:

       1A    -20.505445     2A    -15.621471     3A    -11.349965
       4A    -11.305636     5A    -11.274054     6A    -11.268931
       7A    -11.238322     8A    -11.235241     9A    -11.228766
      10A    -11.228653    11A     -1.367008    12A     -1.277606
      13A     -1.122538    14A     -1.051289    15A     -1.022527
      16A     -0.950642    17A     -0.893227    18A     -0.855894
      19A     -0.803743    20A     -0.711406    21A     -0.699544
      22A     -0.655360    23A     -0.640887    24A     -0.628188
      25A     -0.613143    26A     -0.604343    27A     -0.564322
      28A     -0.562875    29A     -0.547582    30A     -0.543871
      31A     -0.524234    32A     -0.504036    33A     -0.487110
      34A     -0.473759    35A     -0.417761    36A     -0.406601
      37A     -0.307148

  @DF-RHF Final Energy:  -438.81792881129871

   => Energetics <=

    Nuclear Repulsion Energy =            527.9276198552166761
    One-Electron Energy =               -1642.5048435989378959
    Two-Electron Energy =                 675.7592949324226765
    Total Energy =                       -438.8179288112986569
  Basis Set: (AUG-CC-PVTZ AUX)
    Blend: AUG-CC-PVTZ-RI
    Molecular point group: c1

    Geometry (in Angstrom), charge = 0, multiplicity = 1:

       Center              X                  Y                   Z               Mass
    ------------   -----------------  -----------------  -----------------  -----------------
         O            0.191008762765     2.204944564943    -0.000057082064    15.994914619570
         N           -0.213212237235    -0.077468435057    -0.000049082064    14.003074004430
         C           -1.668842237235     0.181009564943    -0.000051082064    12.000000000000
         C           -2.310232237235    -0.358798435057     1.272578917936    12.000000000000
         C           -2.310240237235    -0.358845435057    -1.272657082064    12.000000000000
         C            0.646437762765     1.051137564943    -0.000052082064    12.000000000000
         C            0.246358762765    -1.365646435057    -0.000040082064    12.000000000000
         C            2.053019762765     0.714572564943    -0.000050082064    12.000000000000
         C            1.582576762765    -1.655851435057    -0.000036082064    12.000000000000
         C            2.503542762765    -0.577633435057    -0.000042082064    12.000000000000
         H           -1.734663237235     1.270642564943    -0.000070082064     1.007825032230
         H           -3.365096237235    -0.069834435057     1.304885917936     1.007825032230
         H           -2.260845237235    -1.451093435057     1.319835917936     1.007825032230
         H           -1.812572237235     0.051801564943     2.154828917936     1.007825032230
         H           -1.816494037235     0.069328164943    -2.148730982064     1.007825032230
         H           -3.365102237235    -0.069873435057    -1.304971082064     1.007825032230
         H           -2.260864237235    -1.451141435057    -1.319871082064     1.007825032230
         H           -0.514266237235    -2.139825435057    -0.000035082064     1.007825032230
         H            2.735287762765     1.558680564943    -0.000054082064     1.007825032230
         H            1.910481762765    -2.689142435057    -0.000028082064     1.007825032230
         H            3.572869762765    -0.777394435057    -0.000039082064     1.007825032230

  Basis Set: AUG-CC-PVTZ
    Blend: AUG-CC-PVTZ
  Basis Set: (AUG-CC-PVTZ AUX)
    Blend: AUG-CC-PVTZ-JKFIT
	 Reference Energy          =    -438.8179288112987138 [Eh]
	 Singles Energy            =      -0.0000000000000000 [Eh]
	 Same-Spin Energy          =      -0.4679737346465169 [Eh]
	 Opposite-Spin Energy      =      -1.4972931964529939 [Eh]
	 Correlation Energy        =      -1.9652669310995108 [Eh]
	 Total Energy              =    -440.7831957423982203 [Eh]

	 ================> DF-SCS-MP2 Energies <==================
	-----------------------------------------------------------
	 SCS Same-Spin Scale       =       0.3333333333333333 [-]
	 SCS Opposite-Spin Scale   =       1.2000000000000000 [-]
	 SCS Same-Spin Energy      =      -0.1559912448821723 [Eh]
	 SCS Opposite-Spin Energy  =      -1.7967518357435925 [Eh]
	 SCS Correlation Energy    =      -1.9527430806257648 [Eh]
	 SCS Total Energy          =    -440.7706718919244508 [Eh]
	-----------------------------------------------------------

  Dipole Moment: [D]
     X:    -0.6675      Y:    -3.8655      Z:     0.0003     Total:     3.9228

*** Psi4 exiting successfully. Buy a developer a beer!
