                               Psi4 1.4a3.dev225

  ==> Input File <==

--------------------------------------------------------------------------
#psi4
#
memory 32 gb

molecule  {
0 1
  O        0.2506850     2.2433030    -0.0000120
  N       -0.1535360    -0.0391100    -0.0000040
  C       -1.6091660     0.2193680    -0.0000060
  C       -2.2505560    -0.3204400     1.2726240
  C       -2.2505640    -0.3204870    -1.2726120
  C        0.7061140     1.0894960    -0.0000070
  C        0.3060350    -1.3272880     0.0000050
  C        2.2099506     0.7296600    -0.0000049
  C        1.6422530    -1.6174930     0.0000090
  C        2.5632190    -0.5392750     0.0000030
  H       -1.6749870     1.3090010    -0.0000250
  H       -3.3054200    -0.0314760     1.3049310
  H       -2.2011690    -1.4127350     1.3198810
  H       -1.7528960     0.0901600     2.1548740
  H       -1.7529050     0.0900740    -2.1548810
  H       -3.3054260    -0.0315150    -1.3049260
  H       -2.2011880    -1.4127830    -1.3198260
  H       -0.4545900    -2.1014670     0.0000100
  H        2.7949640     1.5970390    -0.0000090
  H        1.9701580    -2.6507840     0.0000170
  H        3.6325460    -0.7390360     0.0000060
units angstrom
no_reorient  #important for SAPT in psi4, default
symmetry c1  #important for SAPT in psi4, default
}

set PROPERTIES_ORIGIN ["COM"]
properties('MP2/aug-cc-pvtz', properties = ['dipole'])
--------------------------------------------------------------------------

    Molecular point group: c1
  Charge       = 0
  Multiplicity = 1
  Basis Set: AUG-CC-PVTZ
    Blend: AUG-CC-PVTZ
  Basis Set: (AUG-CC-PVTZ AUX)
    Blend: AUG-CC-PVTZ-JKFIT

    Orbital Energies [Eh]
    ---------------------

    Doubly Occupied:

       1A    -20.514846     2A    -15.618417     3A    -11.359241
       4A    -11.302561     5A    -11.273951     6A    -11.257053
       7A    -11.237051     8A    -11.236391     9A    -11.228300
      10A    -11.228285    11A     -1.369422    12A     -1.277325
      13A     -1.123532    14A     -1.054175    15A     -1.017646
      16A     -0.950256    17A     -0.885198    18A     -0.856796
      19A     -0.800792    20A     -0.711133    21A     -0.698204
      22A     -0.657909    23A     -0.644303    24A     -0.626750
      25A     -0.613152    26A     -0.601622    27A     -0.565282
      28A     -0.561297    29A     -0.552199    30A     -0.546831
      31A     -0.522804    32A     -0.504129    33A     -0.486184
      34A     -0.475780    35A     -0.414178    36A     -0.413906
      37A     -0.307654

  @DF-RHF Final Energy:  -438.81028538343168

   => Energetics <=

    Nuclear Repulsion Energy =            526.6044945485543849
    One-Electron Energy =               -1639.8404440672636611
    Two-Electron Energy =                 674.4256641352775432
    Total Energy =                       -438.8102853834317330
  Basis Set: (AUG-CC-PVTZ AUX)
    Blend: AUG-CC-PVTZ-RI
    Molecular point group: c1

    Geometry (in Angstrom), charge = 0, multiplicity = 1:

       Center              X                  Y                   Z               Mass
    ------------   -----------------  -----------------  -----------------  -----------------
         O            0.182466569137     2.207111136393    -0.000011545211    15.994914619570
         N           -0.221754430863    -0.075301863607    -0.000003545211    14.003074004430
         C           -1.677384430863     0.183176136393    -0.000005545211    12.000000000000
         C           -2.318774430863    -0.356631863607     1.272624454789    12.000000000000
         C           -2.318782430863    -0.356678863607    -1.272611545211    12.000000000000
         C            0.637895569137     1.053304136393    -0.000006545211    12.000000000000
         C            0.237816569137    -1.363479863607     0.000005454789    12.000000000000
         C            2.141732169137     0.693468136393    -0.000004445211    12.000000000000
         C            1.574034569137    -1.653684863607     0.000009454789    12.000000000000
         C            2.495000569137    -0.575466863607     0.000003454789    12.000000000000
         H           -1.743205430863     1.272809136393    -0.000024545211     1.007825032230
         H           -3.373638430863    -0.067667863607     1.304931454789     1.007825032230
         H           -2.269387430863    -1.448926863607     1.319881454789     1.007825032230
         H           -1.821114430863     0.053968136393     2.154874454789     1.007825032230
         H           -1.821123430863     0.053882136393    -2.154880545211     1.007825032230
         H           -3.373644430863    -0.067706863607    -1.304925545211     1.007825032230
         H           -2.269406430863    -1.448974863607    -1.319825545211     1.007825032230
         H           -0.522808430863    -2.137658863607     0.000010454789     1.007825032230
         H            2.726745569137     1.560847136393    -0.000008545211     1.007825032230
         H            1.901939569137    -2.686975863607     0.000017454789     1.007825032230
         H            3.564327569137    -0.775227863607     0.000006454789     1.007825032230

  Basis Set: AUG-CC-PVTZ
    Blend: AUG-CC-PVTZ
  Basis Set: (AUG-CC-PVTZ AUX)
    Blend: AUG-CC-PVTZ-JKFIT
	 Reference Energy          =    -438.8102853834316761 [Eh]
	 Singles Energy            =      -0.0000000000000000 [Eh]
	 Same-Spin Energy          =      -0.4662702031266103 [Eh]
	 Opposite-Spin Energy      =      -1.4960578161342655 [Eh]
	 Correlation Energy        =      -1.9623280192608759 [Eh]
	 Total Energy              =    -440.7726134026925706 [Eh]

	 ================> DF-SCS-MP2 Energies <==================
	-----------------------------------------------------------
	 SCS Same-Spin Scale       =       0.3333333333333333 [-]
	 SCS Opposite-Spin Scale   =       1.2000000000000000 [-]
	 SCS Same-Spin Energy      =      -0.1554234010422034 [Eh]
	 SCS Opposite-Spin Energy  =      -1.7952693793611185 [Eh]
	 SCS Correlation Energy    =      -1.9506927804033218 [Eh]
	 SCS Total Energy          =    -440.7609781638349773 [Eh]
	-----------------------------------------------------------

  Dipole Moment: [D]
     X:    -0.7309      Y:    -3.6036      Z:     0.0000     Total:     3.6770

*** Psi4 exiting successfully. Buy a developer a beer!
