                               Psi4 1.4a3.dev225

  ==> Input File <==

--------------------------------------------------------------------------
#psi4
#
memory 32 gb

molecule  {
0 1
  O        0.2506850     2.2433030    -0.0000120
  N       -0.1584940    -0.0618796     0.0460380
  C       -1.6091660     0.2193680    -0.0000060
  C       -2.2505560    -0.3204400     1.2726240
  C       -2.2505640    -0.3204870    -1.2726120
  C        0.7061140     1.0894960    -0.0000070
  C        0.3060350    -1.3272880     0.0000050
  C        2.1126960     0.7529310    -0.0000050
  C        1.6422530    -1.6174930     0.0000090
  C        2.5632190    -0.5392750     0.0000030
  H       -1.6749870     1.3090010    -0.0000250
  H       -3.3054200    -0.0314760     1.3049310
  H       -2.2011690    -1.4127350     1.3198810
  H       -1.7528960     0.0901600     2.1548740
  H       -1.7529050     0.0900740    -2.1548810
  H       -3.3054260    -0.0315150    -1.3049260
  H       -2.2011880    -1.4127830    -1.3198260
  H       -0.4545900    -2.1014670     0.0000100
  H        2.7949640     1.5970390    -0.0000090
  H        1.9701580    -2.6507840     0.0000170
  H        3.6325460    -0.7390360     0.0000060
units angstrom
no_reorient  #important for SAPT in psi4, default
symmetry c1  #important for SAPT in psi4, default
}

set PROPERTIES_ORIGIN ["COM"]
properties('MP2/aug-cc-pvtz', properties = ['dipole'])
--------------------------------------------------------------------------

    Molecular point group: c1
  Charge       = 0
  Multiplicity = 1
  Basis Set: AUG-CC-PVTZ
    Blend: AUG-CC-PVTZ
  Basis Set: (AUG-CC-PVTZ AUX)
    Blend: AUG-CC-PVTZ-JKFIT

    Orbital Energies [Eh]
    ---------------------

    Doubly Occupied:

       1A    -20.508819     2A    -15.622065     3A    -11.352718
       4A    -11.304556     5A    -11.274760     6A    -11.268912
       7A    -11.235950     8A    -11.233990     9A    -11.229906
      10A    -11.227841    11A     -1.367121    12A     -1.281549
      13A     -1.122134    14A     -1.052077    15A     -1.020563
      16A     -0.950983    17A     -0.892838    18A     -0.855263
      19A     -0.804274    20A     -0.712361    21A     -0.697750
      22A     -0.655686    23A     -0.642479    24A     -0.628122
      25A     -0.612420    26A     -0.604763    27A     -0.565035
      28A     -0.562457    29A     -0.547994    30A     -0.543036
      31A     -0.525854    32A     -0.505316    33A     -0.486115
      34A     -0.475745    35A     -0.418859    36A     -0.407252
      37A     -0.305102

  @DF-RHF Final Energy:  -438.81617852403315

   => Energetics <=

    Nuclear Repulsion Energy =            527.8440182415380377
    One-Electron Energy =               -1642.3150673956849914
    Two-Electron Energy =                 675.6548706301136917
    Total Energy =                       -438.8161785240331483
  Basis Set: (AUG-CC-PVTZ AUX)
    Blend: AUG-CC-PVTZ-RI
    Molecular point group: c1

    Geometry (in Angstrom), charge = 0, multiplicity = 1:

       Center              X                  Y                   Z               Mass
    ------------   -----------------  -----------------  -----------------  -----------------
         O            0.191486453761     2.207399954748    -0.004714705553    15.994914619570
         N           -0.217692546239    -0.097782645252     0.041335294447    14.003074004430
         C           -1.668364546239     0.183464954748    -0.004708705553    12.000000000000
         C           -2.309754546239    -0.356343045252     1.267921294447    12.000000000000
         C           -2.309762546239    -0.356390045252    -1.277314705553    12.000000000000
         C            0.646915453761     1.053592954748    -0.004709705553    12.000000000000
         C            0.246836453761    -1.363191045252    -0.004697705553    12.000000000000
         C            2.053497453761     0.717027954748    -0.004707705553    12.000000000000
         C            1.583054453761    -1.653396045252    -0.004693705553    12.000000000000
         C            2.504020453761    -0.575178045252    -0.004699705553    12.000000000000
         H           -1.734185546239     1.273097954748    -0.004727705553     1.007825032230
         H           -3.364618546239    -0.067379045252     1.300228294447     1.007825032230
         H           -2.260367546239    -1.448638045252     1.315178294447     1.007825032230
         H           -1.812094546239     0.054256954748     2.150171294447     1.007825032230
         H           -1.812103546239     0.054170954748    -2.159583705553     1.007825032230
         H           -3.364624546239    -0.067418045252    -1.309628705553     1.007825032230
         H           -2.260386546239    -1.448686045252    -1.324528705553     1.007825032230
         H           -0.513788546239    -2.137370045252    -0.004692705553     1.007825032230
         H            2.735765453761     1.561135954748    -0.004711705553     1.007825032230
         H            1.910959453761    -2.686687045252    -0.004685705553     1.007825032230
         H            3.573347453761    -0.774939045252    -0.004696705553     1.007825032230

  Basis Set: AUG-CC-PVTZ
    Blend: AUG-CC-PVTZ
  Basis Set: (AUG-CC-PVTZ AUX)
    Blend: AUG-CC-PVTZ-JKFIT
	 Reference Energy          =    -438.8161785240331483 [Eh]
	 Singles Energy            =      -0.0000000000000000 [Eh]
	 Same-Spin Energy          =      -0.4683241473254920 [Eh]
	 Opposite-Spin Energy      =      -1.4975688881781319 [Eh]
	 Correlation Energy        =      -1.9658930355036239 [Eh]
	 Total Energy              =    -440.7820715595367460 [Eh]

	 ================> DF-SCS-MP2 Energies <==================
	-----------------------------------------------------------
	 SCS Same-Spin Scale       =       0.3333333333333333 [-]
	 SCS Opposite-Spin Scale   =       1.2000000000000000 [-]
	 SCS Same-Spin Energy      =      -0.1561080491084973 [Eh]
	 SCS Opposite-Spin Energy  =      -1.7970826658137582 [Eh]
	 SCS Correlation Energy    =      -1.9531907149222556 [Eh]
	 SCS Total Energy          =    -440.7693692389553917 [Eh]
	-----------------------------------------------------------

  Dipole Moment: [D]
     X:    -0.7095      Y:    -3.7707      Z:    -0.0415     Total:     3.8371

*** Psi4 exiting successfully. Buy a developer a beer!
