                               Psi4 1.4a3.dev225

  ==> Input File <==

--------------------------------------------------------------------------
#psi4
#
memory 32 gb

molecule  {
0 1
  O        0.2506850     2.2433030    -0.0000120
  N       -0.1535360    -0.0391100    -0.0000040
  C       -1.6091660     0.2193680    -0.0000060
  C       -2.2505560    -0.3204400     1.2726240
  C       -2.2505640    -0.3204870    -1.2726120
  C        0.7061140     1.0894960    -0.0000070
  C        0.3060350    -1.3272880     0.0000050
  C        2.1126960     0.7529310    -0.0000050
  C        1.6422530    -1.6174930     0.0000090
  C        2.5632190    -0.5392750     0.0000030
  H       -1.6749870     1.3090010    -0.0000250
  H       -3.3054200    -0.0314760     1.3049310
  H       -2.2011690    -1.4127350     1.3198810
  H       -1.7528960     0.0901600     2.1548740
  H       -1.7529050     0.0900740    -2.1548810
  H       -3.3054260    -0.0315150    -1.3049260
  H       -2.2011880    -1.4127830    -1.3198260
  H       -0.4545900    -2.1014670     0.0000100
  H        2.7949640     1.5970390    -0.0000090
  H        1.9701580    -2.6507840     0.0000170
  H        3.5342465    -0.7206727     0.0000057
units angstrom
no_reorient  #important for SAPT in psi4, default
symmetry c1  #important for SAPT in psi4, default
}

set PROPERTIES_ORIGIN ["COM"]
properties('MP2/aug-cc-pvtz', properties = ['dipole'])
--------------------------------------------------------------------------

    Molecular point group: c1
  Charge       = 0
  Multiplicity = 1
  Basis Set: AUG-CC-PVTZ
    Blend: AUG-CC-PVTZ
  Basis Set: (AUG-CC-PVTZ AUX)
    Blend: AUG-CC-PVTZ-JKFIT

    Orbital Energies [Eh]
    ---------------------

    Doubly Occupied:

       1A    -20.505118     2A    -15.621204     3A    -11.349437
       4A    -11.305067     5A    -11.273986     6A    -11.257294
       7A    -11.237521     8A    -11.234802     9A    -11.228608
      10A    -11.228592    11A     -1.366678    12A     -1.277271
      13A     -1.124172    14A     -1.052886    15A     -1.022177
      16A     -0.950496    17A     -0.898058    18A     -0.858709
      19A     -0.806628    20A     -0.715669    21A     -0.700421
      22A     -0.661544    23A     -0.644174    24A     -0.627865
      25A     -0.612753    26A     -0.604260    27A     -0.570981
      28A     -0.561921    29A     -0.547719    30A     -0.543476
      31A     -0.525273    32A     -0.504401    33A     -0.486815
      34A     -0.473401    35A     -0.417867    36A     -0.406364
      37A     -0.306732

  @DF-RHF Final Energy:  -438.81215347134946

   => Energetics <=

    Nuclear Repulsion Energy =            528.4756422501384350
    One-Electron Energy =               -1643.5549143473861022
    Two-Electron Energy =                 676.2671186258982061
    Total Energy =                       -438.8121534713494611
  Basis Set: (AUG-CC-PVTZ AUX)
    Blend: AUG-CC-PVTZ-RI
    Molecular point group: c1

    Geometry (in Angstrom), charge = 0, multiplicity = 1:

       Center              X                  Y                   Z               Mass
    ------------   -----------------  -----------------  -----------------  -----------------
         O            0.191702682074     2.204939045890    -0.000011534251    15.994914619570
         N           -0.212518317926    -0.077473954110    -0.000003534251    14.003074004430
         C           -1.668148317926     0.181004045890    -0.000005534251    12.000000000000
         C           -2.309538317926    -0.358803954110     1.272624465749    12.000000000000
         C           -2.309546317926    -0.358850954110    -1.272611534251    12.000000000000
         C            0.647131682074     1.051132045890    -0.000006534251    12.000000000000
         C            0.247052682074    -1.365651954110     0.000005465749    12.000000000000
         C            2.053713682074     0.714567045890    -0.000004534251    12.000000000000
         C            1.583270682074    -1.655856954110     0.000009465749    12.000000000000
         C            2.504236682074    -0.577638954110     0.000003465749    12.000000000000
         H           -1.733969317926     1.270637045890    -0.000024534251     1.007825032230
         H           -3.364402317926    -0.069839954110     1.304931465749     1.007825032230
         H           -2.260151317926    -1.451098954110     1.319881465749     1.007825032230
         H           -1.811878317926     0.051796045890     2.154874465749     1.007825032230
         H           -1.811887317926     0.051710045890    -2.154880534251     1.007825032230
         H           -3.364408317926    -0.069878954110    -1.304925534251     1.007825032230
         H           -2.260170317926    -1.451146954110    -1.319825534251     1.007825032230
         H           -0.513572317926    -2.139830954110     0.000010465749     1.007825032230
         H            2.735981682074     1.558675045890    -0.000008534251     1.007825032230
         H            1.911175682074    -2.689147954110     0.000017465749     1.007825032230
         H            3.475264182074    -0.759036654110     0.000006165749     1.007825032230

  Basis Set: AUG-CC-PVTZ
    Blend: AUG-CC-PVTZ
  Basis Set: (AUG-CC-PVTZ AUX)
    Blend: AUG-CC-PVTZ-JKFIT
	 Reference Energy          =    -438.8121534713494611 [Eh]
	 Singles Energy            =      -0.0000000000000000 [Eh]
	 Same-Spin Energy          =      -0.4678171382508591 [Eh]
	 Opposite-Spin Energy      =      -1.4967537450207786 [Eh]
	 Correlation Energy        =      -1.9645708832716378 [Eh]
	 Total Energy              =    -440.7767243546210807 [Eh]

	 ================> DF-SCS-MP2 Energies <==================
	-----------------------------------------------------------
	 SCS Same-Spin Scale       =       0.3333333333333333 [-]
	 SCS Opposite-Spin Scale   =       1.2000000000000000 [-]
	 SCS Same-Spin Energy      =      -0.1559390460836197 [Eh]
	 SCS Opposite-Spin Energy  =      -1.7961044940249342 [Eh]
	 SCS Correlation Energy    =      -1.9520435401085539 [Eh]
	 SCS Total Energy          =    -440.7641970114580090 [Eh]
	-----------------------------------------------------------

  Dipole Moment: [D]
     X:    -0.6361      Y:    -3.8727      Z:     0.0000     Total:     3.9246

*** Psi4 exiting successfully. Buy a developer a beer!
