                               Psi4 1.4a3.dev225

  ==> Input File <==

--------------------------------------------------------------------------
#psi4
#
memory 32 gb

molecule  {
0 1
  O        0.2506850     2.2433030    -0.0000120
  N       -0.1535360    -0.0391100    -0.0000040
  C       -1.6091660     0.2193680    -0.0000060
  C       -2.2505560    -0.3204400     1.2726240
  C       -2.2390006    -0.3698127    -1.2564038
  C        0.7061140     1.0894960    -0.0000070
  C        0.3060350    -1.3272880     0.0000050
  C        2.1126960     0.7529310    -0.0000050
  C        1.6422530    -1.6174930     0.0000090
  C        2.5632190    -0.5392750     0.0000030
  H       -1.6749870     1.3090010    -0.0000250
  H       -3.3054200    -0.0314760     1.3049310
  H       -2.2011690    -1.4127350     1.3198810
  H       -1.7528960     0.0901600     2.1548740
  H       -1.7529050     0.0900740    -2.1548810
  H       -3.3054260    -0.0315150    -1.3049260
  H       -2.2011880    -1.4127830    -1.3198260
  H       -0.4545900    -2.1014670     0.0000100
  H        2.7949640     1.5970390    -0.0000090
  H        1.9701580    -2.6507840     0.0000170
  H        3.6325460    -0.7390360     0.0000060
units angstrom
no_reorient  #important for SAPT in psi4, default
symmetry c1  #important for SAPT in psi4, default
}

set PROPERTIES_ORIGIN ["COM"]
properties('MP2/aug-cc-pvtz', properties = ['dipole'])
--------------------------------------------------------------------------

    Molecular point group: c1
  Charge       = 0
  Multiplicity = 1
  Basis Set: AUG-CC-PVTZ
    Blend: AUG-CC-PVTZ
  Basis Set: (AUG-CC-PVTZ AUX)
    Blend: AUG-CC-PVTZ-JKFIT

    Orbital Energies [Eh]
    ---------------------

    Doubly Occupied:

       1A    -20.505450     2A    -15.621110     3A    -11.349904
       4A    -11.305713     5A    -11.274838     6A    -11.268898
       7A    -11.238466     8A    -11.235270     9A    -11.229016
      10A    -11.228295    11A     -1.367041    12A     -1.277753
      13A     -1.122739    14A     -1.051482    15A     -1.022649
      16A     -0.950201    17A     -0.893815    18A     -0.855718
      19A     -0.804652    20A     -0.712353    21A     -0.699645
      22A     -0.655317    23A     -0.642147    24A     -0.627801
      25A     -0.611055    26A     -0.604425    27A     -0.571359
      28A     -0.562820    29A     -0.545991    30A     -0.541530
      31A     -0.521950    32A     -0.499597    33A     -0.491966
      34A     -0.473315    35A     -0.417921    36A     -0.405961
      37A     -0.307152

  @DF-RHF Final Energy:  -438.81459931783536

   => Energetics <=

    Nuclear Repulsion Energy =            528.1061447606313095
    One-Electron Energy =               -1642.8508583031953094
    Two-Electron Energy =                 675.9301142247287544
    Total Energy =                       -438.8145993178353592
  Basis Set: (AUG-CC-PVTZ AUX)
    Blend: AUG-CC-PVTZ-RI
    Molecular point group: c1

    Geometry (in Angstrom), charge = 0, multiplicity = 1:

       Center              X                  Y                   Z               Mass
    ------------   -----------------  -----------------  -----------------  -----------------
         O            0.189967764901     2.209391900407    -0.001430362208    15.994914619570
         N           -0.214253235099    -0.073021099593    -0.001422362208    14.003074004430
         C           -1.669883235099     0.185456900407    -0.001424362208    12.000000000000
         C           -2.311273235099    -0.354351099593     1.271205637792    12.000000000000
         C           -2.299717835099    -0.403723799593    -1.257822162208    12.000000000000
         C            0.645396764901     1.055584900407    -0.001425362208    12.000000000000
         C            0.245317764901    -1.361199099593    -0.001413362208    12.000000000000
         C            2.051978764901     0.719019900407    -0.001423362208    12.000000000000
         C            1.581535764901    -1.651404099593    -0.001409362208    12.000000000000
         C            2.502501764901    -0.573186099593    -0.001415362208    12.000000000000
         H           -1.735704235099     1.275089900407    -0.001443362208     1.007825032230
         H           -3.366137235099    -0.065387099593     1.303512637792     1.007825032230
         H           -2.261886235099    -1.446646099593     1.318462637792     1.007825032230
         H           -1.813613235099     0.056248900407     2.153455637792     1.007825032230
         H           -1.813622235099     0.056162900407    -2.156299362208     1.007825032230
         H           -3.366143235099    -0.065426099593    -1.306344362208     1.007825032230
         H           -2.261905235099    -1.446694099593    -1.321244362208     1.007825032230
         H           -0.515307235099    -2.135378099593    -0.001408362208     1.007825032230
         H            2.734246764901     1.563127900407    -0.001427362208     1.007825032230
         H            1.909440764901    -2.684695099593    -0.001401362208     1.007825032230
         H            3.571828764901    -0.772947099593    -0.001412362208     1.007825032230

  Basis Set: AUG-CC-PVTZ
    Blend: AUG-CC-PVTZ
  Basis Set: (AUG-CC-PVTZ AUX)
    Blend: AUG-CC-PVTZ-JKFIT
	 Reference Energy          =    -438.8145993178353592 [Eh]
	 Singles Energy            =      -0.0000000000000000 [Eh]
	 Same-Spin Energy          =      -0.4680907452776683 [Eh]
	 Opposite-Spin Energy      =      -1.4975312636482503 [Eh]
	 Correlation Energy        =      -1.9656220089259184 [Eh]
	 Total Energy              =    -440.7802213267612501 [Eh]

	 ================> DF-SCS-MP2 Energies <==================
	-----------------------------------------------------------
	 SCS Same-Spin Scale       =       0.3333333333333333 [-]
	 SCS Opposite-Spin Scale   =       1.2000000000000000 [-]
	 SCS Same-Spin Energy      =      -0.1560302484258894 [Eh]
	 SCS Opposite-Spin Energy  =      -1.7970375163779002 [Eh]
	 SCS Correlation Energy    =      -1.9530677648037895 [Eh]
	 SCS Total Energy          =    -440.7676670826391501 [Eh]
	-----------------------------------------------------------

  Dipole Moment: [D]
     X:    -0.6649      Y:    -3.8943      Z:     0.0034     Total:     3.9506

*** Psi4 exiting successfully. Buy a developer a beer!
