                               Psi4 1.4a3.dev225

  ==> Input File <==

--------------------------------------------------------------------------
#psi4
#
memory 32 gb

molecule  {
0 1
  O        0.2506850     2.2433030    -0.0000120
  N       -0.1535360    -0.0391100    -0.0000040
  C       -1.6091660     0.2193680    -0.0000060
  C       -2.2505560    -0.3204400     1.2726240
  C       -2.2505640    -0.3204870    -1.2726120
  C        0.7061140     1.0894960    -0.0000070
  C        0.3060350    -1.3272880     0.0000050
  C        2.1126960     0.7529310    -0.0000050
  C        1.6422530    -1.6174930     0.0000090
  C        2.5632190    -0.5392750     0.0000030
  H       -1.6749870     1.3090010    -0.0000250
  H       -3.3054200    -0.0314760     1.3049310
  H       -2.2011690    -1.4127350     1.3198810
  H       -1.7528960     0.0901600     2.1548740
  H       -1.7364907     0.0823162    -2.1490261
  H       -3.3054260    -0.0315150    -1.3049260
  H       -2.2011880    -1.4127830    -1.3198260
  H       -0.4545900    -2.1014670     0.0000100
  H        2.7949640     1.5970390    -0.0000090
  H        1.9701580    -2.6507840     0.0000170
  H        3.6325460    -0.7390360     0.0000060
units angstrom
no_reorient  #important for SAPT in psi4, default
symmetry c1  #important for SAPT in psi4, default
}

set PROPERTIES_ORIGIN ["COM"]
properties('MP2/aug-cc-pvtz', properties = ['dipole'])
--------------------------------------------------------------------------

    Molecular point group: c1
  Charge       = 0
  Multiplicity = 1
  Basis Set: AUG-CC-PVTZ
    Blend: AUG-CC-PVTZ
  Basis Set: (AUG-CC-PVTZ AUX)
    Blend: AUG-CC-PVTZ-JKFIT

    Orbital Energies [Eh]
    ---------------------

    Doubly Occupied:

       1A    -20.505461     2A    -15.621510     3A    -11.349989
       4A    -11.305650     5A    -11.274066     6A    -11.268961
       7A    -11.238354     8A    -11.235274     9A    -11.228796
      10A    -11.228681    11A     -1.367027    12A     -1.277643
      13A     -1.122570    14A     -1.051288    15A     -1.022557
      16A     -0.950672    17A     -0.893259    18A     -0.855885
      19A     -0.803803    20A     -0.711516    21A     -0.699523
      22A     -0.655555    23A     -0.640823    24A     -0.628325
      25A     -0.612747    26A     -0.604315    27A     -0.564696
      28A     -0.561839    29A     -0.548496    30A     -0.543934
      31A     -0.524523    32A     -0.504177    33A     -0.486774
      34A     -0.473723    35A     -0.417770    36A     -0.406639
      37A     -0.307179

  @DF-RHF Final Energy:  -438.81792803974434

   => Energetics <=

    Nuclear Repulsion Energy =            527.9519060458997046
    One-Electron Energy =               -1642.5516674621549100
    Two-Electron Energy =                 675.7818333765108036
    Total Energy =                       -438.8179280397444018
  Basis Set: (AUG-CC-PVTZ AUX)
    Blend: AUG-CC-PVTZ-RI
    Molecular point group: c1

    Geometry (in Angstrom), charge = 0, multiplicity = 1:

       Center              X                  Y                   Z               Mass
    ------------   -----------------  -----------------  -----------------  -----------------
         O            0.190859320447     2.205131084977    -0.000054580955    15.994914619570
         N           -0.213361679553    -0.077281915023    -0.000046580955    14.003074004430
         C           -1.668991679553     0.181196084977    -0.000048580955    12.000000000000
         C           -2.310381679553    -0.358611915023     1.272581419045    12.000000000000
         C           -2.310389679553    -0.358658915023    -1.272654580955    12.000000000000
         C            0.646288320447     1.051324084977    -0.000049580955    12.000000000000
         C            0.246209320447    -1.365459915023    -0.000037580955    12.000000000000
         C            2.052870320447     0.714759084977    -0.000047580955    12.000000000000
         C            1.582427320447    -1.655664915023    -0.000033580955    12.000000000000
         C            2.503393320447    -0.577446915023    -0.000039580955    12.000000000000
         H           -1.734812679553     1.270829084977    -0.000067580955     1.007825032230
         H           -3.365245679553    -0.069647915023     1.304888419045     1.007825032230
         H           -2.260994679553    -1.450906915023     1.319838419045     1.007825032230
         H           -1.812721679553     0.051988084977     2.154831419045     1.007825032230
         H           -1.796316379553     0.044144284977    -2.149068680955     1.007825032230
         H           -3.365251679553    -0.069686915023    -1.304968580955     1.007825032230
         H           -2.261013679553    -1.450954915023    -1.319868580955     1.007825032230
         H           -0.514415679553    -2.139638915023    -0.000032580955     1.007825032230
         H            2.735138320447     1.558867084977    -0.000051580955     1.007825032230
         H            1.910332320447    -2.688955915023    -0.000025580955     1.007825032230
         H            3.572720320447    -0.777207915023    -0.000036580955     1.007825032230

  Basis Set: AUG-CC-PVTZ
    Blend: AUG-CC-PVTZ
  Basis Set: (AUG-CC-PVTZ AUX)
    Blend: AUG-CC-PVTZ-JKFIT
	 Reference Energy          =    -438.8179280397443449 [Eh]
	 Singles Energy            =      -0.0000000000000000 [Eh]
	 Same-Spin Energy          =      -0.4679753533054510 [Eh]
	 Opposite-Spin Energy      =      -1.4972987378127380 [Eh]
	 Correlation Energy        =      -1.9652740911181890 [Eh]
	 Total Energy              =    -440.7832021308625485 [Eh]

	 ================> DF-SCS-MP2 Energies <==================
	-----------------------------------------------------------
	 SCS Same-Spin Scale       =       0.3333333333333333 [-]
	 SCS Opposite-Spin Scale   =       1.2000000000000000 [-]
	 SCS Same-Spin Energy      =      -0.1559917844351503 [Eh]
	 SCS Opposite-Spin Energy  =      -1.7967584853752856 [Eh]
	 SCS Correlation Energy    =      -1.9527502698104360 [Eh]
	 SCS Total Energy          =    -440.7706783095547962 [Eh]
	-----------------------------------------------------------

  Dipole Moment: [D]
     X:    -0.6602      Y:    -3.8732      Z:     0.0027     Total:     3.9290

*** Psi4 exiting successfully. Buy a developer a beer!
