                               Psi4 1.4a3.dev225

  ==> Input File <==

--------------------------------------------------------------------------
#psi4
#
memory 32 gb

molecule  {
0 1
  O        0.2506850     2.2433030    -0.0000120
  N       -0.1535360    -0.0391100    -0.0000040
  C       -1.6091660     0.2193680    -0.0000060
  C       -2.2505560    -0.3204400     1.2726240
  C       -2.2505640    -0.3204870    -1.2726120
  C        0.6455204     1.0099447    -0.0000068
  C        0.3060350    -1.3272880     0.0000050
  C        2.1126960     0.7529310    -0.0000050
  C        1.6422530    -1.6174930     0.0000090
  C        2.5632190    -0.5392750     0.0000030
  H       -1.6749870     1.3090010    -0.0000250
  H       -3.3054200    -0.0314760     1.3049310
  H       -2.2011690    -1.4127350     1.3198810
  H       -1.7528960     0.0901600     2.1548740
  H       -1.7529050     0.0900740    -2.1548810
  H       -3.3054260    -0.0315150    -1.3049260
  H       -2.2011880    -1.4127830    -1.3198260
  H       -0.4545900    -2.1014670     0.0000100
  H        2.7949640     1.5970390    -0.0000090
  H        1.9701580    -2.6507840     0.0000170
  H        3.6325460    -0.7390360     0.0000060
units angstrom
no_reorient  #important for SAPT in psi4, default
symmetry c1  #important for SAPT in psi4, default
}

set PROPERTIES_ORIGIN ["COM"]
properties('MP2/aug-cc-pvtz', properties = ['dipole'])
--------------------------------------------------------------------------

    Molecular point group: c1
  Charge       = 0
  Multiplicity = 1
  Basis Set: AUG-CC-PVTZ
    Blend: AUG-CC-PVTZ
  Basis Set: (AUG-CC-PVTZ AUX)
    Blend: AUG-CC-PVTZ-JKFIT

    Orbital Energies [Eh]
    ---------------------

    Doubly Occupied:

       1A    -20.489804     2A    -15.630552     3A    -11.345668
       4A    -11.306269     5A    -11.278439     6A    -11.264546
       7A    -11.246743     8A    -11.243402     9A    -11.231942
      10A    -11.231927    11A     -1.361313    12A     -1.269877
      13A     -1.125779    14A     -1.060818    15A     -1.025945
      16A     -0.954007    17A     -0.896491    18A     -0.871873
      19A     -0.804197    20A     -0.716151    21A     -0.700779
      22A     -0.655559    23A     -0.644669    24A     -0.640326
      25A     -0.617519    26A     -0.591168    27A     -0.565291
      28A     -0.561029    29A     -0.549132    30A     -0.544983
      31A     -0.518788    32A     -0.503799    33A     -0.493240
      34A     -0.459807    35A     -0.411268    36A     -0.403116
      37A     -0.309997

  @DF-RHF Final Energy:  -438.80663225528247

   => Energetics <=

    Nuclear Repulsion Energy =            528.9369290158050489
    One-Electron Energy =               -1644.4346941722767497
    Two-Electron Energy =                 676.6911329011893486
    Total Energy =                       -438.8066322552824658
  Basis Set: (AUG-CC-PVTZ AUX)
    Blend: AUG-CC-PVTZ-RI
    Molecular point group: c1

    Geometry (in Angstrom), charge = 0, multiplicity = 1:

       Center              X                  Y                   Z               Mass
    ------------   -----------------  -----------------  -----------------  -----------------
         O            0.196284210262     2.212037774693    -0.000011553964    15.994914619570
         N           -0.207936789738    -0.070375225307    -0.000003553964    14.003074004430
         C           -1.663566789738     0.188102774693    -0.000005553964    12.000000000000
         C           -2.304956789738    -0.351705225307     1.272624446036    12.000000000000
         C           -2.304964789738    -0.351752225307    -1.272611553964    12.000000000000
         C            0.591119610262     0.978679474693    -0.000006353964    12.000000000000
         C            0.251634210262    -1.358553225307     0.000005446036    12.000000000000
         C            2.058295210262     0.721665774693    -0.000004553964    12.000000000000
         C            1.587852210262    -1.648758225307     0.000009446036    12.000000000000
         C            2.508818210262    -0.570540225307     0.000003446036    12.000000000000
         H           -1.729387789738     1.277735774693    -0.000024553964     1.007825032230
         H           -3.359820789738    -0.062741225307     1.304931446036     1.007825032230
         H           -2.255569789738    -1.444000225307     1.319881446036     1.007825032230
         H           -1.807296789738     0.058894774693     2.154874446036     1.007825032230
         H           -1.807305789738     0.058808774693    -2.154880553964     1.007825032230
         H           -3.359826789738    -0.062780225307    -1.304925553964     1.007825032230
         H           -2.255588789738    -1.444048225307    -1.319825553964     1.007825032230
         H           -0.508990789738    -2.132732225307     0.000010446036     1.007825032230
         H            2.740563210262     1.565773774693    -0.000008553964     1.007825032230
         H            1.915757210262    -2.682049225307     0.000017446036     1.007825032230
         H            3.578145210262    -0.770301225307     0.000006446036     1.007825032230

  Basis Set: AUG-CC-PVTZ
    Blend: AUG-CC-PVTZ
  Basis Set: (AUG-CC-PVTZ AUX)
    Blend: AUG-CC-PVTZ-JKFIT
	 Reference Energy          =    -438.8066322552824658 [Eh]
	 Singles Energy            =      -0.0000000000000000 [Eh]
	 Same-Spin Energy          =      -0.4678116295734002 [Eh]
	 Opposite-Spin Energy      =      -1.4980290020091880 [Eh]
	 Correlation Energy        =      -1.9658406315825880 [Eh]
	 Total Energy              =    -440.7724728868650459 [Eh]

	 ================> DF-SCS-MP2 Energies <==================
	-----------------------------------------------------------
	 SCS Same-Spin Scale       =       0.3333333333333333 [-]
	 SCS Opposite-Spin Scale   =       1.2000000000000000 [-]
	 SCS Same-Spin Energy      =      -0.1559372098578000 [Eh]
	 SCS Opposite-Spin Energy  =      -1.7976348024110256 [Eh]
	 SCS Correlation Energy    =      -1.9535720122688256 [Eh]
	 SCS Total Energy          =    -440.7602042675512735 [Eh]
	-----------------------------------------------------------

  Dipole Moment: [D]
     X:    -0.7243      Y:    -4.4298      Z:     0.0000     Total:     4.4886

*** Psi4 exiting successfully. Buy a developer a beer!
