                               Psi4 1.4a3.dev225

  ==> Input File <==

--------------------------------------------------------------------------
#psi4
#
memory 32 gb

molecule  {
0 1
  O        0.2506850     2.2433030    -0.0000120
  N       -0.1535360    -0.0391100    -0.0000040
  C       -1.6091660     0.2193680    -0.0000060
  C       -2.2505560    -0.3204400     1.2726240
  C       -2.2505640    -0.3204870    -1.2726120
  C        0.7061140     1.0894960    -0.0000070
  C        0.3732384    -1.5156592     0.0000063
  C        2.1126960     0.7529310    -0.0000050
  C        1.6422530    -1.6174930     0.0000090
  C        2.5632190    -0.5392750     0.0000030
  H       -1.6749870     1.3090010    -0.0000250
  H       -3.3054200    -0.0314760     1.3049310
  H       -2.2011690    -1.4127350     1.3198810
  H       -1.7528960     0.0901600     2.1548740
  H       -1.7529050     0.0900740    -2.1548810
  H       -3.3054260    -0.0315150    -1.3049260
  H       -2.2011880    -1.4127830    -1.3198260
  H       -0.4545900    -2.1014670     0.0000100
  H        2.7949640     1.5970390    -0.0000090
  H        1.9701580    -2.6507840     0.0000170
  H        3.6325460    -0.7390360     0.0000060
units angstrom
no_reorient  #important for SAPT in psi4, default
symmetry c1  #important for SAPT in psi4, default
}

set PROPERTIES_ORIGIN ["COM"]
properties('MP2/aug-cc-pvtz', properties = ['dipole'])
--------------------------------------------------------------------------

    Molecular point group: c1
  Charge       = 0
  Multiplicity = 1
  Basis Set: AUG-CC-PVTZ
    Blend: AUG-CC-PVTZ
  Basis Set: (AUG-CC-PVTZ AUX)
    Blend: AUG-CC-PVTZ-JKFIT

    Orbital Energies [Eh]
    ---------------------

    Doubly Occupied:

       1A    -20.505228     2A    -15.599131     3A    -11.347488
       4A    -11.297812     5A    -11.274655     6A    -11.262789
       7A    -11.249541     8A    -11.243821     9A    -11.221125
      10A    -11.221109    11A     -1.358698    12A     -1.233650
      13A     -1.130088    14A     -1.044752    15A     -1.035253
      16A     -0.942466    17A     -0.896077    18A     -0.841448
      19A     -0.794371    20A     -0.715218    21A     -0.693816
      22A     -0.676413    23A     -0.623203    24A     -0.616502
      25A     -0.609031    26A     -0.607079    27A     -0.567845
      28A     -0.554512    29A     -0.543663    30A     -0.541401
      31A     -0.507268    32A     -0.496353    33A     -0.479366
      34A     -0.471604    35A     -0.416472    36A     -0.389637
      37A     -0.332382

  @DF-RHF Final Energy:  -438.77908966615746

   => Energetics <=

    Nuclear Repulsion Energy =            524.8228493165764803
    One-Electron Energy =               -1636.5213446964003197
    Two-Electron Energy =                 672.9194057136662650
    Total Energy =                       -438.7790896661574607
  Basis Set: (AUG-CC-PVTZ AUX)
    Blend: AUG-CC-PVTZ-RI
    Molecular point group: c1

    Geometry (in Angstrom), charge = 0, multiplicity = 1:

       Center              X                  Y                   Z               Mass
    ------------   -----------------  -----------------  -----------------  -----------------
         O            0.185097176879     2.221563599666    -0.000011650256    15.994914619570
         N           -0.219123823121    -0.060849400334    -0.000003650256    14.003074004430
         C           -1.674753823121     0.197628599666    -0.000005650256    12.000000000000
         C           -2.316143823121    -0.342179400334     1.272624349744    12.000000000000
         C           -2.316151823121    -0.342226400334    -1.272611650256    12.000000000000
         C            0.640526176879     1.067756599666    -0.000006650256    12.000000000000
         C            0.307650576879    -1.537398600334     0.000006649744    12.000000000000
         C            2.047108176879     0.731191599666    -0.000004650256    12.000000000000
         C            1.576665176879    -1.639232400334     0.000009349744    12.000000000000
         C            2.497631176879    -0.561014400334     0.000003349744    12.000000000000
         H           -1.740574823121     1.287261599666    -0.000024650256     1.007825032230
         H           -3.371007823121    -0.053215400334     1.304931349744     1.007825032230
         H           -2.266756823121    -1.434474400334     1.319881349744     1.007825032230
         H           -1.818483823121     0.068420599666     2.154874349744     1.007825032230
         H           -1.818492823121     0.068334599666    -2.154880650256     1.007825032230
         H           -3.371013823121    -0.053254400334    -1.304925650256     1.007825032230
         H           -2.266775823121    -1.434522400334    -1.319825650256     1.007825032230
         H           -0.520177823121    -2.123206400334     0.000010349744     1.007825032230
         H            2.729376176879     1.575299599666    -0.000008650256     1.007825032230
         H            1.904570176879    -2.672523400334     0.000017349744     1.007825032230
         H            3.566958176879    -0.760775400334     0.000006349744     1.007825032230

  Basis Set: AUG-CC-PVTZ
    Blend: AUG-CC-PVTZ
  Basis Set: (AUG-CC-PVTZ AUX)
    Blend: AUG-CC-PVTZ-JKFIT
	 Reference Energy          =    -438.7790896661574607 [Eh]
	 Singles Energy            =      -0.0000000000000000 [Eh]
	 Same-Spin Energy          =      -0.4661395828996377 [Eh]
	 Opposite-Spin Energy      =      -1.4991774630838948 [Eh]
	 Correlation Energy        =      -1.9653170459835325 [Eh]
	 Total Energy              =    -440.7444067121409716 [Eh]

	 ================> DF-SCS-MP2 Energies <==================
	-----------------------------------------------------------
	 SCS Same-Spin Scale       =       0.3333333333333333 [-]
	 SCS Opposite-Spin Scale   =       1.2000000000000000 [-]
	 SCS Same-Spin Energy      =      -0.1553798609665459 [Eh]
	 SCS Opposite-Spin Energy  =      -1.7990129557006738 [Eh]
	 SCS Correlation Energy    =      -1.9543928166672198 [Eh]
	 SCS Total Energy          =    -440.7334824828246838 [Eh]
	-----------------------------------------------------------

  Dipole Moment: [D]
     X:    -0.0499      Y:    -4.1273      Z:     0.0000     Total:     4.1276

*** Psi4 exiting successfully. Buy a developer a beer!
