                               Psi4 1.4a3.dev225

  ==> Input File <==

--------------------------------------------------------------------------
#psi4
#
memory 32 gb

molecule  {
0 1
  O        0.2506850     2.2433030    -0.0000120
  N       -0.1493156     0.0309806     0.1378951
  C       -1.6091660     0.2193680    -0.0000060
  C       -2.2505560    -0.3204400     1.2726240
  C       -2.2505640    -0.3204870    -1.2726120
  C        0.7061140     1.0894960    -0.0000070
  C        0.3060350    -1.3272880     0.0000050
  C        2.1126960     0.7529310    -0.0000050
  C        1.6422530    -1.6174930     0.0000090
  C        2.5632190    -0.5392750     0.0000030
  H       -1.6749870     1.3090010    -0.0000250
  H       -3.3054200    -0.0314760     1.3049310
  H       -2.2011690    -1.4127350     1.3198810
  H       -1.7528960     0.0901600     2.1548740
  H       -1.7529050     0.0900740    -2.1548810
  H       -3.3054260    -0.0315150    -1.3049260
  H       -2.2011880    -1.4127830    -1.3198260
  H       -0.4545900    -2.1014670     0.0000100
  H        2.7949640     1.5970390    -0.0000090
  H        1.9701580    -2.6507840     0.0000170
  H        3.6325460    -0.7390360     0.0000060
units angstrom
no_reorient  #important for SAPT in psi4, default
symmetry c1  #important for SAPT in psi4, default
}

set PROPERTIES_ORIGIN ["COM"]
properties('MP2/aug-cc-pvtz', properties = ['dipole'])
--------------------------------------------------------------------------

    Molecular point group: c1
  Charge       = 0
  Multiplicity = 1
  Basis Set: AUG-CC-PVTZ
    Blend: AUG-CC-PVTZ
  Basis Set: (AUG-CC-PVTZ AUX)
    Blend: AUG-CC-PVTZ-JKFIT

    Orbital Energies [Eh]
    ---------------------

    Doubly Occupied:

       1A    -20.498290     2A    -15.618168     3A    -11.342986
       4A    -11.308373     5A    -11.271785     6A    -11.270049
       7A    -11.245870     8A    -11.239657     9A    -11.230979
      10A    -11.224651    11A     -1.367734    12A     -1.264151
      13A     -1.124085    14A     -1.050733    15A     -1.024189
      16A     -0.949524    17A     -0.893993    18A     -0.854064
      19A     -0.800108    20A     -0.709055    21A     -0.702680
      22A     -0.657950    23A     -0.634562    24A     -0.625580
      25A     -0.614010    26A     -0.603493    27A     -0.563160
      28A     -0.560780    29A     -0.547740    30A     -0.546102
      31A     -0.519520    32A     -0.500559    33A     -0.485838
      34A     -0.466874    35A     -0.415625    36A     -0.404712
      37A     -0.314034

  @DF-RHF Final Energy:  -438.80801771110083

   => Energetics <=

    Nuclear Repulsion Energy =            527.7622700067323649
    One-Electron Energy =               -1642.2372503495262208
    Two-Electron Energy =                 675.6669626316931954
    Total Energy =                       -438.8080177111007742
  Basis Set: (AUG-CC-PVTZ AUX)
    Blend: AUG-CC-PVTZ-RI
    Molecular point group: c1

    Geometry (in Angstrom), charge = 0, multiplicity = 1:

       Center              X                  Y                   Z               Mass
    ------------   -----------------  -----------------  -----------------  -----------------
         O            0.190548884428     2.197914328082    -0.014097866016    15.994914619570
         N           -0.209451715572    -0.014408071918     0.123809233984    14.003074004430
         C           -1.669302115572     0.173979328082    -0.014091866016    12.000000000000
         C           -2.310692115572    -0.365828671918     1.258538133984    12.000000000000
         C           -2.310700115572    -0.365875671918    -1.286697866016    12.000000000000
         C            0.645977884428     1.044107328082    -0.014092866016    12.000000000000
         C            0.245898884428    -1.372676671918    -0.014080866016    12.000000000000
         C            2.052559884428     0.707542328082    -0.014090866016    12.000000000000
         C            1.582116884428    -1.662881671918    -0.014076866016    12.000000000000
         C            2.503082884428    -0.584663671918    -0.014082866016    12.000000000000
         H           -1.735123115572     1.263612328082    -0.014110866016     1.007825032230
         H           -3.365556115572    -0.076864671918     1.290845133984     1.007825032230
         H           -2.261305115572    -1.458123671918     1.305795133984     1.007825032230
         H           -1.813032115572     0.044771328082     2.140788133984     1.007825032230
         H           -1.813041115572     0.044685328082    -2.168966866016     1.007825032230
         H           -3.365562115572    -0.076903671918    -1.319011866016     1.007825032230
         H           -2.261324115572    -1.458171671918    -1.333911866016     1.007825032230
         H           -0.514726115572    -2.146855671918    -0.014075866016     1.007825032230
         H            2.734827884428     1.551650328082    -0.014094866016     1.007825032230
         H            1.910021884428    -2.696172671918    -0.014068866016     1.007825032230
         H            3.572409884428    -0.784424671918    -0.014079866016     1.007825032230

  Basis Set: AUG-CC-PVTZ
    Blend: AUG-CC-PVTZ
  Basis Set: (AUG-CC-PVTZ AUX)
    Blend: AUG-CC-PVTZ-JKFIT
	 Reference Energy          =    -438.8080177111008311 [Eh]
	 Singles Energy            =      -0.0000000000000000 [Eh]
	 Same-Spin Energy          =      -0.4670822102856113 [Eh]
	 Opposite-Spin Energy      =      -1.4976222054311314 [Eh]
	 Correlation Energy        =      -1.9647044157167426 [Eh]
	 Total Energy              =    -440.7727221268175981 [Eh]

	 ================> DF-SCS-MP2 Energies <==================
	-----------------------------------------------------------
	 SCS Same-Spin Scale       =       0.3333333333333333 [-]
	 SCS Opposite-Spin Scale   =       1.2000000000000000 [-]
	 SCS Same-Spin Energy      =      -0.1556940700952038 [Eh]
	 SCS Opposite-Spin Energy  =      -1.7971466465173578 [Eh]
	 SCS Correlation Energy    =      -1.9528407166125614 [Eh]
	 SCS Total Energy          =    -440.7608584277134014 [Eh]
	-----------------------------------------------------------

  Dipole Moment: [D]
     X:    -0.4501      Y:    -4.0939      Z:    -0.1328     Total:     4.1207

*** Psi4 exiting successfully. Buy a developer a beer!
