                               Psi4 1.4a3.dev225

  ==> Input File <==

--------------------------------------------------------------------------
#psi4
#
memory 32 gb

molecule  {
0 1
  O        0.2506850     2.2433030    -0.0000120
  N       -0.1652194    -0.0843065     0.0920239
  C       -1.6091660     0.2193680    -0.0000060
  C       -2.2505560    -0.3204400     1.2726240
  C       -2.2505640    -0.3204870    -1.2726120
  C        0.7061140     1.0894960    -0.0000070
  C        0.3060350    -1.3272880     0.0000050
  C        2.1126960     0.7529310    -0.0000050
  C        1.6422530    -1.6174930     0.0000090
  C        2.5632190    -0.5392750     0.0000030
  H       -1.6749870     1.3090010    -0.0000250
  H       -3.3054200    -0.0314760     1.3049310
  H       -2.2011690    -1.4127350     1.3198810
  H       -1.7528960     0.0901600     2.1548740
  H       -1.7529050     0.0900740    -2.1548810
  H       -3.3054260    -0.0315150    -1.3049260
  H       -2.2011880    -1.4127830    -1.3198260
  H       -0.4545900    -2.1014670     0.0000100
  H        2.7949640     1.5970390    -0.0000090
  H        1.9701580    -2.6507840     0.0000170
  H        3.6325460    -0.7390360     0.0000060
units angstrom
no_reorient  #important for SAPT in psi4, default
symmetry c1  #important for SAPT in psi4, default
}

set PROPERTIES_ORIGIN ["COM"]
properties('MP2/aug-cc-pvtz', properties = ['dipole'])
--------------------------------------------------------------------------

    Molecular point group: c1
  Charge       = 0
  Multiplicity = 1
  Basis Set: AUG-CC-PVTZ
    Blend: AUG-CC-PVTZ
  Basis Set: (AUG-CC-PVTZ AUX)
    Blend: AUG-CC-PVTZ-JKFIT

    Orbital Energies [Eh]
    ---------------------

    Doubly Occupied:

       1A    -20.512576     2A    -15.622318     3A    -11.355586
       4A    -11.303483     5A    -11.275183     6A    -11.269098
       7A    -11.233784     8A    -11.232939     9A    -11.230913
      10A    -11.226819    11A     -1.367420    12A     -1.285024
      13A     -1.121810    14A     -1.053080    15A     -1.018077
      16A     -0.951252    17A     -0.892254    18A     -0.854118
      19A     -0.804177    20A     -0.713264    21A     -0.695600
      22A     -0.656478    23A     -0.643897    24A     -0.627593
      25A     -0.611740    26A     -0.605228    27A     -0.565662
      28A     -0.562727    29A     -0.548176    30A     -0.542204
      31A     -0.527133    32A     -0.505944    33A     -0.484914
      34A     -0.477417    35A     -0.420008    36A     -0.407817
      37A     -0.303284

  @DF-RHF Final Energy:  -438.81187308269443

   => Energetics <=

    Nuclear Repulsion Energy =            527.7067192860276919
    One-Electron Energy =               -1642.0191916218320785
    Two-Electron Energy =                 675.5005992531099537
    Total Energy =                       -438.8118730826944329
  Basis Set: (AUG-CC-PVTZ AUX)
    Blend: AUG-CC-PVTZ-RI
    Molecular point group: c1

    Geometry (in Angstrom), charge = 0, multiplicity = 1:

       Center              X                  Y                   Z               Mass
    ------------   -----------------  -----------------  -----------------  -----------------
         O            0.192173450274     2.209690852254    -0.009412144061    15.994914619570
         N           -0.223730949726    -0.117918647746     0.082623755939    14.003074004430
         C           -1.667677549726     0.185755852254    -0.009406144061    12.000000000000
         C           -2.309067549726    -0.354052147746     1.263223855939    12.000000000000
         C           -2.309075549726    -0.354099147746    -1.282012144061    12.000000000000
         C            0.647602450274     1.055883852254    -0.009407144061    12.000000000000
         C            0.247523450274    -1.360900147746    -0.009395144061    12.000000000000
         C            2.054184450274     0.719318852254    -0.009405144061    12.000000000000
         C            1.583741450274    -1.651105147746    -0.009391144061    12.000000000000
         C            2.504707450274    -0.572887147746    -0.009397144061    12.000000000000
         H           -1.733498549726     1.275388852254    -0.009425144061     1.007825032230
         H           -3.363931549726    -0.065088147746     1.295530855939     1.007825032230
         H           -2.259680549726    -1.446347147746     1.310480855939     1.007825032230
         H           -1.811407549726     0.056547852254     2.145473855939     1.007825032230
         H           -1.811416549726     0.056461852254    -2.164281144061     1.007825032230
         H           -3.363937549726    -0.065127147746    -1.314326144061     1.007825032230
         H           -2.259699549726    -1.446395147746    -1.329226144061     1.007825032230
         H           -0.513101549726    -2.135079147746    -0.009390144061     1.007825032230
         H            2.736452450274     1.563426852254    -0.009409144061     1.007825032230
         H            1.911646450274    -2.684396147746    -0.009383144061     1.007825032230
         H            3.574034450274    -0.772648147746    -0.009394144061     1.007825032230

  Basis Set: AUG-CC-PVTZ
    Blend: AUG-CC-PVTZ
  Basis Set: (AUG-CC-PVTZ AUX)
    Blend: AUG-CC-PVTZ-JKFIT
	 Reference Energy          =    -438.8118730826944329 [Eh]
	 Singles Energy            =      -0.0000000000000000 [Eh]
	 Same-Spin Energy          =      -0.4687145402580575 [Eh]
	 Opposite-Spin Energy      =      -1.4980762312884375 [Eh]
	 Correlation Energy        =      -1.9667907715464950 [Eh]
	 Total Energy              =    -440.7786638542409037 [Eh]

	 ================> DF-SCS-MP2 Energies <==================
	-----------------------------------------------------------
	 SCS Same-Spin Scale       =       0.3333333333333333 [-]
	 SCS Opposite-Spin Scale   =       1.2000000000000000 [-]
	 SCS Same-Spin Energy      =      -0.1562381800860191 [Eh]
	 SCS Opposite-Spin Energy  =      -1.7976914775461250 [Eh]
	 SCS Correlation Energy    =      -1.9539296576321441 [Eh]
	 SCS Total Energy          =    -440.7658027403265919 [Eh]
	-----------------------------------------------------------

  Dipole Moment: [D]
     X:    -0.7360      Y:    -3.6627      Z:    -0.0824     Total:     3.7368

*** Psi4 exiting successfully. Buy a developer a beer!
