                               Psi4 1.4a3.dev225

  ==> Input File <==

--------------------------------------------------------------------------
#psi4
#
memory 32 gb

molecule  {
0 1
  O        0.2506850     2.2433030    -0.0000120
  N       -0.1535360    -0.0391100    -0.0000040
  C       -1.6091660     0.2193680    -0.0000060
  C       -2.2505560    -0.3204400     1.2726240
  C       -2.2505640    -0.3204870    -1.2726120
  C        0.7061140     1.0894960    -0.0000070
  C        0.3228358    -1.3743808     0.0000053
  C        2.1126960     0.7529310    -0.0000050
  C        1.6422530    -1.6174930     0.0000090
  C        2.5632190    -0.5392750     0.0000030
  H       -1.6749870     1.3090010    -0.0000250
  H       -3.3054200    -0.0314760     1.3049310
  H       -2.2011690    -1.4127350     1.3198810
  H       -1.7528960     0.0901600     2.1548740
  H       -1.7529050     0.0900740    -2.1548810
  H       -3.3054260    -0.0315150    -1.3049260
  H       -2.2011880    -1.4127830    -1.3198260
  H       -0.4545900    -2.1014670     0.0000100
  H        2.7949640     1.5970390    -0.0000090
  H        1.9701580    -2.6507840     0.0000170
  H        3.6325460    -0.7390360     0.0000060
units angstrom
no_reorient  #important for SAPT in psi4, default
symmetry c1  #important for SAPT in psi4, default
}

set PROPERTIES_ORIGIN ["COM"]
properties('MP2/aug-cc-pvtz', properties = ['dipole'])
--------------------------------------------------------------------------

    Molecular point group: c1
  Charge       = 0
  Multiplicity = 1
  Basis Set: AUG-CC-PVTZ
    Blend: AUG-CC-PVTZ
  Basis Set: (AUG-CC-PVTZ AUX)
    Blend: AUG-CC-PVTZ-JKFIT

    Orbital Energies [Eh]
    ---------------------

    Doubly Occupied:

       1A    -20.505488     2A    -15.615985     3A    -11.349590
       4A    -11.302719     5A    -11.271082     6A    -11.270596
       7A    -11.239673     8A    -11.239310     9A    -11.226603
      10A    -11.226587    11A     -1.364044    12A     -1.264411
      13A     -1.124292    14A     -1.046821    15A     -1.028061
      16A     -0.948353    17A     -0.893197    18A     -0.850857
      19A     -0.801392    20A     -0.711466    21A     -0.698424
      22A     -0.659987    23A     -0.636189    24A     -0.622321
      25A     -0.611440    26A     -0.609069    27A     -0.564621
      28A     -0.559875    29A     -0.546038    30A     -0.544767
      31A     -0.521893    32A     -0.502331    33A     -0.484240
      34A     -0.473857    35A     -0.417750    36A     -0.402654
      37A     -0.313944

  @DF-RHF Final Energy:  -438.81511180555117

   => Energetics <=

    Nuclear Repulsion Energy =            527.0944769824062632
    One-Electron Energy =               -1640.9193228301185172
    Two-Electron Energy =                 675.0097340421611989
    Total Energy =                       -438.8151118055511688
  Basis Set: (AUG-CC-PVTZ AUX)
    Blend: AUG-CC-PVTZ-RI
    Molecular point group: c1

    Geometry (in Angstrom), charge = 0, multiplicity = 1:

       Center              X                  Y                   Z               Mass
    ------------   -----------------  -----------------  -----------------  -----------------
         O            0.189509295855     2.209196437862    -0.000011562718    15.994914619570
         N           -0.214711704145    -0.073216562138    -0.000003562718    14.003074004430
         C           -1.670341704145     0.185261437862    -0.000005562718    12.000000000000
         C           -2.311731704145    -0.354546562138     1.272624437282    12.000000000000
         C           -2.311739704145    -0.354593562138    -1.272611562718    12.000000000000
         C            0.644938295855     1.055389437862    -0.000006562718    12.000000000000
         C            0.261660095855    -1.408487362138     0.000005737282    12.000000000000
         C            2.051520295855     0.718824437862    -0.000004562718    12.000000000000
         C            1.581077295855    -1.651599562138     0.000009437282    12.000000000000
         C            2.502043295855    -0.573381562138     0.000003437282    12.000000000000
         H           -1.736162704145     1.274894437862    -0.000024562718     1.007825032230
         H           -3.366595704145    -0.065582562138     1.304931437282     1.007825032230
         H           -2.262344704145    -1.446841562138     1.319881437282     1.007825032230
         H           -1.814071704145     0.056053437862     2.154874437282     1.007825032230
         H           -1.814080704145     0.055967437862    -2.154880562718     1.007825032230
         H           -3.366601704145    -0.065621562138    -1.304925562718     1.007825032230
         H           -2.262363704145    -1.446889562138    -1.319825562718     1.007825032230
         H           -0.515765704145    -2.135573562138     0.000010437282     1.007825032230
         H            2.733788295855     1.562932437862    -0.000008562718     1.007825032230
         H            1.908982295855    -2.684890562138     0.000017437282     1.007825032230
         H            3.571370295855    -0.773142562138     0.000006437282     1.007825032230

  Basis Set: AUG-CC-PVTZ
    Blend: AUG-CC-PVTZ
  Basis Set: (AUG-CC-PVTZ AUX)
    Blend: AUG-CC-PVTZ-JKFIT
	 Reference Energy          =    -438.8151118055511688 [Eh]
	 Singles Energy            =      -0.0000000000000000 [Eh]
	 Same-Spin Energy          =      -0.4673230770501368 [Eh]
	 Opposite-Spin Energy      =      -1.4974835164519189 [Eh]
	 Correlation Energy        =      -1.9648065935020558 [Eh]
	 Total Energy              =    -440.7799183990532015 [Eh]

	 ================> DF-SCS-MP2 Energies <==================
	-----------------------------------------------------------
	 SCS Same-Spin Scale       =       0.3333333333333333 [-]
	 SCS Opposite-Spin Scale   =       1.2000000000000000 [-]
	 SCS Same-Spin Energy      =      -0.1557743590167122 [Eh]
	 SCS Opposite-Spin Energy  =      -1.7969802197423026 [Eh]
	 SCS Correlation Energy    =      -1.9527545787590148 [Eh]
	 SCS Total Energy          =    -440.7678663843101958 [Eh]
	-----------------------------------------------------------

  Dipole Moment: [D]
     X:    -0.4976      Y:    -3.9216      Z:     0.0000     Total:     3.9531

*** Psi4 exiting successfully. Buy a developer a beer!
