                               Psi4 1.4a3.dev225

  ==> Input File <==

--------------------------------------------------------------------------
#psi4
#
memory 32 gb

molecule  {
0 1
  O        0.2506850     2.2433030    -0.0000120
  N       -0.1535360    -0.0391100    -0.0000040
  C       -1.6091660     0.2193680    -0.0000060
  C       -2.2505560    -0.3204400     1.2726240
  C       -2.2505640    -0.3204870    -1.2726120
  C        0.7061140     1.0894960    -0.0000070
  C        0.3060350    -1.3272880     0.0000050
  C        2.1126960     0.7529310    -0.0000050
  C        1.6422530    -1.6174930     0.0000090
  C        2.5632190    -0.5392750     0.0000030
  H       -1.6749870     1.3090010    -0.0000250
  H       -3.3054200    -0.0314760     1.3049310
  H       -2.2011690    -1.4127350     1.3198810
  H       -1.7528960     0.0901600     2.1548740
  H       -1.7529050     0.0900740    -2.1548810
  H       -3.3054260    -0.0315150    -1.3049260
  H       -2.2011880    -1.4127830    -1.3198260
  H       -0.3845065    -2.0301347     0.0000095
  H        2.7949640     1.5970390    -0.0000090
  H        1.9701580    -2.6507840     0.0000170
  H        3.6325460    -0.7390360     0.0000060
units angstrom
no_reorient  #important for SAPT in psi4, default
symmetry c1  #important for SAPT in psi4, default
}

set PROPERTIES_ORIGIN ["COM"]
properties('MP2/aug-cc-pvtz', properties = ['dipole'])
--------------------------------------------------------------------------

    Molecular point group: c1
  Charge       = 0
  Multiplicity = 1
  Basis Set: AUG-CC-PVTZ
    Blend: AUG-CC-PVTZ
  Basis Set: (AUG-CC-PVTZ AUX)
    Blend: AUG-CC-PVTZ-JKFIT

    Orbital Energies [Eh]
    ---------------------

    Doubly Occupied:

       1A    -20.505076     2A    -15.620716     3A    -11.349466
       4A    -11.294377     5A    -11.274130     6A    -11.268526
       7A    -11.238012     8A    -11.235239     9A    -11.228973
      10A    -11.228958    11A     -1.366697    12A     -1.278019
      13A     -1.122445    14A     -1.051406    15A     -1.027026
      16A     -0.950833    17A     -0.897357    18A     -0.858473
      19A     -0.805915    20A     -0.718124    21A     -0.704460
      22A     -0.661250    23A     -0.641038    24A     -0.627938
      25A     -0.613821    26A     -0.607424    27A     -0.564899
      28A     -0.562174    29A     -0.547980    30A     -0.545179
      31A     -0.524133    32A     -0.504662    33A     -0.487915
      34A     -0.473551    35A     -0.417649    36A     -0.406327
      37A     -0.307008

  @DF-RHF Final Energy:  -438.81231639755595

   => Energetics <=

    Nuclear Repulsion Energy =            528.4570098327751566
    One-Electron Energy =               -1643.5042973878344128
    Two-Electron Energy =                 676.2349711575033098
    Total Energy =                       -438.8123163975559464
  Basis Set: (AUG-CC-PVTZ AUX)
    Blend: AUG-CC-PVTZ-RI
    Molecular point group: c1

    Geometry (in Angstrom), charge = 0, multiplicity = 1:

       Center              X                  Y                   Z               Mass
    ------------   -----------------  -----------------  -----------------  -----------------
         O            0.190464751147     2.204549624373    -0.000011532781    15.994914619570
         N           -0.213756248853    -0.077863375627    -0.000003532781    14.003074004430
         C           -1.669386248853     0.180614624373    -0.000005532781    12.000000000000
         C           -2.310776248853    -0.359193375627     1.272624467219    12.000000000000
         C           -2.310784248853    -0.359240375627    -1.272611532781    12.000000000000
         C            0.645893751147     1.050742624373    -0.000006532781    12.000000000000
         C            0.245814751147    -1.366041375627     0.000005467219    12.000000000000
         C            2.052475751147     0.714177624373    -0.000004532781    12.000000000000
         C            1.582032751147    -1.656246375627     0.000009467219    12.000000000000
         C            2.502998751147    -0.578028375627     0.000003467219    12.000000000000
         H           -1.735207248853     1.270247624373    -0.000024532781     1.007825032230
         H           -3.365640248853    -0.070229375627     1.304931467219     1.007825032230
         H           -2.261389248853    -1.451488375627     1.319881467219     1.007825032230
         H           -1.813116248853     0.051406624373     2.154874467219     1.007825032230
         H           -1.813125248853     0.051320624373    -2.154880532781     1.007825032230
         H           -3.365646248853    -0.070268375627    -1.304925532781     1.007825032230
         H           -2.261408248853    -1.451536375627    -1.319825532781     1.007825032230
         H           -0.444726748853    -2.068888075627     0.000009967219     1.007825032230
         H            2.734743751147     1.558285624373    -0.000008532781     1.007825032230
         H            1.909937751147    -2.689537375627     0.000017467219     1.007825032230
         H            3.572325751147    -0.777789375627     0.000006467219     1.007825032230

  Basis Set: AUG-CC-PVTZ
    Blend: AUG-CC-PVTZ
  Basis Set: (AUG-CC-PVTZ AUX)
    Blend: AUG-CC-PVTZ-JKFIT
	 Reference Energy          =    -438.8123163975559464 [Eh]
	 Singles Energy            =      -0.0000000000000000 [Eh]
	 Same-Spin Energy          =      -0.4676072761862951 [Eh]
	 Opposite-Spin Energy      =      -1.4966009561656133 [Eh]
	 Correlation Energy        =      -1.9642082323519083 [Eh]
	 Total Energy              =    -440.7765246299078399 [Eh]

	 ================> DF-SCS-MP2 Energies <==================
	-----------------------------------------------------------
	 SCS Same-Spin Scale       =       0.3333333333333333 [-]
	 SCS Opposite-Spin Scale   =       1.2000000000000000 [-]
	 SCS Same-Spin Energy      =      -0.1558690920620983 [Eh]
	 SCS Opposite-Spin Energy  =      -1.7959211473987360 [Eh]
	 SCS Correlation Energy    =      -1.9517902394608344 [Eh]
	 SCS Total Energy          =    -440.7641066370167664 [Eh]
	-----------------------------------------------------------

  Dipole Moment: [D]
     X:    -0.6710      Y:    -3.8801      Z:     0.0000     Total:     3.9377

*** Psi4 exiting successfully. Buy a developer a beer!
