                               Psi4 1.4a3.dev225

  ==> Input File <==

--------------------------------------------------------------------------
#psi4
#
memory 32 gb

molecule  {
0 1
  O        0.2506850     2.2433030    -0.0000120
  N       -0.1535360    -0.0391100    -0.0000040
  C       -1.6091660     0.2193680    -0.0000060
  C       -2.2505560    -0.3204400     1.2726240
  C       -2.2505640    -0.3204870    -1.2726120
  C        0.7061140     1.0894960    -0.0000070
  C        0.3060350    -1.3272880     0.0000050
  C        2.1126960     0.7529310    -0.0000050
  C        1.6422530    -1.6174930     0.0000090
  C        2.5632190    -0.5392750     0.0000030
  H       -1.6749870     1.3090010    -0.0000250
  H       -3.3054200    -0.0314760     1.3049310
  H       -2.2011690    -1.4127350     1.3198810
  H       -1.7528960     0.0901600     2.1548740
  H       -1.7326500    -0.0180376    -2.1863477
  H       -3.3054260    -0.0315150    -1.3049260
  H       -2.2011880    -1.4127830    -1.3198260
  H       -0.4545900    -2.1014670     0.0000100
  H        2.7949640     1.5970390    -0.0000090
  H        1.9701580    -2.6507840     0.0000170
  H        3.6325460    -0.7390360     0.0000060
units angstrom
no_reorient  #important for SAPT in psi4, default
symmetry c1  #important for SAPT in psi4, default
}

set PROPERTIES_ORIGIN ["COM"]
properties('MP2/aug-cc-pvtz', properties = ['dipole'])
--------------------------------------------------------------------------

    Molecular point group: c1
  Charge       = 0
  Multiplicity = 1
  Basis Set: AUG-CC-PVTZ
    Blend: AUG-CC-PVTZ
  Basis Set: (AUG-CC-PVTZ AUX)
    Blend: AUG-CC-PVTZ-JKFIT

    Orbital Energies [Eh]
    ---------------------

    Doubly Occupied:

       1A    -20.505350     2A    -15.621522     3A    -11.349900
       4A    -11.305588     5A    -11.274978     6A    -11.268923
       7A    -11.238346     8A    -11.235253     9A    -11.229327
      10A    -11.228735    11A     -1.366918    12A     -1.277603
      13A     -1.122520    14A     -1.051214    15A     -1.022533
      16A     -0.950896    17A     -0.893517    18A     -0.855874
      19A     -0.804725    20A     -0.711978    21A     -0.699514
      22A     -0.656492    23A     -0.640829    24A     -0.628023
      25A     -0.612008    26A     -0.604151    27A     -0.565340
      28A     -0.557857    29A     -0.550184    30A     -0.543276
      31A     -0.525003    32A     -0.507004    33A     -0.484466
      34A     -0.473810    35A     -0.417674    36A     -0.406771
      37A     -0.307139

  @DF-RHF Final Energy:  -438.81678112941211

   => Energetics <=

    Nuclear Repulsion Energy =            527.8681068688449614
    One-Electron Energy =               -1642.3792994654868380
    Two-Electron Energy =                 675.6944114672297701
    Total Energy =                       -438.8167811294121066
  Basis Set: (AUG-CC-PVTZ AUX)
    Blend: AUG-CC-PVTZ-RI
    Molecular point group: c1

    Geometry (in Angstrom), charge = 0, multiplicity = 1:

       Center              X                  Y                   Z               Mass
    ------------   -----------------  -----------------  -----------------  -----------------
         O            0.190831084098     2.205868873665     0.000219802818    15.994914619570
         N           -0.213389915902    -0.076544126335     0.000227802818    14.003074004430
         C           -1.669019915902     0.181933873665     0.000225802818    12.000000000000
         C           -2.310409915902    -0.357874126335     1.272855802818    12.000000000000
         C           -2.310417915902    -0.357921126335    -1.272380197182    12.000000000000
         C            0.646260084098     1.052061873665     0.000224802818    12.000000000000
         C            0.246181084098    -1.364722126335     0.000236802818    12.000000000000
         C            2.052842084098     0.715496873665     0.000226802818    12.000000000000
         C            1.582399084098    -1.654927126335     0.000240802818    12.000000000000
         C            2.503365084098    -0.576709126335     0.000234802818    12.000000000000
         H           -1.734840915902     1.271566873665     0.000206802818     1.007825032230
         H           -3.365273915902    -0.068910126335     1.305162802818     1.007825032230
         H           -2.261022915902    -1.450169126335     1.320112802818     1.007825032230
         H           -1.812749915902     0.052725873665     2.155105802818     1.007825032230
         H           -1.792503915902    -0.055471726335    -2.186115897182     1.007825032230
         H           -3.365279915902    -0.068949126335    -1.304694197182     1.007825032230
         H           -2.261041915902    -1.450217126335    -1.319594197182     1.007825032230
         H           -0.514443915902    -2.138901126335     0.000241802818     1.007825032230
         H            2.735110084098     1.559604873665     0.000222802818     1.007825032230
         H            1.910304084098    -2.688218126335     0.000248802818     1.007825032230
         H            3.572692084098    -0.776470126335     0.000237802818     1.007825032230

  Basis Set: AUG-CC-PVTZ
    Blend: AUG-CC-PVTZ
  Basis Set: (AUG-CC-PVTZ AUX)
    Blend: AUG-CC-PVTZ-JKFIT
	 Reference Energy          =    -438.8167811294121066 [Eh]
	 Singles Energy            =      -0.0000000000000000 [Eh]
	 Same-Spin Energy          =      -0.4679957164922793 [Eh]
	 Opposite-Spin Energy      =      -1.4972813796079787 [Eh]
	 Correlation Energy        =      -1.9652770961002579 [Eh]
	 Total Energy              =    -440.7820582255123441 [Eh]

	 ================> DF-SCS-MP2 Energies <==================
	-----------------------------------------------------------
	 SCS Same-Spin Scale       =       0.3333333333333333 [-]
	 SCS Opposite-Spin Scale   =       1.2000000000000000 [-]
	 SCS Same-Spin Energy      =      -0.1559985721640931 [Eh]
	 SCS Opposite-Spin Energy  =      -1.7967376555295744 [Eh]
	 SCS Correlation Energy    =      -1.9527362276936675 [Eh]
	 SCS Total Energy          =    -440.7695173571057694 [Eh]
	-----------------------------------------------------------

  Dipole Moment: [D]
     X:    -0.6530      Y:    -3.8973      Z:    -0.0003     Total:     3.9517

*** Psi4 exiting successfully. Buy a developer a beer!
