                               Psi4 1.4a3.dev225

  ==> Input File <==

--------------------------------------------------------------------------
#psi4
#
memory 32 gb

molecule  {
0 1
  O        0.2506850     2.2433030    -0.0000120
  N       -0.1535360    -0.0391100    -0.0000040
  C       -1.6091660     0.2193680    -0.0000060
  C       -2.2505560    -0.3204400     1.2726240
  C       -2.2505640    -0.3204870    -1.2726120
  C        0.7061140     1.0894960    -0.0000070
  C        0.3060350    -1.3272880     0.0000050
  C        2.1126960     0.7529310    -0.0000050
  C        1.6422530    -1.6174930     0.0000090
  C        2.5502294    -0.5544826     0.0000031
  H       -1.6749870     1.3090010    -0.0000250
  H       -3.3054200    -0.0314760     1.3049310
  H       -2.2011690    -1.4127350     1.3198810
  H       -1.7528960     0.0901600     2.1548740
  H       -1.7529050     0.0900740    -2.1548810
  H       -3.3054260    -0.0315150    -1.3049260
  H       -2.2011880    -1.4127830    -1.3198260
  H       -0.4545900    -2.1014670     0.0000100
  H        2.7949640     1.5970390    -0.0000090
  H        1.9701580    -2.6507840     0.0000170
  H        3.6325460    -0.7390360     0.0000060
units angstrom
no_reorient  #important for SAPT in psi4, default
symmetry c1  #important for SAPT in psi4, default
}

set PROPERTIES_ORIGIN ["COM"]
properties('MP2/aug-cc-pvtz', properties = ['dipole'])
--------------------------------------------------------------------------

    Molecular point group: c1
  Charge       = 0
  Multiplicity = 1
  Basis Set: AUG-CC-PVTZ
    Blend: AUG-CC-PVTZ
  Basis Set: (AUG-CC-PVTZ AUX)
    Blend: AUG-CC-PVTZ-JKFIT

    Orbital Energies [Eh]
    ---------------------

    Doubly Occupied:

       1A    -20.503870     2A    -15.622796     3A    -11.348681
       4A    -11.307150     5A    -11.274549     6A    -11.269110
       7A    -11.237283     8A    -11.235191     9A    -11.229127
      10A    -11.229111    11A     -1.366266    12A     -1.278060
      13A     -1.124098    14A     -1.051548    15A     -1.022452
      16A     -0.951008    17A     -0.894888    18A     -0.854849
      19A     -0.804133    20A     -0.711974    21A     -0.700494
      22A     -0.654505    23A     -0.640269    24A     -0.628450
      25A     -0.613436    26A     -0.603736    27A     -0.562461
      28A     -0.561677    29A     -0.548084    30A     -0.546548
      31A     -0.524489    32A     -0.504713    33A     -0.487462
      34A     -0.474755    35A     -0.416373    36A     -0.406622
      37A     -0.306038

  @DF-RHF Final Energy:  -438.81686003655977

   => Energetics <=

    Nuclear Repulsion Energy =            528.1040052811191572
    One-Electron Energy =               -1642.8492177205562257
    Two-Electron Energy =                 675.9283524028774082
    Total Energy =                       -438.8168600365597740
  Basis Set: (AUG-CC-PVTZ AUX)
    Blend: AUG-CC-PVTZ-RI
    Molecular point group: c1

    Geometry (in Angstrom), charge = 0, multiplicity = 1:

       Center              X                  Y                   Z               Mass
    ------------   -----------------  -----------------  -----------------  -----------------
         O            0.192117073810     2.206405286295    -0.000011545211    15.994914619570
         N           -0.212103926190    -0.076007713705    -0.000003545211    14.003074004430
         C           -1.667733926190     0.182470286295    -0.000005545211    12.000000000000
         C           -2.309123926190    -0.357337713705     1.272624454789    12.000000000000
         C           -2.309131926190    -0.357384713705    -1.272611545211    12.000000000000
         C            0.647546073810     1.052598286295    -0.000006545211    12.000000000000
         C            0.247467073810    -1.364185713705     0.000005454789    12.000000000000
         C            2.054128073810     0.716033286295    -0.000004545211    12.000000000000
         C            1.583685073810    -1.654390713705     0.000009454789    12.000000000000
         C            2.491661473810    -0.591380313705     0.000003554789    12.000000000000
         H           -1.733554926190     1.272103286295    -0.000024545211     1.007825032230
         H           -3.363987926190    -0.068373713705     1.304931454789     1.007825032230
         H           -2.259736926190    -1.449632713705     1.319881454789     1.007825032230
         H           -1.811463926190     0.053262286295     2.154874454789     1.007825032230
         H           -1.811472926190     0.053176286295    -2.154880545211     1.007825032230
         H           -3.363993926190    -0.068412713705    -1.304925545211     1.007825032230
         H           -2.259755926190    -1.449680713705    -1.319825545211     1.007825032230
         H           -0.513157926190    -2.138364713705     0.000010454789     1.007825032230
         H            2.736396073810     1.560141286295    -0.000008545211     1.007825032230
         H            1.911590073810    -2.687681713705     0.000017454789     1.007825032230
         H            3.573978073810    -0.775933713705     0.000006454789     1.007825032230

  Basis Set: AUG-CC-PVTZ
    Blend: AUG-CC-PVTZ
  Basis Set: (AUG-CC-PVTZ AUX)
    Blend: AUG-CC-PVTZ-JKFIT
	 Reference Energy          =    -438.8168600365597740 [Eh]
	 Singles Energy            =      -0.0000000000000000 [Eh]
	 Same-Spin Energy          =      -0.4683990280567700 [Eh]
	 Opposite-Spin Energy      =      -1.4975767126840109 [Eh]
	 Correlation Energy        =      -1.9659757407407810 [Eh]
	 Total Energy              =    -440.7828357773005337 [Eh]

	 ================> DF-SCS-MP2 Energies <==================
	-----------------------------------------------------------
	 SCS Same-Spin Scale       =       0.3333333333333333 [-]
	 SCS Opposite-Spin Scale   =       1.2000000000000000 [-]
	 SCS Same-Spin Energy      =      -0.1561330093522567 [Eh]
	 SCS Opposite-Spin Energy  =      -1.7970920552208132 [Eh]
	 SCS Correlation Energy    =      -1.9532250645730698 [Eh]
	 SCS Total Energy          =    -440.7700851011328496 [Eh]
	-----------------------------------------------------------

  Dipole Moment: [D]
     X:    -0.6945      Y:    -3.9075      Z:     0.0000     Total:     3.9687

*** Psi4 exiting successfully. Buy a developer a beer!
