                               Psi4 1.4a3.dev225

  ==> Input File <==

--------------------------------------------------------------------------
#psi4
#
memory 32 gb

molecule  {
0 1
  O        0.2506850     2.2433030    -0.0000120
  N       -0.1535360    -0.0391100    -0.0000040
  C       -1.6091660     0.2193680    -0.0000060
  C       -2.2505560    -0.3204400     1.2726240
  C       -2.2505640    -0.3204870    -1.2726120
  C        0.7061140     1.0894960    -0.0000070
  C        0.3396367    -1.4214736     0.0000057
  C        2.1126960     0.7529310    -0.0000050
  C        1.6422530    -1.6174930     0.0000090
  C        2.5632190    -0.5392750     0.0000030
  H       -1.6749870     1.3090010    -0.0000250
  H       -3.3054200    -0.0314760     1.3049310
  H       -2.2011690    -1.4127350     1.3198810
  H       -1.7528960     0.0901600     2.1548740
  H       -1.7529050     0.0900740    -2.1548810
  H       -3.3054260    -0.0315150    -1.3049260
  H       -2.2011880    -1.4127830    -1.3198260
  H       -0.4545900    -2.1014670     0.0000100
  H        2.7949640     1.5970390    -0.0000090
  H        1.9701580    -2.6507840     0.0000170
  H        3.6325460    -0.7390360     0.0000060
units angstrom
no_reorient  #important for SAPT in psi4, default
symmetry c1  #important for SAPT in psi4, default
}

set PROPERTIES_ORIGIN ["COM"]
properties('MP2/aug-cc-pvtz', properties = ['dipole'])
--------------------------------------------------------------------------

    Molecular point group: c1
  Charge       = 0
  Multiplicity = 1
  Basis Set: AUG-CC-PVTZ
    Blend: AUG-CC-PVTZ
  Basis Set: (AUG-CC-PVTZ AUX)
    Blend: AUG-CC-PVTZ-JKFIT

    Orbital Energies [Eh]
    ---------------------

    Doubly Occupied:

       1A    -20.505521     2A    -15.610478     3A    -11.349082
       4A    -11.300307     5A    -11.272087     6A    -11.268192
       7A    -11.243028     8A    -11.240967     9A    -11.224630
      10A    -11.224614    11A     -1.361911    12A     -1.252689
      13A     -1.126159    14A     -1.042670    15A     -1.033659
      16A     -0.946244    17A     -0.893820    18A     -0.846692
      19A     -0.798787    20A     -0.712176    21A     -0.697035
      22A     -0.665232    23A     -0.631207    24A     -0.617316
      25A     -0.613178    26A     -0.609703    27A     -0.565194
      28A     -0.557883    29A     -0.545350    30A     -0.544348
      31A     -0.517815    32A     -0.500223    33A     -0.481014
      34A     -0.474933    35A     -0.417547    36A     -0.398375
      37A     -0.320502

  @DF-RHF Final Energy:  -438.80715902556545

   => Energetics <=

    Nuclear Repulsion Energy =            526.3083822466310266
    One-Electron Energy =               -1639.4099431828979050
    Two-Electron Energy =                 674.2944019107013673
    Total Energy =                       -438.8071590255655110
  Basis Set: (AUG-CC-PVTZ AUX)
    Blend: AUG-CC-PVTZ-RI
    Molecular point group: c1

    Geometry (in Angstrom), charge = 0, multiplicity = 1:

       Center              X                  Y                   Z               Mass
    ------------   -----------------  -----------------  -----------------  -----------------
         O            0.188038586612     2.213318825130    -0.000011597733    15.994914619570
         N           -0.216182413388    -0.069094174870    -0.000003597733    14.003074004430
         C           -1.671812413388     0.189383825130    -0.000005597733    12.000000000000
         C           -2.313202413388    -0.350424174870     1.272624402267    12.000000000000
         C           -2.313210413388    -0.350471174870    -1.272611597733    12.000000000000
         C            0.643467586612     1.059511825130    -0.000006597733    12.000000000000
         C            0.276990286612    -1.451457774870     0.000006102267    12.000000000000
         C            2.050049586612     0.722946825130    -0.000004597733    12.000000000000
         C            1.579606586612    -1.647477174870     0.000009402267    12.000000000000
         C            2.500572586612    -0.569259174870     0.000003402267    12.000000000000
         H           -1.737633413388     1.279016825130    -0.000024597733     1.007825032230
         H           -3.368066413388    -0.061460174870     1.304931402267     1.007825032230
         H           -2.263815413388    -1.442719174870     1.319881402267     1.007825032230
         H           -1.815542413388     0.060175825130     2.154874402267     1.007825032230
         H           -1.815551413388     0.060089825130    -2.154880597733     1.007825032230
         H           -3.368072413388    -0.061499174870    -1.304925597733     1.007825032230
         H           -2.263834413388    -1.442767174870    -1.319825597733     1.007825032230
         H           -0.517236413388    -2.131451174870     0.000010402267     1.007825032230
         H            2.732317586612     1.567054825130    -0.000008597733     1.007825032230
         H            1.907511586612    -2.680768174870     0.000017402267     1.007825032230
         H            3.569899586612    -0.769020174870     0.000006402267     1.007825032230

  Basis Set: AUG-CC-PVTZ
    Blend: AUG-CC-PVTZ
  Basis Set: (AUG-CC-PVTZ AUX)
    Blend: AUG-CC-PVTZ-JKFIT
	 Reference Energy          =    -438.8071590255654542 [Eh]
	 Singles Energy            =      -0.0000000000000000 [Eh]
	 Same-Spin Energy          =      -0.4667723468881673 [Eh]
	 Opposite-Spin Energy      =      -1.4978552281417743 [Eh]
	 Correlation Energy        =      -1.9646275750299416 [Eh]
	 Total Energy              =    -440.7717866005954193 [Eh]

	 ================> DF-SCS-MP2 Energies <==================
	-----------------------------------------------------------
	 SCS Same-Spin Scale       =       0.3333333333333333 [-]
	 SCS Opposite-Spin Scale   =       1.2000000000000000 [-]
	 SCS Same-Spin Energy      =      -0.1555907822960557 [Eh]
	 SCS Opposite-Spin Energy  =      -1.7974262737701292 [Eh]
	 SCS Correlation Energy    =      -1.9530170560661850 [Eh]
	 SCS Total Energy          =    -440.7601760816316414 [Eh]
	-----------------------------------------------------------

  Dipole Moment: [D]
     X:    -0.3399      Y:    -3.9814      Z:     0.0000     Total:     3.9959

*** Psi4 exiting successfully. Buy a developer a beer!
