                               Psi4 1.4a3.dev225

  ==> Input File <==

--------------------------------------------------------------------------
#psi4
#
memory 32 gb

molecule  {
0 1
  O        0.2506850     2.2433030    -0.0000120
  N       -0.1535360    -0.0391100    -0.0000040
  C       -1.6091660     0.2193680    -0.0000060
  C       -2.2505560    -0.3204400     1.2726240
  C       -2.2505640    -0.3204870    -1.2726120
  C        0.7061140     1.0894960    -0.0000070
  C        0.3060350    -1.3272880     0.0000050
  C        2.1126960     0.7529310    -0.0000050
  C        1.6422530    -1.6174930     0.0000090
  C        2.5632190    -0.5392750     0.0000030
  H       -1.6780018     1.3589100    -0.0000259
  H       -3.3054200    -0.0314760     1.3049310
  H       -2.2011690    -1.4127350     1.3198810
  H       -1.7528960     0.0901600     2.1548740
  H       -1.7529050     0.0900740    -2.1548810
  H       -3.3054260    -0.0315150    -1.3049260
  H       -2.2011880    -1.4127830    -1.3198260
  H       -0.4545900    -2.1014670     0.0000100
  H        2.7949640     1.5970390    -0.0000090
  H        1.9701580    -2.6507840     0.0000170
  H        3.6325460    -0.7390360     0.0000060
units angstrom
no_reorient  #important for SAPT in psi4, default
symmetry c1  #important for SAPT in psi4, default
}

set PROPERTIES_ORIGIN ["COM"]
properties('MP2/aug-cc-pvtz', properties = ['dipole'])
--------------------------------------------------------------------------

    Molecular point group: c1
  Charge       = 0
  Multiplicity = 1
  Basis Set: AUG-CC-PVTZ
    Blend: AUG-CC-PVTZ
  Basis Set: (AUG-CC-PVTZ AUX)
    Blend: AUG-CC-PVTZ-JKFIT

    Orbital Energies [Eh]
    ---------------------

    Doubly Occupied:

       1A    -20.505526     2A    -15.621797     3A    -11.350056
       4A    -11.305821     5A    -11.278741     6A    -11.269037
       7A    -11.238450     8A    -11.235360     9A    -11.228735
      10A    -11.228719    11A     -1.367082    12A     -1.277594
      13A     -1.121900    14A     -1.050027    15A     -1.022637
      16A     -0.950498    17A     -0.892397    18A     -0.856004
      19A     -0.800512    20A     -0.709562    21A     -0.699419
      22A     -0.655045    23A     -0.639620    24A     -0.628170
      25A     -0.611853    26A     -0.604224    27A     -0.564479
      28A     -0.561920    29A     -0.547838    30A     -0.543770
      31A     -0.523836    32A     -0.504574    33A     -0.481219
      34A     -0.473922    35A     -0.416658    36A     -0.406725
      37A     -0.307285

  @DF-RHF Final Energy:  -438.81537914385535

   => Energetics <=

    Nuclear Repulsion Energy =            527.6819771632643779
    One-Electron Energy =               -1642.0326938174982843
    Two-Electron Energy =                 675.5353375103786675
    Total Energy =                       -438.8153791438553526
  Basis Set: (AUG-CC-PVTZ AUX)
    Blend: AUG-CC-PVTZ-RI
    Molecular point group: c1

    Geometry (in Angstrom), charge = 0, multiplicity = 1:

       Center              X                  Y                   Z               Mass
    ------------   -----------------  -----------------  -----------------  -----------------
         O            0.191002160780     2.204707125817    -0.000011529840    15.994914619570
         N           -0.213218839220    -0.077705874183    -0.000003529840    14.003074004430
         C           -1.668848839220     0.180772125817    -0.000005529840    12.000000000000
         C           -2.310238839220    -0.359035874183     1.272624470160    12.000000000000
         C           -2.310246839220    -0.359082874183    -1.272611529840    12.000000000000
         C            0.646431160780     1.050900125817    -0.000006529840    12.000000000000
         C            0.246352160780    -1.365883874183     0.000005470160    12.000000000000
         C            2.053013160780     0.714335125817    -0.000004529840    12.000000000000
         C            1.582570160780    -1.656088874183     0.000009470160    12.000000000000
         C            2.503536160780    -0.577870874183     0.000003470160    12.000000000000
         H           -1.737684639220     1.320314125817    -0.000025429840     1.007825032230
         H           -3.365102839220    -0.070071874183     1.304931470160     1.007825032230
         H           -2.260851839220    -1.451330874183     1.319881470160     1.007825032230
         H           -1.812578839220     0.051564125817     2.154874470160     1.007825032230
         H           -1.812587839220     0.051478125817    -2.154880529840     1.007825032230
         H           -3.365108839220    -0.070110874183    -1.304925529840     1.007825032230
         H           -2.260870839220    -1.451378874183    -1.319825529840     1.007825032230
         H           -0.514272839220    -2.140062874183     0.000010470160     1.007825032230
         H            2.735281160780     1.558443125817    -0.000008529840     1.007825032230
         H            1.910475160780    -2.689379874183     0.000017470160     1.007825032230
         H            3.572863160780    -0.777631874183     0.000006470160     1.007825032230

  Basis Set: AUG-CC-PVTZ
    Blend: AUG-CC-PVTZ
  Basis Set: (AUG-CC-PVTZ AUX)
    Blend: AUG-CC-PVTZ-JKFIT
	 Reference Energy          =    -438.8153791438553526 [Eh]
	 Singles Energy            =      -0.0000000000000000 [Eh]
	 Same-Spin Energy          =      -0.4682380253392765 [Eh]
	 Opposite-Spin Energy      =      -1.4979097782233666 [Eh]
	 Correlation Energy        =      -1.9661478035626430 [Eh]
	 Total Energy              =    -440.7815269474180013 [Eh]

	 ================> DF-SCS-MP2 Energies <==================
	-----------------------------------------------------------
	 SCS Same-Spin Scale       =       0.3333333333333333 [-]
	 SCS Opposite-Spin Scale   =       1.2000000000000000 [-]
	 SCS Same-Spin Energy      =      -0.1560793417797588 [Eh]
	 SCS Opposite-Spin Energy  =      -1.7974917338680398 [Eh]
	 SCS Correlation Energy    =      -1.9535710756477986 [Eh]
	 SCS Total Energy          =    -440.7689502195031537 [Eh]
	-----------------------------------------------------------

  Dipole Moment: [D]
     X:    -0.6426      Y:    -3.8551      Z:     0.0000     Total:     3.9083

*** Psi4 exiting successfully. Buy a developer a beer!
