                               Psi4 1.4a3.dev225

  ==> Input File <==

--------------------------------------------------------------------------
#psi4
#
memory 32 gb

molecule  {
0 1
  O        0.2506850     2.2433030    -0.0000120
  N       -0.1535360    -0.0391100    -0.0000040
  C       -1.6091660     0.2193680    -0.0000060
  C       -2.2505560    -0.3204400     1.2726240
  C       -2.2505640    -0.3204870    -1.2726120
  C        0.7061140     1.0894960    -0.0000070
  C        0.3060350    -1.3272880     0.0000050
  C        2.1126960     0.7529310    -0.0000050
  C        1.6422530    -1.6174930     0.0000090
  C        2.5632190    -0.5392750     0.0000030
  H       -1.6749870     1.3090010    -0.0000250
  H       -3.3054200    -0.0314760     1.3049310
  H       -2.2011690    -1.4127350     1.3198810
  H       -1.7528960     0.0901600     2.1548740
  H       -1.7529050     0.0900740    -2.1548810
  H       -3.3054260    -0.0315150    -1.3049260
  H       -2.2011880    -1.4127830    -1.3198260
  H       -0.4405733    -2.0872005     0.0000099
  H        2.7949640     1.5970390    -0.0000090
  H        1.9701580    -2.6507840     0.0000170
  H        3.6325460    -0.7390360     0.0000060
units angstrom
no_reorient  #important for SAPT in psi4, default
symmetry c1  #important for SAPT in psi4, default
}

set PROPERTIES_ORIGIN ["COM"]
properties('MP2/aug-cc-pvtz', properties = ['dipole'])
--------------------------------------------------------------------------

    Molecular point group: c1
  Charge       = 0
  Multiplicity = 1
  Basis Set: AUG-CC-PVTZ
    Blend: AUG-CC-PVTZ
  Basis Set: (AUG-CC-PVTZ AUX)
    Blend: AUG-CC-PVTZ-JKFIT

    Orbital Energies [Eh]
    ---------------------

    Doubly Occupied:

       1A    -20.505350     2A    -15.621306     3A    -11.349844
       4A    -11.303427     5A    -11.274167     6A    -11.268836
       7A    -11.238239     8A    -11.235227     9A    -11.228813
      10A    -11.228797    11A     -1.366922    12A     -1.277653
      13A     -1.122499    14A     -1.051280    15A     -1.023276
      16A     -0.950698    17A     -0.893921    18A     -0.856351
      19A     -0.804234    20A     -0.712227    21A     -0.700804
      22A     -0.656750    23A     -0.640918    24A     -0.628102
      25A     -0.613107    26A     -0.605118    27A     -0.564543
      28A     -0.562138    29A     -0.547946    30A     -0.544145
      31A     -0.524287    32A     -0.504610    33A     -0.487064
      34A     -0.473720    35A     -0.417723    36A     -0.406557
      37A     -0.307106

  @DF-RHF Final Energy:  -438.81817154398027

   => Energetics <=

    Nuclear Repulsion Energy =            528.0210651585384767
    One-Electron Energy =               -1642.6830637978775940
    Two-Electron Energy =                 675.8438270953588471
    Total Energy =                       -438.8181715439802701
  Basis Set: (AUG-CC-PVTZ AUX)
    Blend: AUG-CC-PVTZ-RI
    Molecular point group: c1

    Geometry (in Angstrom), charge = 0, multiplicity = 1:

       Center              X                  Y                   Z               Mass
    ------------   -----------------  -----------------  -----------------  -----------------
         O            0.190876947305     2.204969165056    -0.000011535722    15.994914619570
         N           -0.213344052695    -0.077443834944    -0.000003535722    14.003074004430
         C           -1.668974052695     0.181034165056    -0.000005535722    12.000000000000
         C           -2.310364052695    -0.358773834944     1.272624464278    12.000000000000
         C           -2.310372052695    -0.358820834944    -1.272611535722    12.000000000000
         C            0.646305947305     1.051162165056    -0.000006535722    12.000000000000
         C            0.246226947305    -1.365621834944     0.000005464278    12.000000000000
         C            2.052887947305     0.714597165056    -0.000004535722    12.000000000000
         C            1.582444947305    -1.655826834944     0.000009464278    12.000000000000
         C            2.503410947305    -0.577608834944     0.000003464278    12.000000000000
         H           -1.734795052695     1.270667165056    -0.000024535722     1.007825032230
         H           -3.365228052695    -0.069809834944     1.304931464278     1.007825032230
         H           -2.260977052695    -1.451068834944     1.319881464278     1.007825032230
         H           -1.812704052695     0.051826165056     2.154874464278     1.007825032230
         H           -1.812713052695     0.051740165056    -2.154880535722     1.007825032230
         H           -3.365234052695    -0.069848834944    -1.304925535722     1.007825032230
         H           -2.260996052695    -1.451116834944    -1.319825535722     1.007825032230
         H           -0.500381352695    -2.125534334944     0.000010364278     1.007825032230
         H            2.735155947305     1.558705165056    -0.000008535722     1.007825032230
         H            1.910349947305    -2.689117834944     0.000017464278     1.007825032230
         H            3.572737947305    -0.777369834944     0.000006464278     1.007825032230

  Basis Set: AUG-CC-PVTZ
    Blend: AUG-CC-PVTZ
  Basis Set: (AUG-CC-PVTZ AUX)
    Blend: AUG-CC-PVTZ-JKFIT
	 Reference Energy          =    -438.8181715439802701 [Eh]
	 Singles Energy            =      -0.0000000000000000 [Eh]
	 Same-Spin Energy          =      -0.4678842841852478 [Eh]
	 Opposite-Spin Energy      =      -1.4971026907471259 [Eh]
	 Correlation Energy        =      -1.9649869749323736 [Eh]
	 Total Energy              =    -440.7831585189126713 [Eh]

	 ================> DF-SCS-MP2 Energies <==================
	-----------------------------------------------------------
	 SCS Same-Spin Scale       =       0.3333333333333333 [-]
	 SCS Opposite-Spin Scale   =       1.2000000000000000 [-]
	 SCS Same-Spin Energy      =      -0.1559614280617493 [Eh]
	 SCS Opposite-Spin Energy  =      -1.7965232288965509 [Eh]
	 SCS Correlation Energy    =      -1.9524846569583001 [Eh]
	 SCS Total Energy          =    -440.7706562009385607 [Eh]
	-----------------------------------------------------------

  Dipole Moment: [D]
     X:    -0.6674      Y:    -3.8725      Z:     0.0000     Total:     3.9296

*** Psi4 exiting successfully. Buy a developer a beer!
