                               Psi4 1.4a3.dev225

  ==> Input File <==

--------------------------------------------------------------------------
#psi4
#
memory 32 gb

molecule  {
0 1
  O        0.2506850     2.2433030    -0.0000120
  N       -0.1535360    -0.0391100    -0.0000040
  C       -1.6091660     0.2193680    -0.0000060
  C       -2.2505560    -0.3204400     1.2726240
  C       -2.2505640    -0.3204870    -1.2726120
  C        0.7061140     1.0894960    -0.0000070
  C        0.3060350    -1.3272880     0.0000050
  C        2.0932451     0.7575852    -0.0000050
  C        1.6422530    -1.6174930     0.0000090
  C        2.5632190    -0.5392750     0.0000030
  H       -1.6749870     1.3090010    -0.0000250
  H       -3.3054200    -0.0314760     1.3049310
  H       -2.2011690    -1.4127350     1.3198810
  H       -1.7528960     0.0901600     2.1548740
  H       -1.7529050     0.0900740    -2.1548810
  H       -3.3054260    -0.0315150    -1.3049260
  H       -2.2011880    -1.4127830    -1.3198260
  H       -0.4545900    -2.1014670     0.0000100
  H        2.7949640     1.5970390    -0.0000090
  H        1.9701580    -2.6507840     0.0000170
  H        3.6325460    -0.7390360     0.0000060
units angstrom
no_reorient  #important for SAPT in psi4, default
symmetry c1  #important for SAPT in psi4, default
}

set PROPERTIES_ORIGIN ["COM"]
properties('MP2/aug-cc-pvtz', properties = ['dipole'])
--------------------------------------------------------------------------

    Molecular point group: c1
  Charge       = 0
  Multiplicity = 1
  Basis Set: AUG-CC-PVTZ
    Blend: AUG-CC-PVTZ
  Basis Set: (AUG-CC-PVTZ AUX)
    Blend: AUG-CC-PVTZ-JKFIT

    Orbital Energies [Eh]
    ---------------------

    Doubly Occupied:

       1A    -20.503110     2A    -15.622135     3A    -11.347400
       4A    -11.306462     5A    -11.274197     6A    -11.271562
       7A    -11.238850     8A    -11.234775     9A    -11.228860
      10A    -11.228844    11A     -1.366367    12A     -1.277563
      13A     -1.122508    14A     -1.050749    15A     -1.023922
      16A     -0.950736    17A     -0.895349    18A     -0.855372
      19A     -0.804552    20A     -0.711734    21A     -0.699999
      22A     -0.655630    23A     -0.639660    24A     -0.628444
      25A     -0.612968    26A     -0.604435    27A     -0.565202
      28A     -0.562308    29A     -0.548168    30A     -0.541034
      31A     -0.524292    32A     -0.504685    33A     -0.486755
      34A     -0.473420    35A     -0.417595    36A     -0.405230
      37A     -0.307141

  @DF-RHF Final Energy:  -438.81683004691308

   => Energetics <=

    Nuclear Repulsion Energy =            528.1975824278175651
    One-Electron Energy =               -1643.0447998604763598
    Two-Electron Energy =                 676.0303873857458257
    Total Energy =                       -438.8168300469130827
  Basis Set: (AUG-CC-PVTZ AUX)
    Blend: AUG-CC-PVTZ-RI
    Molecular point group: c1

    Geometry (in Angstrom), charge = 0, multiplicity = 1:

       Center              X                  Y                   Z               Mass
    ------------   -----------------  -----------------  -----------------  -----------------
         O            0.192682680036     2.204666633434    -0.000011536457    15.994914619570
         N           -0.211538319964    -0.077746366566    -0.000003536457    14.003074004430
         C           -1.667168319964     0.180731633434    -0.000005536457    12.000000000000
         C           -2.308558319964    -0.359076366566     1.272624463543    12.000000000000
         C           -2.308566319964    -0.359123366566    -1.272611536457    12.000000000000
         C            0.648111680036     1.050859633434    -0.000006536457    12.000000000000
         C            0.248032680036    -1.365924366566     0.000005463543    12.000000000000
         C            2.035242780036     0.718948833434    -0.000004536457    12.000000000000
         C            1.584250680036    -1.656129366566     0.000009463543    12.000000000000
         C            2.505216680036    -0.577911366566     0.000003463543    12.000000000000
         H           -1.732989319964     1.270364633434    -0.000024536457     1.007825032230
         H           -3.363422319964    -0.070112366566     1.304931463543     1.007825032230
         H           -2.259171319964    -1.451371366566     1.319881463543     1.007825032230
         H           -1.810898319964     0.051523633434     2.154874463543     1.007825032230
         H           -1.810907319964     0.051437633434    -2.154880536457     1.007825032230
         H           -3.363428319964    -0.070151366566    -1.304925536457     1.007825032230
         H           -2.259190319964    -1.451419366566    -1.319825536457     1.007825032230
         H           -0.512592319964    -2.140103366566     0.000010463543     1.007825032230
         H            2.736961680036     1.558402633434    -0.000008536457     1.007825032230
         H            1.912155680036    -2.689420366566     0.000017463543     1.007825032230
         H            3.574543680036    -0.777672366566     0.000006463543     1.007825032230

  Basis Set: AUG-CC-PVTZ
    Blend: AUG-CC-PVTZ
  Basis Set: (AUG-CC-PVTZ AUX)
    Blend: AUG-CC-PVTZ-JKFIT
	 Reference Energy          =    -438.8168300469130827 [Eh]
	 Singles Energy            =      -0.0000000000000000 [Eh]
	 Same-Spin Energy          =      -0.4683956837480462 [Eh]
	 Opposite-Spin Energy      =      -1.4976682433940736 [Eh]
	 Correlation Energy        =      -1.9660639271421196 [Eh]
	 Total Energy              =    -440.7828939740551846 [Eh]

	 ================> DF-SCS-MP2 Energies <==================
	-----------------------------------------------------------
	 SCS Same-Spin Scale       =       0.3333333333333333 [-]
	 SCS Opposite-Spin Scale   =       1.2000000000000000 [-]
	 SCS Same-Spin Energy      =      -0.1561318945826821 [Eh]
	 SCS Opposite-Spin Energy  =      -1.7972018920728883 [Eh]
	 SCS Correlation Energy    =      -1.9533337866555702 [Eh]
	 SCS Total Energy          =    -440.7701638335686312 [Eh]
	-----------------------------------------------------------

  Dipole Moment: [D]
     X:    -0.6524      Y:    -3.9262      Z:     0.0000     Total:     3.9801

*** Psi4 exiting successfully. Buy a developer a beer!
