                               Psi4 1.4a3.dev225

  ==> Input File <==

--------------------------------------------------------------------------
#psi4
#
memory 32 gb

molecule  {
0 1
  O        0.2506850     2.2433030    -0.0000120
  N       -0.1535360    -0.0391100    -0.0000040
  C       -1.6091660     0.2193680    -0.0000060
  C       -2.2505560    -0.3204400     1.2726240
  C       -2.2505640    -0.3204870    -1.2726120
  C        0.7061140     1.0894960    -0.0000070
  C        0.3060350    -1.3272880     0.0000050
  C        2.1126960     0.7529310    -0.0000050
  C        1.6422530    -1.6174930     0.0000090
  C        2.5632190    -0.5392750     0.0000030
  H       -1.6749870     1.3090010    -0.0000250
  H       -3.3054200    -0.0314760     1.3049310
  H       -2.2011690    -1.4127350     1.3198810
  H       -1.7301300     0.1089434     2.1952335
  H       -1.7529050     0.0900740    -2.1548810
  H       -3.3054260    -0.0315150    -1.3049260
  H       -2.2011880    -1.4127830    -1.3198260
  H       -0.4545900    -2.1014670     0.0000100
  H        2.7949640     1.5970390    -0.0000090
  H        1.9701580    -2.6507840     0.0000170
  H        3.6325460    -0.7390360     0.0000060
units angstrom
no_reorient  #important for SAPT in psi4, default
symmetry c1  #important for SAPT in psi4, default
}

set PROPERTIES_ORIGIN ["COM"]
properties('MP2/aug-cc-pvtz', properties = ['dipole'])
--------------------------------------------------------------------------

    Molecular point group: c1
  Charge       = 0
  Multiplicity = 1
  Basis Set: AUG-CC-PVTZ
    Blend: AUG-CC-PVTZ
  Basis Set: (AUG-CC-PVTZ AUX)
    Blend: AUG-CC-PVTZ-JKFIT

    Orbital Energies [Eh]
    ---------------------

    Doubly Occupied:

       1A    -20.505418     2A    -15.621478     3A    -11.349947
       4A    -11.305653     5A    -11.274675     6A    -11.268917
       7A    -11.238323     8A    -11.235231     9A    -11.234649
      10A    -11.229237    11A     -1.366976    12A     -1.277601
      13A     -1.122458    14A     -1.050816    15A     -1.022509
      16A     -0.947903    17A     -0.893021    18A     -0.855750
      19A     -0.803350    20A     -0.711491    21A     -0.699450
      22A     -0.654868    23A     -0.641011    24A     -0.628285
      25A     -0.609350    26A     -0.604169    27A     -0.564486
      28A     -0.561269    29A     -0.547653    30A     -0.543387
      31A     -0.524424    32A     -0.501320    33A     -0.486499
      34A     -0.473643    35A     -0.417758    36A     -0.406704
      37A     -0.307139

  @DF-RHF Final Energy:  -438.81586459286626

   => Energetics <=

    Nuclear Repulsion Energy =            527.7142050801609230
    One-Electron Energy =               -1642.0864959217060459
    Two-Electron Energy =                 675.5564262486789175
    Total Energy =                       -438.8158645928663191
  Basis Set: (AUG-CC-PVTZ AUX)
    Blend: AUG-CC-PVTZ-RI
    Molecular point group: c1

    Geometry (in Angstrom), charge = 0, multiplicity = 1:

       Center              X                  Y                   Z               Mass
    ------------   -----------------  -----------------  -----------------  -----------------
         O            0.190812623537     2.204935957367    -0.000308254494    15.994914619570
         N           -0.213408376463    -0.077477042633    -0.000300254494    14.003074004430
         C           -1.669038376463     0.181000957367    -0.000302254494    12.000000000000
         C           -2.310428376463    -0.358807042633     1.272327745506    12.000000000000
         C           -2.310436376463    -0.358854042633    -1.272908254494    12.000000000000
         C            0.646241623537     1.051128957367    -0.000303254494    12.000000000000
         C            0.246162623537    -1.365655042633    -0.000291254494    12.000000000000
         C            2.052823623537     0.714563957367    -0.000301254494    12.000000000000
         C            1.582380623537    -1.655860042633    -0.000287254494    12.000000000000
         C            2.503346623537    -0.577642042633    -0.000293254494    12.000000000000
         H           -1.734859376463     1.270633957367    -0.000321254494     1.007825032230
         H           -3.365292376463    -0.069843042633     1.304634745506     1.007825032230
         H           -2.261041376463    -1.451102042633     1.319584745506     1.007825032230
         H           -1.790002376463     0.070576357367     2.194937245506     1.007825032230
         H           -1.812777376463     0.051706957367    -2.155177254494     1.007825032230
         H           -3.365298376463    -0.069882042633    -1.305222254494     1.007825032230
         H           -2.261060376463    -1.451150042633    -1.320122254494     1.007825032230
         H           -0.514462376463    -2.139834042633    -0.000286254494     1.007825032230
         H            2.735091623537     1.558671957367    -0.000305254494     1.007825032230
         H            1.910285623537    -2.689151042633    -0.000279254494     1.007825032230
         H            3.572673623537    -0.777403042633    -0.000290254494     1.007825032230

  Basis Set: AUG-CC-PVTZ
    Blend: AUG-CC-PVTZ
  Basis Set: (AUG-CC-PVTZ AUX)
    Blend: AUG-CC-PVTZ-JKFIT
	 Reference Energy          =    -438.8158645928662622 [Eh]
	 Singles Energy            =      -0.0000000000000000 [Eh]
	 Same-Spin Energy          =      -0.4679770669093422 [Eh]
	 Opposite-Spin Energy      =      -1.4976296532229347 [Eh]
	 Correlation Energy        =      -1.9656067201322769 [Eh]
	 Total Energy              =    -440.7814713129985194 [Eh]

	 ================> DF-SCS-MP2 Energies <==================
	-----------------------------------------------------------
	 SCS Same-Spin Scale       =       0.3333333333333333 [-]
	 SCS Opposite-Spin Scale   =       1.2000000000000000 [-]
	 SCS Same-Spin Energy      =      -0.1559923556364474 [Eh]
	 SCS Opposite-Spin Energy  =      -1.7971555838675217 [Eh]
	 SCS Correlation Energy    =      -1.9531479395039690 [Eh]
	 SCS Total Energy          =    -440.7690125323702546 [Eh]
	-----------------------------------------------------------

  Dipole Moment: [D]
     X:    -0.6715      Y:    -3.8741      Z:    -0.0252     Total:     3.9320

*** Psi4 exiting successfully. Buy a developer a beer!
