                               Psi4 1.4a3.dev225

  ==> Input File <==

--------------------------------------------------------------------------
#psi4
#
memory 32 gb

molecule  {
0 1
  O        0.2506850     2.2433030    -0.0000120
  N       -0.1503515    -0.0160255    -0.0460460
  C       -1.6091660     0.2193680    -0.0000060
  C       -2.2505560    -0.3204400     1.2726240
  C       -2.2505640    -0.3204870    -1.2726120
  C        0.7061140     1.0894960    -0.0000070
  C        0.3060350    -1.3272880     0.0000050
  C        2.1126960     0.7529310    -0.0000050
  C        1.6422530    -1.6174930     0.0000090
  C        2.5632190    -0.5392750     0.0000030
  H       -1.6749870     1.3090010    -0.0000250
  H       -3.3054200    -0.0314760     1.3049310
  H       -2.2011690    -1.4127350     1.3198810
  H       -1.7528960     0.0901600     2.1548740
  H       -1.7529050     0.0900740    -2.1548810
  H       -3.3054260    -0.0315150    -1.3049260
  H       -2.2011880    -1.4127830    -1.3198260
  H       -0.4545900    -2.1014670     0.0000100
  H        2.7949640     1.5970390    -0.0000090
  H        1.9701580    -2.6507840     0.0000170
  H        3.6325460    -0.7390360     0.0000060
units angstrom
no_reorient  #important for SAPT in psi4, default
symmetry c1  #important for SAPT in psi4, default
}

set PROPERTIES_ORIGIN ["COM"]
properties('MP2/aug-cc-pvtz', properties = ['dipole'])
--------------------------------------------------------------------------

    Molecular point group: c1
  Charge       = 0
  Multiplicity = 1
  Basis Set: AUG-CC-PVTZ
    Blend: AUG-CC-PVTZ
  Basis Set: (AUG-CC-PVTZ AUX)
    Blend: AUG-CC-PVTZ-JKFIT

    Orbital Energies [Eh]
    ---------------------

    Doubly Occupied:

       1A    -20.502490     2A    -15.620587     3A    -11.347362
       4A    -11.306647     5A    -11.273468     6A    -11.269134
       7A    -11.240820     8A    -11.236635     9A    -11.229580
      10A    -11.227487    11A     -1.367044    12A     -1.273314
      13A     -1.122992    14A     -1.050770    15A     -1.023800
      16A     -0.950293    17A     -0.893568    18A     -0.855914
      19A     -0.803014    20A     -0.710616    21A     -0.700953
      22A     -0.655899    23A     -0.638971    24A     -0.627696
      25A     -0.613409    26A     -0.603932    27A     -0.563906
      28A     -0.561743    29A     -0.547908    30A     -0.544615
      31A     -0.522685    32A     -0.503640    33A     -0.486986
      34A     -0.471610    35A     -0.416779    36A     -0.405969
      37A     -0.309357

  @DF-RHF Final Energy:  -438.81720732070937

   => Energetics <=

    Nuclear Repulsion Energy =            527.9294098319685418
    One-Electron Energy =               -1642.5300506681614934
    Two-Electron Energy =                 675.7834335154835799
    Total Energy =                       -438.8172073207093717
  Basis Set: (AUG-CC-PVTZ AUX)
    Blend: AUG-CC-PVTZ-RI
    Molecular point group: c1

    Geometry (in Angstrom), charge = 0, multiplicity = 1:

       Center              X                  Y                   Z               Mass
    ------------   -----------------  -----------------  -----------------  -----------------
         O            0.190654701136     2.202715979550     0.004691632639    15.994914619570
         N           -0.210381798864    -0.056612520450    -0.041342367361    14.003074004430
         C           -1.669196298864     0.178780979550     0.004697632639    12.000000000000
         C           -2.310586298864    -0.361027020450     1.277327632639    12.000000000000
         C           -2.310594298864    -0.361074020450    -1.267908367361    12.000000000000
         C            0.646083701136     1.048908979550     0.004696632639    12.000000000000
         C            0.246004701136    -1.367875020450     0.004708632639    12.000000000000
         C            2.052665701136     0.712343979550     0.004698632639    12.000000000000
         C            1.582222701136    -1.658080020450     0.004712632639    12.000000000000
         C            2.503188701136    -0.579862020450     0.004706632639    12.000000000000
         H           -1.735017298864     1.268413979550     0.004678632639     1.007825032230
         H           -3.365450298864    -0.072063020450     1.309634632639     1.007825032230
         H           -2.261199298864    -1.453322020450     1.324584632639     1.007825032230
         H           -1.812926298864     0.049572979550     2.159577632639     1.007825032230
         H           -1.812935298864     0.049486979550    -2.150177367361     1.007825032230
         H           -3.365456298864    -0.072102020450    -1.300222367361     1.007825032230
         H           -2.261218298864    -1.453370020450    -1.315122367361     1.007825032230
         H           -0.514620298864    -2.142054020450     0.004713632639     1.007825032230
         H            2.734933701136     1.556451979550     0.004694632639     1.007825032230
         H            1.910127701136    -2.691371020450     0.004720632639     1.007825032230
         H            3.572515701136    -0.779623020450     0.004709632639     1.007825032230

  Basis Set: AUG-CC-PVTZ
    Blend: AUG-CC-PVTZ
  Basis Set: (AUG-CC-PVTZ AUX)
    Blend: AUG-CC-PVTZ-JKFIT
	 Reference Energy          =    -438.8172073207093717 [Eh]
	 Singles Energy            =      -0.0000000000000000 [Eh]
	 Same-Spin Energy          =      -0.4676366070051774 [Eh]
	 Opposite-Spin Energy      =      -1.4971803593556547 [Eh]
	 Correlation Energy        =      -1.9648169663608321 [Eh]
	 Total Energy              =    -440.7820242870702145 [Eh]

	 ================> DF-SCS-MP2 Energies <==================
	-----------------------------------------------------------
	 SCS Same-Spin Scale       =       0.3333333333333333 [-]
	 SCS Opposite-Spin Scale   =       1.2000000000000000 [-]
	 SCS Same-Spin Energy      =      -0.1558788690017258 [Eh]
	 SCS Opposite-Spin Energy  =      -1.7966164312267856 [Eh]
	 SCS Correlation Energy    =      -1.9524953002285115 [Eh]
	 SCS Total Energy          =    -440.7697026209378919 [Eh]
	-----------------------------------------------------------

  Dipole Moment: [D]
     X:    -0.6061      Y:    -3.9578      Z:     0.0427     Total:     4.0041

*** Psi4 exiting successfully. Buy a developer a beer!
