                               Psi4 1.4a3.dev225

  ==> Input File <==

--------------------------------------------------------------------------
#psi4
#
memory 32 gb

molecule  {
0 1
  O        0.2506850     2.2433030    -0.0000120
  N       -0.1535360    -0.0391100    -0.0000040
  C       -1.6091660     0.2193680    -0.0000060
  C       -2.2505560    -0.3204400     1.2726240
  C       -2.2505640    -0.3204870    -1.2726120
  C        0.7061140     1.0894960    -0.0000070
  C        0.3060350    -1.3272880     0.0000050
  C        2.1126960     0.7529310    -0.0000050
  C        1.6422530    -1.6174930     0.0000090
  C        2.5632190    -0.5392750     0.0000030
  H       -1.6749870     1.3090010    -0.0000250
  H       -3.3054200    -0.0314760     1.3049310
  H       -2.2011690    -1.4127350     1.3198810
  H       -1.6618319     0.1652935     2.3163122
  H       -1.7529050     0.0900740    -2.1548810
  H       -3.3054260    -0.0315150    -1.3049260
  H       -2.2011880    -1.4127830    -1.3198260
  H       -0.4545900    -2.1014670     0.0000100
  H        2.7949640     1.5970390    -0.0000090
  H        1.9701580    -2.6507840     0.0000170
  H        3.6325460    -0.7390360     0.0000060
units angstrom
no_reorient  #important for SAPT in psi4, default
symmetry c1  #important for SAPT in psi4, default
}

set PROPERTIES_ORIGIN ["COM"]
properties('MP2/aug-cc-pvtz', properties = ['dipole'])
--------------------------------------------------------------------------

    Molecular point group: c1
  Charge       = 0
  Multiplicity = 1
  Basis Set: AUG-CC-PVTZ
    Blend: AUG-CC-PVTZ
  Basis Set: (AUG-CC-PVTZ AUX)
    Blend: AUG-CC-PVTZ-JKFIT

    Orbital Energies [Eh]
    ---------------------

    Doubly Occupied:

       1A    -20.505424     2A    -15.621589     3A    -11.349980
       4A    -11.305799     5A    -11.276520     6A    -11.268916
       7A    -11.251151     8A    -11.238378     9A    -11.235245
      10A    -11.230993    11A     -1.366979    12A     -1.277709
      13A     -1.122512    14A     -1.050524    15A     -1.022542
      16A     -0.942635    17A     -0.892591    18A     -0.855539
      19A     -0.802504    20A     -0.711774    21A     -0.699386
      22A     -0.653975    23A     -0.641696    24A     -0.628939
      25A     -0.604994    26A     -0.601075    27A     -0.565367
      28A     -0.559943    29A     -0.547360    30A     -0.541385
      31A     -0.525041    32A     -0.493888    33A     -0.480394
      34A     -0.471582    35A     -0.417849    36A     -0.407020
      37A     -0.307165

  @DF-RHF Final Energy:  -438.79777237993170

   => Energetics <=

    Nuclear Repulsion Energy =            527.1628242517571152
    One-Electron Energy =               -1640.9684648944848959
    Two-Electron Energy =                 675.0078682627959097
    Total Energy =                       -438.7977723799317573
  Basis Set: (AUG-CC-PVTZ AUX)
    Blend: AUG-CC-PVTZ-RI
    Molecular point group: c1

    Geometry (in Angstrom), charge = 0, multiplicity = 1:

       Center              X                  Y                   Z               Mass
    ------------   -----------------  -----------------  -----------------  -----------------
         O            0.190310504379     2.204521678422    -0.001198410076    15.994914619570
         N           -0.213910495621    -0.077891321578    -0.001190410076    14.003074004430
         C           -1.669540495621     0.180586678422    -0.001192410076    12.000000000000
         C           -2.310930495621    -0.359221321578     1.271437589924    12.000000000000
         C           -2.310938495621    -0.359268321578    -1.273798410076    12.000000000000
         C            0.645739504379     1.050714678422    -0.001193410076    12.000000000000
         C            0.245660504379    -1.366069321578    -0.001181410076    12.000000000000
         C            2.052321504379     0.714149678422    -0.001191410076    12.000000000000
         C            1.581878504379    -1.656274321578    -0.001177410076    12.000000000000
         C            2.502844504379    -0.578056321578    -0.001183410076    12.000000000000
         H           -1.735361495621     1.270219678422    -0.001211410076     1.007825032230
         H           -3.365794495621    -0.070257321578     1.303744589924     1.007825032230
         H           -2.261543495621    -1.451516321578     1.318694589924     1.007825032230
         H           -1.722206395621     0.126512178422     2.315125789924     1.007825032230
         H           -1.813279495621     0.051292678422    -2.156067410076     1.007825032230
         H           -3.365800495621    -0.070296321578    -1.306112410076     1.007825032230
         H           -2.261562495621    -1.451564321578    -1.321012410076     1.007825032230
         H           -0.514964495621    -2.140248321578    -0.001176410076     1.007825032230
         H            2.734589504379     1.558257678422    -0.001195410076     1.007825032230
         H            1.909783504379    -2.689565321578    -0.001169410076     1.007825032230
         H            3.572171504379    -0.777817321578    -0.001180410076     1.007825032230

  Basis Set: AUG-CC-PVTZ
    Blend: AUG-CC-PVTZ
  Basis Set: (AUG-CC-PVTZ AUX)
    Blend: AUG-CC-PVTZ-JKFIT
	 Reference Energy          =    -438.7977723799317005 [Eh]
	 Singles Energy            =      -0.0000000000000000 [Eh]
	 Same-Spin Energy          =      -0.4680107312237522 [Eh]
	 Opposite-Spin Energy      =      -1.4989286639914177 [Eh]
	 Correlation Energy        =      -1.9669393952151699 [Eh]
	 Total Energy              =    -440.7647117751468500 [Eh]

	 ================> DF-SCS-MP2 Energies <==================
	-----------------------------------------------------------
	 SCS Same-Spin Scale       =       0.3333333333333333 [-]
	 SCS Opposite-Spin Scale   =       1.2000000000000000 [-]
	 SCS Same-Spin Energy      =      -0.1560035770745841 [Eh]
	 SCS Opposite-Spin Energy  =      -1.7987143967897012 [Eh]
	 SCS Correlation Energy    =      -1.9547179738642853 [Eh]
	 SCS Total Energy          =    -440.7524903537959631 [Eh]
	-----------------------------------------------------------

  Dipole Moment: [D]
     X:    -0.6928      Y:    -3.8918      Z:    -0.1188     Total:     3.9548

*** Psi4 exiting successfully. Buy a developer a beer!
