                               Psi4 1.4a3.dev225

  ==> Input File <==

--------------------------------------------------------------------------
#psi4
#
memory 32 gb

molecule  {
0 1
  O        0.2506850     2.2433030    -0.0000120
  N       -0.1535360    -0.0391100    -0.0000040
  C       -1.6091660     0.2193680    -0.0000060
  C       -2.2505560    -0.3204400     1.2726240
  C       -2.2505640    -0.3204870    -1.2726120
  C        0.7061140     1.0894960    -0.0000070
  C        0.3060350    -1.3272880     0.0000050
  C        2.1126960     0.7529310    -0.0000050
  C        1.6422530    -1.6174930     0.0000090
  C        2.5632190    -0.5392750     0.0000030
  H       -1.6749870     1.3090010    -0.0000250
  H       -3.3054200    -0.0314760     1.3049310
  H       -2.2011690    -1.4127350     1.3198810
  H       -1.7528960     0.0901600     2.1548740
  H       -1.7455353     0.0544790    -2.1664632
  H       -3.3054260    -0.0315150    -1.3049260
  H       -2.2011880    -1.4127830    -1.3198260
  H       -0.4545900    -2.1014670     0.0000100
  H        2.7949640     1.5970390    -0.0000090
  H        1.9701580    -2.6507840     0.0000170
  H        3.6325460    -0.7390360     0.0000060
units angstrom
no_reorient  #important for SAPT in psi4, default
symmetry c1  #important for SAPT in psi4, default
}

set PROPERTIES_ORIGIN ["COM"]
properties('MP2/aug-cc-pvtz', properties = ['dipole'])
--------------------------------------------------------------------------

    Molecular point group: c1
  Charge       = 0
  Multiplicity = 1
  Basis Set: AUG-CC-PVTZ
    Blend: AUG-CC-PVTZ
  Basis Set: (AUG-CC-PVTZ AUX)
    Blend: AUG-CC-PVTZ-JKFIT

    Orbital Energies [Eh]
    ---------------------

    Doubly Occupied:

       1A    -20.505400     2A    -15.621486     3A    -11.349932
       4A    -11.305609     5A    -11.274434     6A    -11.268924
       7A    -11.238325     8A    -11.235241     9A    -11.228959
      10A    -11.228745    11A     -1.366964    12A     -1.277599
      13A     -1.122521    14A     -1.051236    15A     -1.022523
      16A     -0.950707    17A     -0.893339    18A     -0.855878
      19A     -0.804142    20A     -0.711619    21A     -0.699525
      22A     -0.655819    23A     -0.640796    24A     -0.628088
      25A     -0.612639    26A     -0.604256    27A     -0.564707
      28A     -0.560639    29A     -0.548676    30A     -0.543704
      31A     -0.524538    32A     -0.505576    33A     -0.486138
      34A     -0.473804    35A     -0.417719    36A     -0.406674
      37A     -0.307140

  @DF-RHF Final Energy:  -438.81786190855871

   => Energetics <=

    Nuclear Repulsion Energy =            527.9005570657831186
    One-Electron Energy =               -1642.4487926762501502
    Two-Electron Energy =                 675.7303737019084338
    Total Energy =                       -438.8178619085587115
  Basis Set: (AUG-CC-PVTZ AUX)
    Blend: AUG-CC-PVTZ-RI
    Molecular point group: c1

    Geometry (in Angstrom), charge = 0, multiplicity = 1:

       Center              X                  Y                   Z               Mass
    ------------   -----------------  -----------------  -----------------  -----------------
         O            0.190925815225     2.205335740618     0.000073614441    15.994914619570
         N           -0.213295184775    -0.077077259382     0.000081614441    14.003074004430
         C           -1.668925184775     0.181400740618     0.000079614441    12.000000000000
         C           -2.310315184775    -0.358407259382     1.272709614441    12.000000000000
         C           -2.310323184775    -0.358454259382    -1.272526385559    12.000000000000
         C            0.646354815225     1.051528740618     0.000078614441    12.000000000000
         C            0.246275815225    -1.365255259382     0.000090614441    12.000000000000
         C            2.052936815225     0.714963740618     0.000080614441    12.000000000000
         C            1.582493815225    -1.655460259382     0.000094614441    12.000000000000
         C            2.503459815225    -0.577242259382     0.000088614441    12.000000000000
         H           -1.734746184775     1.271033740618     0.000060614441     1.007825032230
         H           -3.365179184775    -0.069443259382     1.305016614441     1.007825032230
         H           -2.260928184775    -1.450702259382     1.319966614441     1.007825032230
         H           -1.812655184775     0.052192740618     2.154959614441     1.007825032230
         H           -1.805294484775     0.016511740618    -2.166377585559     1.007825032230
         H           -3.365185184775    -0.069482259382    -1.304840385559     1.007825032230
         H           -2.260947184775    -1.450750259382    -1.319740385559     1.007825032230
         H           -0.514349184775    -2.139434259382     0.000095614441     1.007825032230
         H            2.735204815225     1.559071740618     0.000076614441     1.007825032230
         H            1.910398815225    -2.688751259382     0.000102614441     1.007825032230
         H            3.572786815225    -0.777003259382     0.000091614441     1.007825032230

  Basis Set: AUG-CC-PVTZ
    Blend: AUG-CC-PVTZ
  Basis Set: (AUG-CC-PVTZ AUX)
    Blend: AUG-CC-PVTZ-JKFIT
	 Reference Energy          =    -438.8178619085587115 [Eh]
	 Singles Energy            =      -0.0000000000000000 [Eh]
	 Same-Spin Energy          =      -0.4679631566980596 [Eh]
	 Opposite-Spin Energy      =      -1.4972589408348997 [Eh]
	 Correlation Energy        =      -1.9652220975329593 [Eh]
	 Total Energy              =    -440.7830840060916557 [Eh]

	 ================> DF-SCS-MP2 Energies <==================
	-----------------------------------------------------------
	 SCS Same-Spin Scale       =       0.3333333333333333 [-]
	 SCS Opposite-Spin Scale   =       1.2000000000000000 [-]
	 SCS Same-Spin Energy      =      -0.1559877188993532 [Eh]
	 SCS Opposite-Spin Energy  =      -1.7967107290018796 [Eh]
	 SCS Correlation Energy    =      -1.9526984479012328 [Eh]
	 SCS Total Energy          =    -440.7705603564599528 [Eh]
	-----------------------------------------------------------

  Dipole Moment: [D]
     X:    -0.6614      Y:    -3.8783      Z:    -0.0004     Total:     3.9343

*** Psi4 exiting successfully. Buy a developer a beer!
