                               Psi4 1.4a3.dev225

  ==> Input File <==

--------------------------------------------------------------------------
#psi4
#
memory 32 gb

molecule  {
0 1
  O        0.2506850     2.2433030    -0.0000120
  N       -0.1535360    -0.0391100    -0.0000040
  C       -1.6091660     0.2193680    -0.0000060
  C       -2.2505560    -0.3204400     1.2726240
  C       -2.2505640    -0.3204870    -1.2726120
  C        0.7061140     1.0894960    -0.0000070
  C        0.3060350    -1.3272880     0.0000050
  C        2.1126960     0.7529310    -0.0000050
  C        1.6422530    -1.6174930     0.0000090
  C        2.5961402    -0.6337006     0.0000036
  H       -1.6749870     1.3090010    -0.0000250
  H       -3.3054200    -0.0314760     1.3049310
  H       -2.2011690    -1.4127350     1.3198810
  H       -1.7528960     0.0901600     2.1548740
  H       -1.7529050     0.0900740    -2.1548810
  H       -3.3054260    -0.0315150    -1.3049260
  H       -2.2011880    -1.4127830    -1.3198260
  H       -0.4545900    -2.1014670     0.0000100
  H        2.7949640     1.5970390    -0.0000090
  H        1.9701580    -2.6507840     0.0000170
  H        3.6325460    -0.7390360     0.0000060
units angstrom
no_reorient  #important for SAPT in psi4, default
symmetry c1  #important for SAPT in psi4, default
}

set PROPERTIES_ORIGIN ["COM"]
properties('MP2/aug-cc-pvtz', properties = ['dipole'])
--------------------------------------------------------------------------

    Molecular point group: c1
  Charge       = 0
  Multiplicity = 1
  Basis Set: AUG-CC-PVTZ
    Blend: AUG-CC-PVTZ
  Basis Set: (AUG-CC-PVTZ AUX)
    Blend: AUG-CC-PVTZ-JKFIT

    Orbital Energies [Eh]
    ---------------------

    Doubly Occupied:

       1A    -20.498643     2A    -15.627537     3A    -11.345841
       4A    -11.311936     5A    -11.275577     6A    -11.274583
       7A    -11.241289     8A    -11.238381     9A    -11.230182
      10A    -11.230167    11A     -1.363604    12A     -1.278312
      13A     -1.121909    14A     -1.052618    15A     -1.015178
      16A     -0.951996    17A     -0.902510    18A     -0.852547
      19A     -0.807548    20A     -0.714521    21A     -0.702607
      22A     -0.656707    23A     -0.640316    24A     -0.628452
      25A     -0.613824    26A     -0.602177    27A     -0.574379
      28A     -0.562972    29A     -0.547749    30A     -0.532636
      31A     -0.526316    32A     -0.504728    33A     -0.488742
      34A     -0.475651    35A     -0.413575    36A     -0.400870
      37A     -0.298955

  @DF-RHF Final Energy:  -438.80094369551409

   => Energetics <=

    Nuclear Repulsion Energy =            526.8321517085344112
    One-Electron Energy =               -1640.2551275036307743
    Two-Electron Energy =                 674.6220320995822703
    Total Energy =                       -438.8009436955140927
  Basis Set: (AUG-CC-PVTZ AUX)
    Blend: AUG-CC-PVTZ-RI
    Molecular point group: c1

    Geometry (in Angstrom), charge = 0, multiplicity = 1:

       Center              X                  Y                   Z               Mass
    ------------   -----------------  -----------------  -----------------  -----------------
         O            0.188098155899     2.213339834136    -0.000011588979    15.994914619570
         N           -0.216122844101    -0.069073165864    -0.000003588979    14.003074004430
         C           -1.671752844101     0.189404834136    -0.000005588979    12.000000000000
         C           -2.313142844101    -0.350403165864     1.272624411021    12.000000000000
         C           -2.313150844101    -0.350450165864    -1.272611588979    12.000000000000
         C            0.643527155899     1.059532834136    -0.000006588979    12.000000000000
         C            0.243448155899    -1.357251165864     0.000005411021    12.000000000000
         C            2.050109155899     0.722967834136    -0.000004588979    12.000000000000
         C            1.579666155899    -1.647456165864     0.000009411021    12.000000000000
         C            2.533553355899    -0.663663765864     0.000004011021    12.000000000000
         H           -1.737573844101     1.279037834136    -0.000024588979     1.007825032230
         H           -3.368006844101    -0.061439165864     1.304931411021     1.007825032230
         H           -2.263755844101    -1.442698165864     1.319881411021     1.007825032230
         H           -1.815482844101     0.060196834136     2.154874411021     1.007825032230
         H           -1.815491844101     0.060110834136    -2.154880588979     1.007825032230
         H           -3.368012844101    -0.061478165864    -1.304925588979     1.007825032230
         H           -2.263774844101    -1.442746165864    -1.319825588979     1.007825032230
         H           -0.517176844101    -2.131430165864     0.000010411021     1.007825032230
         H            2.732377155899     1.567075834136    -0.000008588979     1.007825032230
         H            1.907571155899    -2.680747165864     0.000017411021     1.007825032230
         H            3.569959155899    -0.768999165864     0.000006411021     1.007825032230

  Basis Set: AUG-CC-PVTZ
    Blend: AUG-CC-PVTZ
  Basis Set: (AUG-CC-PVTZ AUX)
    Blend: AUG-CC-PVTZ-JKFIT
	 Reference Energy          =    -438.8009436955140927 [Eh]
	 Singles Energy            =      -0.0000000000000000 [Eh]
	 Same-Spin Energy          =      -0.4703417912680518 [Eh]
	 Opposite-Spin Energy      =      -1.5003657159004200 [Eh]
	 Correlation Energy        =      -1.9707075071684717 [Eh]
	 Total Energy              =    -440.7716512026825626 [Eh]

	 ================> DF-SCS-MP2 Energies <==================
	-----------------------------------------------------------
	 SCS Same-Spin Scale       =       0.3333333333333333 [-]
	 SCS Opposite-Spin Scale   =       1.2000000000000000 [-]
	 SCS Same-Spin Energy      =      -0.1567805970893506 [Eh]
	 SCS Opposite-Spin Energy  =      -1.8004388590805038 [Eh]
	 SCS Correlation Energy    =      -1.9572194561698546 [Eh]
	 SCS Total Energy          =    -440.7581631516839593 [Eh]
	-----------------------------------------------------------

  Dipole Moment: [D]
     X:    -0.7169      Y:    -3.9943      Z:     0.0000     Total:     4.0581

*** Psi4 exiting successfully. Buy a developer a beer!
