                               Psi4 1.4a3.dev225

  ==> Input File <==

--------------------------------------------------------------------------
#psi4
#
memory 32 gb

molecule  {
0 1
  O        0.2506850     2.2433030    -0.0000120
  N       -0.1535360    -0.0391100    -0.0000040
  C       -1.6091660     0.2193680    -0.0000060
  C       -2.2505560    -0.3204400     1.2726240
  C       -2.2505640    -0.3204870    -1.2726120
  C        0.7061140     1.0894960    -0.0000070
  C        0.3060350    -1.3272880     0.0000050
  C        2.1126960     0.7529310    -0.0000050
  C        1.6422530    -1.6174930     0.0000090
  C        2.5632190    -0.5392750     0.0000030
  H       -1.6749870     1.3090010    -0.0000250
  H       -3.3054200    -0.0314760     1.3049310
  H       -2.2011690    -1.4127350     1.3198810
  H       -1.7528960     0.0901600     2.1548740
  H       -1.6618411     0.1652003    -2.3163226
  H       -3.3054260    -0.0315150    -1.3049260
  H       -2.2011880    -1.4127830    -1.3198260
  H       -0.4545900    -2.1014670     0.0000100
  H        2.7949640     1.5970390    -0.0000090
  H        1.9701580    -2.6507840     0.0000170
  H        3.6325460    -0.7390360     0.0000060
units angstrom
no_reorient  #important for SAPT in psi4, default
symmetry c1  #important for SAPT in psi4, default
}

set PROPERTIES_ORIGIN ["COM"]
properties('MP2/aug-cc-pvtz', properties = ['dipole'])
--------------------------------------------------------------------------

    Molecular point group: c1
  Charge       = 0
  Multiplicity = 1
  Basis Set: AUG-CC-PVTZ
    Blend: AUG-CC-PVTZ
  Basis Set: (AUG-CC-PVTZ AUX)
    Blend: AUG-CC-PVTZ-JKFIT

    Orbital Energies [Eh]
    ---------------------

    Doubly Occupied:

       1A    -20.505424     2A    -15.621589     3A    -11.349980
       4A    -11.305799     5A    -11.276520     6A    -11.268916
       7A    -11.251151     8A    -11.238378     9A    -11.235245
      10A    -11.230993    11A     -1.366979    12A     -1.277709
      13A     -1.122512    14A     -1.050524    15A     -1.022542
      16A     -0.942635    17A     -0.892591    18A     -0.855539
      19A     -0.802504    20A     -0.711774    21A     -0.699386
      22A     -0.653975    23A     -0.641696    24A     -0.628939
      25A     -0.604994    26A     -0.601075    27A     -0.565367
      28A     -0.559943    29A     -0.547360    30A     -0.541385
      31A     -0.525041    32A     -0.493887    33A     -0.480394
      34A     -0.471583    35A     -0.417849    36A     -0.407020
      37A     -0.307165

  @DF-RHF Final Energy:  -438.79777238147830

   => Energetics <=

    Nuclear Repulsion Energy =            527.1628234272333202
    One-Electron Energy =               -1640.9684625880231579
    Two-Electron Energy =                 675.0078667793113709
    Total Energy =                       -438.7977723814783531
  Basis Set: (AUG-CC-PVTZ AUX)
    Blend: AUG-CC-PVTZ-RI
    Molecular point group: c1

    Geometry (in Angstrom), charge = 0, multiplicity = 1:

       Center              X                  Y                   Z               Mass
    ------------   -----------------  -----------------  -----------------  -----------------
         O            0.190310505849     2.204521731356     0.001175362158    15.994914619570
         N           -0.213910494151    -0.077891268644     0.001183362158    14.003074004430
         C           -1.669540494151     0.180586731356     0.001181362158    12.000000000000
         C           -2.310930494151    -0.359221268644     1.273811362158    12.000000000000
         C           -2.310938494151    -0.359268268644    -1.271424637842    12.000000000000
         C            0.645739505849     1.050714731356     0.001180362158    12.000000000000
         C            0.245660505849    -1.366069268644     0.001192362158    12.000000000000
         C            2.052321505849     0.714149731356     0.001182362158    12.000000000000
         C            1.581878505849    -1.656274268644     0.001196362158    12.000000000000
         C            2.502844505849    -0.578056268644     0.001190362158    12.000000000000
         H           -1.735361494151     1.270219731356     0.001162362158     1.007825032230
         H           -3.365794494151    -0.070257268644     1.306118362158     1.007825032230
         H           -2.261543494151    -1.451516268644     1.321068362158     1.007825032230
         H           -1.813270494151     0.051378731356     2.156061362158     1.007825032230
         H           -1.722215594151     0.126419031356    -2.315135237842     1.007825032230
         H           -3.365800494151    -0.070296268644    -1.303738637842     1.007825032230
         H           -2.261562494151    -1.451564268644    -1.318638637842     1.007825032230
         H           -0.514964494151    -2.140248268644     0.001197362158     1.007825032230
         H            2.734589505849     1.558257731356     0.001178362158     1.007825032230
         H            1.909783505849    -2.689565268644     0.001204362158     1.007825032230
         H            3.572171505849    -0.777817268644     0.001193362158     1.007825032230

  Basis Set: AUG-CC-PVTZ
    Blend: AUG-CC-PVTZ
  Basis Set: (AUG-CC-PVTZ AUX)
    Blend: AUG-CC-PVTZ-JKFIT
	 Reference Energy          =    -438.7977723814782962 [Eh]
	 Singles Energy            =      -0.0000000000000000 [Eh]
	 Same-Spin Energy          =      -0.4680107256890981 [Eh]
	 Opposite-Spin Energy      =      -1.4989286550425729 [Eh]
	 Correlation Energy        =      -1.9669393807316711 [Eh]
	 Total Energy              =    -440.7647117622099699 [Eh]

	 ================> DF-SCS-MP2 Energies <==================
	-----------------------------------------------------------
	 SCS Same-Spin Scale       =       0.3333333333333333 [-]
	 SCS Opposite-Spin Scale   =       1.2000000000000000 [-]
	 SCS Same-Spin Energy      =      -0.1560035752296993 [Eh]
	 SCS Opposite-Spin Energy  =      -1.7987143860510875 [Eh]
	 SCS Correlation Energy    =      -1.9547179612807868 [Eh]
	 SCS Total Energy          =    -440.7524903427590743 [Eh]
	-----------------------------------------------------------

  Dipole Moment: [D]
     X:    -0.6928      Y:    -3.8918      Z:     0.1188     Total:     3.9548

*** Psi4 exiting successfully. Buy a developer a beer!
