                               Psi4 1.4a3.dev225

  ==> Input File <==

--------------------------------------------------------------------------
#psi4
#
memory 32 gb

molecule  {
0 1
  O        0.2506850     2.2433030    -0.0000120
  N       -0.1737040    -0.1063634     0.1378977
  C       -1.6091660     0.2193680    -0.0000060
  C       -2.2505560    -0.3204400     1.2726240
  C       -2.2505640    -0.3204870    -1.2726120
  C        0.7061140     1.0894960    -0.0000070
  C        0.3060350    -1.3272880     0.0000050
  C        2.1126960     0.7529310    -0.0000050
  C        1.6422530    -1.6174930     0.0000090
  C        2.5632190    -0.5392750     0.0000030
  H       -1.6749870     1.3090010    -0.0000250
  H       -3.3054200    -0.0314760     1.3049310
  H       -2.2011690    -1.4127350     1.3198810
  H       -1.7528960     0.0901600     2.1548740
  H       -1.7529050     0.0900740    -2.1548810
  H       -3.3054260    -0.0315150    -1.3049260
  H       -2.2011880    -1.4127830    -1.3198260
  H       -0.4545900    -2.1014670     0.0000100
  H        2.7949640     1.5970390    -0.0000090
  H        1.9701580    -2.6507840     0.0000170
  H        3.6325460    -0.7390360     0.0000060
units angstrom
no_reorient  #important for SAPT in psi4, default
symmetry c1  #important for SAPT in psi4, default
}

set PROPERTIES_ORIGIN ["COM"]
properties('MP2/aug-cc-pvtz', properties = ['dipole'])
--------------------------------------------------------------------------

    Molecular point group: c1
  Charge       = 0
  Multiplicity = 1
  Basis Set: AUG-CC-PVTZ
    Blend: AUG-CC-PVTZ
  Basis Set: (AUG-CC-PVTZ AUX)
    Blend: AUG-CC-PVTZ-JKFIT

    Orbital Energies [Eh]
    ---------------------

    Doubly Occupied:

       1A    -20.516622     2A    -15.622214     3A    -11.358498
       4A    -11.302453     5A    -11.275416     6A    -11.269495
       7A    -11.232140     8A    -11.231899     9A    -11.231761
      10A    -11.225685    11A     -1.367885    12A     -1.287885
      13A     -1.121566    14A     -1.054141    15A     -1.015271
      16A     -0.951448    17A     -0.891482    18A     -0.852564
      19A     -0.803544    20A     -0.714162    21A     -0.693100
      22A     -0.657848    23A     -0.645140    24A     -0.626593
      25A     -0.610958    26A     -0.605619    27A     -0.566326
      28A     -0.562906    29A     -0.548518    30A     -0.541350
      31A     -0.528073    32A     -0.506574    33A     -0.483279
      34A     -0.478672    35A     -0.421084    36A     -0.408280
      37A     -0.301741

  @DF-RHF Final Energy:  -438.80517912086691

   => Energetics <=

    Nuclear Repulsion Energy =            527.5070951716816126
    One-Electron Energy =               -1641.6001661902837441
    Two-Electron Energy =                 675.2878918977352214
    Total Energy =                       -438.8051791208669101
  Basis Set: (AUG-CC-PVTZ AUX)
    Blend: AUG-CC-PVTZ-RI
    Molecular point group: c1

    Geometry (in Angstrom), charge = 0, multiplicity = 1:

       Center              X                  Y                   Z               Mass
    ------------   -----------------  -----------------  -----------------  -----------------
         O            0.193040148257     2.211943954432    -0.014098131604    15.994914619570
         N           -0.231348851743    -0.137722445568     0.123811568396    14.003074004430
         C           -1.666810851743     0.188008954432    -0.014092131604    12.000000000000
         C           -2.308200851743    -0.351799045568     1.258537868396    12.000000000000
         C           -2.308208851743    -0.351846045568    -1.286698131604    12.000000000000
         C            0.648469148257     1.058136954432    -0.014093131604    12.000000000000
         C            0.248390148257    -1.358647045568    -0.014081131604    12.000000000000
         C            2.055051148257     0.721571954432    -0.014091131604    12.000000000000
         C            1.584608148257    -1.648852045568    -0.014077131604    12.000000000000
         C            2.505574148257    -0.570634045568    -0.014083131604    12.000000000000
         H           -1.732631851743     1.277641954432    -0.014111131604     1.007825032230
         H           -3.363064851743    -0.062835045568     1.290844868396     1.007825032230
         H           -2.258813851743    -1.444094045568     1.305794868396     1.007825032230
         H           -1.810540851743     0.058800954432     2.140787868396     1.007825032230
         H           -1.810549851743     0.058714954432    -2.168967131604     1.007825032230
         H           -3.363070851743    -0.062874045568    -1.319012131604     1.007825032230
         H           -2.258832851743    -1.444142045568    -1.333912131604     1.007825032230
         H           -0.512234851743    -2.132826045568    -0.014076131604     1.007825032230
         H            2.737319148257     1.565679954432    -0.014095131604     1.007825032230
         H            1.912513148257    -2.682143045568    -0.014069131604     1.007825032230
         H            3.574901148257    -0.770395045568    -0.014080131604     1.007825032230

  Basis Set: AUG-CC-PVTZ
    Blend: AUG-CC-PVTZ
  Basis Set: (AUG-CC-PVTZ AUX)
    Blend: AUG-CC-PVTZ-JKFIT
	 Reference Energy          =    -438.8051791208669101 [Eh]
	 Singles Energy            =      -0.0000000000000000 [Eh]
	 Same-Spin Energy          =      -0.4691520344340444 [Eh]
	 Opposite-Spin Energy      =      -1.4988325374929392 [Eh]
	 Correlation Energy        =      -1.9679845719269835 [Eh]
	 Total Energy              =    -440.7731636927939007 [Eh]

	 ================> DF-SCS-MP2 Energies <==================
	-----------------------------------------------------------
	 SCS Same-Spin Scale       =       0.3333333333333333 [-]
	 SCS Opposite-Spin Scale   =       1.2000000000000000 [-]
	 SCS Same-Spin Energy      =      -0.1563840114780148 [Eh]
	 SCS Opposite-Spin Energy  =      -1.7985990449915270 [Eh]
	 SCS Correlation Energy    =      -1.9549830564695418 [Eh]
	 SCS Total Energy          =    -440.7601621773364400 [Eh]
	-----------------------------------------------------------

  Dipole Moment: [D]
     X:    -0.7426      Y:    -3.5470      Z:    -0.1232     Total:     3.6260

*** Psi4 exiting successfully. Buy a developer a beer!
