                               Psi4 1.4a3.dev225

  ==> Input File <==

--------------------------------------------------------------------------
#psi4
#
memory 32 gb

molecule  {
0 1
  O        0.2506850     2.2433030    -0.0000120
  N       -0.1535360    -0.0391100    -0.0000040
  C       -1.6091660     0.2193680    -0.0000060
  C       -2.2505560    -0.3204400     1.2726240
  C       -2.2505640    -0.3204870    -1.2726120
  C        0.7061140     1.0894960    -0.0000070
  C        0.3060350    -1.3272880     0.0000050
  C        2.1126960     0.7529310    -0.0000050
  C        1.6422530    -1.6174930     0.0000090
  C        2.5762086    -0.5240674     0.0000029
  H       -1.6749870     1.3090010    -0.0000250
  H       -3.3054200    -0.0314760     1.3049310
  H       -2.2011690    -1.4127350     1.3198810
  H       -1.7528960     0.0901600     2.1548740
  H       -1.7529050     0.0900740    -2.1548810
  H       -3.3054260    -0.0315150    -1.3049260
  H       -2.2011880    -1.4127830    -1.3198260
  H       -0.4545900    -2.1014670     0.0000100
  H        2.7949640     1.5970390    -0.0000090
  H        1.9701580    -2.6507840     0.0000170
  H        3.6325460    -0.7390360     0.0000060
units angstrom
no_reorient  #important for SAPT in psi4, default
symmetry c1  #important for SAPT in psi4, default
}

set PROPERTIES_ORIGIN ["COM"]
properties('MP2/aug-cc-pvtz', properties = ['dipole'])
--------------------------------------------------------------------------

    Molecular point group: c1
  Charge       = 0
  Multiplicity = 1
  Basis Set: AUG-CC-PVTZ
    Blend: AUG-CC-PVTZ
  Basis Set: (AUG-CC-PVTZ AUX)
    Blend: AUG-CC-PVTZ-JKFIT

    Orbital Energies [Eh]
    ---------------------

    Doubly Occupied:

       1A    -20.506950     2A    -15.620226     3A    -11.351197
       4A    -11.304183     5A    -11.273830     6A    -11.268698
       7A    -11.239288     8A    -11.235248     9A    -11.228425
      10A    -11.228410    11A     -1.367720    12A     -1.277166
      13A     -1.121218    14A     -1.051220    15A     -1.022345
      16A     -0.950326    17A     -0.891821    18A     -0.856798
      19A     -0.803656    20A     -0.711097    21A     -0.698538
      22A     -0.656794    23A     -0.641400    24A     -0.627876
      25A     -0.612538    26A     -0.604805    27A     -0.567301
      28A     -0.561818    29A     -0.547811    30A     -0.540799
      31A     -0.523903    32A     -0.504495    33A     -0.486095
      34A     -0.472865    35A     -0.419051    36A     -0.406805
      37A     -0.308153

  @DF-RHF Final Energy:  -438.81808760866380

   => Energetics <=

    Nuclear Repulsion Energy =            527.7372961833556246
    One-Electron Energy =               -1642.1290326113148694
    Two-Electron Energy =                 675.5736488192952720
    Total Energy =                       -438.8180876086638591
  Basis Set: (AUG-CC-PVTZ AUX)
    Blend: AUG-CC-PVTZ-RI
    Molecular point group: c1

    Geometry (in Angstrom), charge = 0, multiplicity = 1:

       Center              X                  Y                   Z               Mass
    ------------   -----------------  -----------------  -----------------  -----------------
         O            0.189842918879     2.203742814893    -0.000011527703    15.994914619570
         N           -0.214378081121    -0.078670185107    -0.000003527703    14.003074004430
         C           -1.670008081121     0.179807814893    -0.000005527703    12.000000000000
         C           -2.311398081121    -0.360000185107     1.272624472297    12.000000000000
         C           -2.311406081121    -0.360047185107    -1.272611527703    12.000000000000
         C            0.645271918879     1.049935814893    -0.000006527703    12.000000000000
         C            0.245192918879    -1.366848185107     0.000005472297    12.000000000000
         C            2.051853918879     0.713370814893    -0.000004527703    12.000000000000
         C            1.581410918879    -1.657053185107     0.000009472297    12.000000000000
         C            2.515366518879    -0.563627585107     0.000003372297    12.000000000000
         H           -1.735829081121     1.269440814893    -0.000024527703     1.007825032230
         H           -3.366262081121    -0.071036185107     1.304931472297     1.007825032230
         H           -2.262011081121    -1.452295185107     1.319881472297     1.007825032230
         H           -1.813738081121     0.050599814893     2.154874472297     1.007825032230
         H           -1.813747081121     0.050513814893    -2.154880527703     1.007825032230
         H           -3.366268081121    -0.071075185107    -1.304925527703     1.007825032230
         H           -2.262030081121    -1.452343185107    -1.319825527703     1.007825032230
         H           -0.515432081121    -2.141027185107     0.000010472297     1.007825032230
         H            2.734121918879     1.557478814893    -0.000008527703     1.007825032230
         H            1.909315918879    -2.690344185107     0.000017472297     1.007825032230
         H            3.571703918879    -0.778596185107     0.000006472297     1.007825032230

  Basis Set: AUG-CC-PVTZ
    Blend: AUG-CC-PVTZ
  Basis Set: (AUG-CC-PVTZ AUX)
    Blend: AUG-CC-PVTZ-JKFIT
	 Reference Energy          =    -438.8180876086638023 [Eh]
	 Singles Energy            =      -0.0000000000000000 [Eh]
	 Same-Spin Energy          =      -0.4675557298163157 [Eh]
	 Opposite-Spin Energy      =      -1.4970303121876918 [Eh]
	 Correlation Energy        =      -1.9645860420040075 [Eh]
	 Total Energy              =    -440.7826736506677889 [Eh]

	 ================> DF-SCS-MP2 Energies <==================
	-----------------------------------------------------------
	 SCS Same-Spin Scale       =       0.3333333333333333 [-]
	 SCS Opposite-Spin Scale   =       1.2000000000000000 [-]
	 SCS Same-Spin Energy      =      -0.1558519099387719 [Eh]
	 SCS Opposite-Spin Energy  =      -1.7964363746252301 [Eh]
	 SCS Correlation Energy    =      -1.9522882845640019 [Eh]
	 SCS Total Energy          =    -440.7703758932278220 [Eh]
	-----------------------------------------------------------

  Dipole Moment: [D]
     X:    -0.6370      Y:    -3.8313      Z:     0.0000     Total:     3.8839

*** Psi4 exiting successfully. Buy a developer a beer!
