                               Psi4 1.4a3.dev225

  ==> Input File <==

--------------------------------------------------------------------------
#psi4
#
memory 32 gb

molecule  {
0 1
  O        0.2506850     2.2433030    -0.0000120
  N       -0.1535360    -0.0391100    -0.0000040
  C       -1.6091660     0.2193680    -0.0000060
  C       -2.2505560    -0.3204400     1.2726240
  C       -2.2505640    -0.3204870    -1.2726120
  C        0.7061140     1.0894960    -0.0000070
  C        0.3060350    -1.3272880     0.0000050
  C        2.1126960     0.7529310    -0.0000050
  C        1.6422530    -1.6174930     0.0000090
  C        2.5632190    -0.5392750     0.0000030
  H       -1.6749870     1.3090010    -0.0000250
  H       -3.3054200    -0.0314760     1.3049310
  H       -2.2011690    -1.4127350     1.3198810
  H       -1.7528960     0.0901600     2.1548740
  H       -1.7529050     0.0900740    -2.1548810
  H       -3.3054260    -0.0315150    -1.3049260
  H       -2.2011880    -1.4127830    -1.3198260
  H       -0.4545900    -2.1014670     0.0000100
  H        2.7949640     1.5970390    -0.0000090
  H        1.9701580    -2.6507840     0.0000170
  H        3.6325460    -0.7390360     0.0000060
units angstrom
no_reorient  #important for SAPT in psi4, default
symmetry c1  #important for SAPT in psi4, default
}

set PROPERTIES_ORIGIN ["COM"]
properties('MP2/aug-cc-pvtz', properties = ['dipole'])
--------------------------------------------------------------------------

    Molecular point group: c1
  Charge       = 0
  Multiplicity = 1
  Basis Set: AUG-CC-PVTZ
    Blend: AUG-CC-PVTZ
  Basis Set: (AUG-CC-PVTZ AUX)
    Blend: AUG-CC-PVTZ-JKFIT

    Orbital Energies [Eh]
    ---------------------

    Doubly Occupied:

       1A    -20.505429     2A    -15.621475     3A    -11.349953
       4A    -11.305626     5A    -11.274178     6A    -11.268928
       7A    -11.238322     8A    -11.235240     9A    -11.228765
      10A    -11.228750    11A     -1.366992    12A     -1.277602
      13A     -1.122531    14A     -1.051268    15A     -1.022525
      16A     -0.950657    17A     -0.893262    18A     -0.855887
      19A     -0.803873    20A     -0.711472    21A     -0.699537
      22A     -0.655509    23A     -0.640844    24A     -0.628150
      25A     -0.612973    26A     -0.604313    27A     -0.564443
      28A     -0.562125    29A     -0.547935    30A     -0.543830
      31A     -0.524330    32A     -0.504595    33A     -0.486810
      34A     -0.473778    35A     -0.417746    36A     -0.406626
      37A     -0.307145

  @DF-RHF Final Energy:  -438.81797745086601

   => Energetics <=

    Nuclear Repulsion Energy =            527.9183423354327260
    One-Electron Energy =               -1642.4857938736279266
    Two-Electron Energy =                 675.7494740873291903
    Total Energy =                       -438.8179774508660103
  Basis Set: (AUG-CC-PVTZ AUX)
    Blend: AUG-CC-PVTZ-RI
    Molecular point group: c1

    Geometry (in Angstrom), charge = 0, multiplicity = 1:

       Center              X                  Y                   Z               Mass
    ------------   -----------------  -----------------  -----------------  -----------------
         O            0.190979996345     2.205074050594    -0.000011536457    15.994914619570
         N           -0.213241003655    -0.077338949406    -0.000003536457    14.003074004430
         C           -1.668871003655     0.181139050594    -0.000005536457    12.000000000000
         C           -2.310261003655    -0.358668949406     1.272624463543    12.000000000000
         C           -2.310269003655    -0.358715949406    -1.272611536457    12.000000000000
         C            0.646408996345     1.051267050594    -0.000006536457    12.000000000000
         C            0.246329996345    -1.365516949406     0.000005463543    12.000000000000
         C            2.052990996345     0.714702050594    -0.000004536457    12.000000000000
         C            1.582547996345    -1.655721949406     0.000009463543    12.000000000000
         C            2.503513996345    -0.577503949406     0.000003463543    12.000000000000
         H           -1.734692003655     1.270772050594    -0.000024536457     1.007825032230
         H           -3.365125003655    -0.069704949406     1.304931463543     1.007825032230
         H           -2.260874003655    -1.450963949406     1.319881463543     1.007825032230
         H           -1.812601003655     0.051931050594     2.154874463543     1.007825032230
         H           -1.812610003655     0.051845050594    -2.154880536457     1.007825032230
         H           -3.365131003655    -0.069743949406    -1.304925536457     1.007825032230
         H           -2.260893003655    -1.451011949406    -1.319825536457     1.007825032230
         H           -0.514295003655    -2.139695949406     0.000010463543     1.007825032230
         H            2.735258996345     1.558810050594    -0.000008536457     1.007825032230
         H            1.910452996345    -2.689012949406     0.000017463543     1.007825032230
         H            3.572840996345    -0.777264949406     0.000006463543     1.007825032230

  Basis Set: AUG-CC-PVTZ
    Blend: AUG-CC-PVTZ
  Basis Set: (AUG-CC-PVTZ AUX)
    Blend: AUG-CC-PVTZ-JKFIT
	 Reference Energy          =    -438.8179774508660103 [Eh]
	 Singles Energy            =      -0.0000000000000000 [Eh]
	 Same-Spin Energy          =      -0.4679669174003284 [Eh]
	 Opposite-Spin Energy      =      -1.4972770296107016 [Eh]
	 Correlation Energy        =      -1.9652439470110301 [Eh]
	 Total Energy              =    -440.7832213978770142 [Eh]

	 ================> DF-SCS-MP2 Energies <==================
	-----------------------------------------------------------
	 SCS Same-Spin Scale       =       0.3333333333333333 [-]
	 SCS Opposite-Spin Scale   =       1.2000000000000000 [-]
	 SCS Same-Spin Energy      =      -0.1559889724667761 [Eh]
	 SCS Opposite-Spin Energy  =      -1.7967324355328420 [Eh]
	 SCS Correlation Energy    =      -1.9527214079996180 [Eh]
	 SCS Total Energy          =    -440.7706988588656145 [Eh]
	-----------------------------------------------------------

  Dipole Moment: [D]
     X:    -0.6655      Y:    -3.8697      Z:     0.0000     Total:     3.9265

*** Psi4 exiting successfully. Buy a developer a beer!
