                               Psi4 1.4a3.dev225

  ==> Input File <==

--------------------------------------------------------------------------
#psi4
#
memory 32 gb

molecule  {
0 1
  O        0.2506850     2.2433030    -0.0000120
  N       -0.1535360    -0.0391100    -0.0000040
  C       -1.6091660     0.2193680    -0.0000060
  C       -2.2505560    -0.3204400     1.2726240
  C       -2.2505640    -0.3204870    -1.2726120
  C        0.7061140     1.0894960    -0.0000070
  C        0.3060350    -1.3272880     0.0000050
  C        2.1126960     0.7529310    -0.0000050
  C        1.6422530    -1.6174930     0.0000090
  C        2.5632190    -0.5392750     0.0000030
  H       -1.6749870     1.3090010    -0.0000250
  H       -3.3054200    -0.0314760     1.3049310
  H       -2.2011690    -1.4127350     1.3198810
  H       -1.7528960     0.0901600     2.1548740
  H       -1.7786124     0.1936875    -2.1137480
  H       -3.3054260    -0.0315150    -1.3049260
  H       -2.2011880    -1.4127830    -1.3198260
  H       -0.4545900    -2.1014670     0.0000100
  H        2.7949640     1.5970390    -0.0000090
  H        1.9701580    -2.6507840     0.0000170
  H        3.6325460    -0.7390360     0.0000060
units angstrom
no_reorient  #important for SAPT in psi4, default
symmetry c1  #important for SAPT in psi4, default
}

set PROPERTIES_ORIGIN ["COM"]
properties('MP2/aug-cc-pvtz', properties = ['dipole'])
--------------------------------------------------------------------------

    Molecular point group: c1
  Charge       = 0
  Multiplicity = 1
  Basis Set: AUG-CC-PVTZ
    Blend: AUG-CC-PVTZ
  Basis Set: (AUG-CC-PVTZ AUX)
    Blend: AUG-CC-PVTZ-JKFIT

    Orbital Energies [Eh]
    ---------------------

    Doubly Occupied:

       1A    -20.505540     2A    -15.621469     3A    -11.350036
       4A    -11.305699     5A    -11.273487     6A    -11.268955
       7A    -11.238339     8A    -11.235256     9A    -11.228818
      10A    -11.228097    11A     -1.367099    12A     -1.277641
      13A     -1.122599    14A     -1.051455    15A     -1.022552
      16A     -0.950670    17A     -0.893081    18A     -0.855946
      19A     -0.803148    20A     -0.711163    21A     -0.699598
      22A     -0.654674    23A     -0.641333    24A     -0.628457
      25A     -0.613981    26A     -0.604501    27A     -0.566570
      28A     -0.563797    29A     -0.546130    30A     -0.543797
      31A     -0.523849    32A     -0.500596    33A     -0.488276
      34A     -0.473602    35A     -0.417848    36A     -0.406476
      37A     -0.307178

  @DF-RHF Final Energy:  -438.81661844722237

   => Energetics <=

    Nuclear Repulsion Energy =            527.9778026545385501
    One-Electron Energy =               -1642.6054145637569945
    Two-Electron Energy =                 675.8109934619961905
    Total Energy =                       -438.8166184472223676
  Basis Set: (AUG-CC-PVTZ AUX)
    Blend: AUG-CC-PVTZ-RI
    Molecular point group: c1

    Geometry (in Angstrom), charge = 0, multiplicity = 1:

       Center              X                  Y                   Z               Mass
    ------------   -----------------  -----------------  -----------------  -----------------
         O            0.191168993960     2.204312296996    -0.000313941170    15.994914619570
         N           -0.213052006040    -0.078100703004    -0.000305941170    14.003074004430
         C           -1.668682006040     0.180377296996    -0.000307941170    12.000000000000
         C           -2.310072006040    -0.359430703004     1.272322058830    12.000000000000
         C           -2.310080006040    -0.359477703004    -1.272913941170    12.000000000000
         C            0.646597993960     1.050505296996    -0.000308941170    12.000000000000
         C            0.246518993960    -1.366278703004    -0.000296941170    12.000000000000
         C            2.053179993960     0.713940296996    -0.000306941170    12.000000000000
         C            1.582736993960    -1.656483703004    -0.000292941170    12.000000000000
         C            2.503702993960    -0.578265703004    -0.000298941170    12.000000000000
         H           -1.734503006040     1.270010296996    -0.000326941170     1.007825032230
         H           -3.364936006040    -0.070466703004     1.304629058830     1.007825032230
         H           -2.260685006040    -1.451725703004     1.319579058830     1.007825032230
         H           -1.812412006040     0.051169296996     2.154572058830     1.007825032230
         H           -1.838128406040     0.154696796996    -2.114049941170     1.007825032230
         H           -3.364942006040    -0.070505703004    -1.305227941170     1.007825032230
         H           -2.260704006040    -1.451773703004    -1.320127941170     1.007825032230
         H           -0.514106006040    -2.140457703004    -0.000291941170     1.007825032230
         H            2.735447993960     1.558048296996    -0.000310941170     1.007825032230
         H            1.910641993960    -2.689774703004    -0.000284941170     1.007825032230
         H            3.573029993960    -0.778026703004    -0.000295941170     1.007825032230

  Basis Set: AUG-CC-PVTZ
    Blend: AUG-CC-PVTZ
  Basis Set: (AUG-CC-PVTZ AUX)
    Blend: AUG-CC-PVTZ-JKFIT
	 Reference Energy          =    -438.8166184472223676 [Eh]
	 Singles Energy            =      -0.0000000000000000 [Eh]
	 Same-Spin Energy          =      -0.4680566398616557 [Eh]
	 Opposite-Spin Energy      =      -1.4974433280072583 [Eh]
	 Correlation Energy        =      -1.9654999678689140 [Eh]
	 Total Energy              =    -440.7821184150913041 [Eh]

	 ================> DF-SCS-MP2 Energies <==================
	-----------------------------------------------------------
	 SCS Same-Spin Scale       =       0.3333333333333333 [-]
	 SCS Opposite-Spin Scale   =       1.2000000000000000 [-]
	 SCS Same-Spin Energy      =      -0.1560188799538852 [Eh]
	 SCS Opposite-Spin Energy  =      -1.7969319936087100 [Eh]
	 SCS Correlation Energy    =      -1.9529508735625953 [Eh]
	 SCS Total Energy          =    -440.7695693207849672 [Eh]
	-----------------------------------------------------------

  Dipole Moment: [D]
     X:    -0.6770      Y:    -3.8468      Z:     0.0033     Total:     3.9059

*** Psi4 exiting successfully. Buy a developer a beer!
