                               Psi4 1.4a3.dev225

  ==> Input File <==

--------------------------------------------------------------------------
#psi4
#
memory 32 gb

molecule  {
0 1
  O        0.2506850     2.2433030    -0.0000120
  N       -0.1535360    -0.0391100    -0.0000040
  C       -1.6091660     0.2193680    -0.0000060
  C       -2.2505560    -0.3204400     1.2726240
  C       -2.2505640    -0.3204870    -1.2726120
  C        0.7061140     1.0894960    -0.0000070
  C        0.3060350    -1.3272880     0.0000050
  C        2.1126960     0.7529310    -0.0000050
  C        1.6422530    -1.6174930     0.0000090
  C        2.5632190    -0.5392750     0.0000030
  H       -1.6749870     1.3090010    -0.0000250
  H       -3.3054200    -0.0314760     1.3049310
  H       -2.2011690    -1.4127350     1.3198810
  H       -1.7528960     0.0901600     2.1548740
  H       -1.7529050     0.0900740    -2.1548810
  H       -3.3054260    -0.0315150    -1.3049260
  H       -2.2011880    -1.4127830    -1.3198260
  H       -0.4195483    -2.0658008     0.0000098
  H        2.7949640     1.5970390    -0.0000090
  H        1.9701580    -2.6507840     0.0000170
  H        3.6325460    -0.7390360     0.0000060
units angstrom
no_reorient  #important for SAPT in psi4, default
symmetry c1  #important for SAPT in psi4, default
}

set PROPERTIES_ORIGIN ["COM"]
properties('MP2/aug-cc-pvtz', properties = ['dipole'])
--------------------------------------------------------------------------

    Molecular point group: c1
  Charge       = 0
  Multiplicity = 1
  Basis Set: AUG-CC-PVTZ
    Blend: AUG-CC-PVTZ
  Basis Set: (AUG-CC-PVTZ AUX)
    Blend: AUG-CC-PVTZ-JKFIT

    Orbital Energies [Eh]
    ---------------------

    Doubly Occupied:

       1A    -20.505239     2A    -15.621068     3A    -11.349691
       4A    -11.300073     5A    -11.274153     6A    -11.268709
       7A    -11.238134     8A    -11.235219     9A    -11.228879
      10A    -11.228863    11A     -1.366827    12A     -1.277758
      13A     -1.122464    14A     -1.051311    15A     -1.024535
      16A     -0.950754    17A     -0.895049    18A     -0.857100
      19A     -0.804821    20A     -0.713862    21A     -0.702500
      22A     -0.658546    23A     -0.640989    24A     -0.628035
      25A     -0.613342    26A     -0.606146    27A     -0.564684
      28A     -0.562155    29A     -0.547960    30A     -0.544571
      31A     -0.524225    32A     -0.504631    33A     -0.487411
      34A     -0.473645    35A     -0.417691    36A     -0.406463
      37A     -0.307058

  @DF-RHF Final Energy:  -438.81733430528186

   => Energetics <=

    Nuclear Repulsion Energy =            528.1796389033502237
    One-Electron Energy =               -1642.9848292826070519
    Two-Electron Energy =                 675.9878560739749673
    Total Energy =                       -438.8173343052818609
  Basis Set: (AUG-CC-PVTZ AUX)
    Blend: AUG-CC-PVTZ-RI
    Molecular point group: c1

    Geometry (in Angstrom), charge = 0, multiplicity = 1:

       Center              X                  Y                   Z               Mass
    ------------   -----------------  -----------------  -----------------  -----------------
         O            0.190722374114     2.204811837116    -0.000011534987    15.994914619570
         N           -0.213498625886    -0.077601162884    -0.000003534987    14.003074004430
         C           -1.669128625886     0.180876837116    -0.000005534987    12.000000000000
         C           -2.310518625886    -0.358931162884     1.272624465013    12.000000000000
         C           -2.310526625886    -0.358978162884    -1.272611534987    12.000000000000
         C            0.646151374114     1.051004837116    -0.000006534987    12.000000000000
         C            0.246072374114    -1.365779162884     0.000005465013    12.000000000000
         C            2.052733374114     0.714439837116    -0.000004534987    12.000000000000
         C            1.582290374114    -1.655984162884     0.000009465013    12.000000000000
         C            2.503256374114    -0.577766162884     0.000003465013    12.000000000000
         H           -1.734949625886     1.270509837116    -0.000024534987     1.007825032230
         H           -3.365382625886    -0.069967162884     1.304931465013     1.007825032230
         H           -2.261131625886    -1.451226162884     1.319881465013     1.007825032230
         H           -1.812858625886     0.051668837116     2.154874465013     1.007825032230
         H           -1.812867625886     0.051582837116    -2.154880534987     1.007825032230
         H           -3.365388625886    -0.070006162884    -1.304925534987     1.007825032230
         H           -2.261150625886    -1.451274162884    -1.319825534987     1.007825032230
         H           -0.479510925886    -2.104291962884     0.000010265013     1.007825032230
         H            2.735001374114     1.558547837116    -0.000008534987     1.007825032230
         H            1.910195374114    -2.689275162884     0.000017465013     1.007825032230
         H            3.572583374114    -0.777527162884     0.000006465013     1.007825032230

  Basis Set: AUG-CC-PVTZ
    Blend: AUG-CC-PVTZ
  Basis Set: (AUG-CC-PVTZ AUX)
    Blend: AUG-CC-PVTZ-JKFIT
	 Reference Energy          =    -438.8173343052818609 [Eh]
	 Singles Energy            =      -0.0000000000000000 [Eh]
	 Same-Spin Energy          =      -0.4677698890370390 [Eh]
	 Opposite-Spin Energy      =      -1.4968777728266980 [Eh]
	 Correlation Energy        =      -1.9646476618637370 [Eh]
	 Total Energy              =    -440.7819819671456116 [Eh]

	 ================> DF-SCS-MP2 Energies <==================
	-----------------------------------------------------------
	 SCS Same-Spin Scale       =       0.3333333333333333 [-]
	 SCS Opposite-Spin Scale   =       1.2000000000000000 [-]
	 SCS Same-Spin Energy      =      -0.1559232963456797 [Eh]
	 SCS Opposite-Spin Energy  =      -1.7962533273920376 [Eh]
	 SCS Correlation Energy    =      -1.9521766237377172 [Eh]
	 SCS Total Energy          =    -440.7695109290195887 [Eh]
	-----------------------------------------------------------

  Dipole Moment: [D]
     X:    -0.6694      Y:    -3.8761      Z:     0.0000     Total:     3.9335

*** Psi4 exiting successfully. Buy a developer a beer!
