                               Psi4 1.4a3.dev225

  ==> Input File <==

--------------------------------------------------------------------------
#psi4
#
memory 32 gb

molecule  {
0 1
  O        0.2506850     2.2433030    -0.0000120
  N       -0.1535360    -0.0391100    -0.0000040
  C       -1.6091660     0.2193680    -0.0000060
  C       -2.2505560    -0.3204400     1.2726240
  C       -2.2505640    -0.3204870    -1.2726120
  C        0.7061140     1.0894960    -0.0000070
  C        0.3060350    -1.3272880     0.0000050
  C        2.1126960     0.7529310    -0.0000050
  C        1.6422530    -1.6174930     0.0000090
  C        2.5467584    -0.4920622     0.0000027
  H       -1.6749870     1.3090010    -0.0000250
  H       -3.3054200    -0.0314760     1.3049310
  H       -2.2011690    -1.4127350     1.3198810
  H       -1.7528960     0.0901600     2.1548740
  H       -1.7529050     0.0900740    -2.1548810
  H       -3.3054260    -0.0315150    -1.3049260
  H       -2.2011880    -1.4127830    -1.3198260
  H       -0.4545900    -2.1014670     0.0000100
  H        2.7949640     1.5970390    -0.0000090
  H        1.9701580    -2.6507840     0.0000170
  H        3.6325460    -0.7390360     0.0000060
units angstrom
no_reorient  #important for SAPT in psi4, default
symmetry c1  #important for SAPT in psi4, default
}

set PROPERTIES_ORIGIN ["COM"]
properties('MP2/aug-cc-pvtz', properties = ['dipole'])
--------------------------------------------------------------------------

    Molecular point group: c1
  Charge       = 0
  Multiplicity = 1
  Basis Set: AUG-CC-PVTZ
    Blend: AUG-CC-PVTZ
  Basis Set: (AUG-CC-PVTZ AUX)
    Blend: AUG-CC-PVTZ-JKFIT

    Orbital Energies [Eh]
    ---------------------

    Doubly Occupied:

       1A    -20.508726     2A    -15.618830     3A    -11.351892
       4A    -11.302791     5A    -11.273614     6A    -11.265547
       7A    -11.238618     8A    -11.231017     9A    -11.228168
      10A    -11.228152    11A     -1.368770    12A     -1.277352
      13A     -1.124998    14A     -1.052791    15A     -1.024335
      16A     -0.950096    17A     -0.888223    18A     -0.858304
      19A     -0.801889    20A     -0.710755    21A     -0.699570
      22A     -0.654409    23A     -0.641062    24A     -0.628186
      25A     -0.612911    26A     -0.605356    27A     -0.565863
      28A     -0.561920    29A     -0.548192    30A     -0.541303
      31A     -0.521170    32A     -0.504658    33A     -0.485237
      34A     -0.473101    35A     -0.419144    36A     -0.411688
      37A     -0.310580

  @DF-RHF Final Energy:  -438.81673050773065

   => Energetics <=

    Nuclear Repulsion Energy =            528.5101377011375234
    One-Electron Energy =               -1643.6752997885732839
    Two-Electron Energy =                 676.3484315797052204
    Total Energy =                       -438.8167305077306537
  Basis Set: (AUG-CC-PVTZ AUX)
    Blend: AUG-CC-PVTZ-RI
    Molecular point group: c1

    Geometry (in Angstrom), charge = 0, multiplicity = 1:

       Center              X                  Y                   Z               Mass
    ------------   -----------------  -----------------  -----------------  -----------------
         O            0.192420916568     2.200941158822    -0.000011510196    15.994914619570
         N           -0.211800083432    -0.081471841178    -0.000003510196    14.003074004430
         C           -1.667430083432     0.177006158822    -0.000005510196    12.000000000000
         C           -2.308820083432    -0.362801841178     1.272624489804    12.000000000000
         C           -2.308828083432    -0.362848841178    -1.272611510196    12.000000000000
         C            0.647849916568     1.047134158822    -0.000006510196    12.000000000000
         C            0.247770916568    -1.369649841178     0.000005489804    12.000000000000
         C            2.054431916568     0.710569158822    -0.000004510196    12.000000000000
         C            1.583988916568    -1.659854841178     0.000009489804    12.000000000000
         C            2.488494316568    -0.534424041178     0.000003189804    12.000000000000
         H           -1.733251083432     1.266639158822    -0.000024510196     1.007825032230
         H           -3.363684083432    -0.073837841178     1.304931489804     1.007825032230
         H           -2.259433083432    -1.455096841178     1.319881489804     1.007825032230
         H           -1.811160083432     0.047798158822     2.154874489804     1.007825032230
         H           -1.811169083432     0.047712158822    -2.154880510196     1.007825032230
         H           -3.363690083432    -0.073876841178    -1.304925510196     1.007825032230
         H           -2.259452083432    -1.455144841178    -1.319825510196     1.007825032230
         H           -0.512854083432    -2.143828841178     0.000010489804     1.007825032230
         H            2.736699916568     1.554677158822    -0.000008510196     1.007825032230
         H            1.911893916568    -2.693145841178     0.000017489804     1.007825032230
         H            3.574281916568    -0.781397841178     0.000006489804     1.007825032230

  Basis Set: AUG-CC-PVTZ
    Blend: AUG-CC-PVTZ
  Basis Set: (AUG-CC-PVTZ AUX)
    Blend: AUG-CC-PVTZ-JKFIT
	 Reference Energy          =    -438.8167305077306537 [Eh]
	 Singles Energy            =      -0.0000000000000000 [Eh]
	 Same-Spin Energy          =      -0.4669496212983861 [Eh]
	 Opposite-Spin Energy      =      -1.4962136727990021 [Eh]
	 Correlation Energy        =      -1.9631632940973882 [Eh]
	 Total Energy              =    -440.7798938018280523 [Eh]

	 ================> DF-SCS-MP2 Energies <==================
	-----------------------------------------------------------
	 SCS Same-Spin Scale       =       0.3333333333333333 [-]
	 SCS Opposite-Spin Scale   =       1.2000000000000000 [-]
	 SCS Same-Spin Energy      =      -0.1556498737661287 [Eh]
	 SCS Opposite-Spin Energy  =      -1.7954564073588024 [Eh]
	 SCS Correlation Energy    =      -1.9511062811249311 [Eh]
	 SCS Total Energy          =    -440.7678367888555613 [Eh]
	-----------------------------------------------------------

  Dipole Moment: [D]
     X:    -0.6434      Y:    -3.7870      Z:     0.0000     Total:     3.8413

*** Psi4 exiting successfully. Buy a developer a beer!
