                               Psi4 1.4a3.dev225

  ==> Input File <==

--------------------------------------------------------------------------
#psi4
#
memory 32 gb

molecule  {
0 1
  O        0.2506850     2.2433030    -0.0000120
  N       -0.1535360    -0.0391100    -0.0000040
  C       -1.6091660     0.2193680    -0.0000060
  C       -2.2505560    -0.3204400     1.2726240
  C       -2.2505640    -0.3204870    -1.2726120
  C        0.7061140     1.0894960    -0.0000070
  C        0.3060350    -1.3272880     0.0000050
  C        2.1126960     0.7529310    -0.0000050
  C        1.4468093    -1.5750458     0.0000084
  C        2.5632190    -0.5392750     0.0000030
  H       -1.6749870     1.3090010    -0.0000250
  H       -3.3054200    -0.0314760     1.3049310
  H       -2.2011690    -1.4127350     1.3198810
  H       -1.7528960     0.0901600     2.1548740
  H       -1.7529050     0.0900740    -2.1548810
  H       -3.3054260    -0.0315150    -1.3049260
  H       -2.2011880    -1.4127830    -1.3198260
  H       -0.4545900    -2.1014670     0.0000100
  H        2.7949640     1.5970390    -0.0000090
  H        1.9701580    -2.6507840     0.0000170
  H        3.6325460    -0.7390360     0.0000060
units angstrom
no_reorient  #important for SAPT in psi4, default
symmetry c1  #important for SAPT in psi4, default
}

set PROPERTIES_ORIGIN ["COM"]
properties('MP2/aug-cc-pvtz', properties = ['dipole'])
--------------------------------------------------------------------------

    Molecular point group: c1
  Charge       = 0
  Multiplicity = 1
  Basis Set: AUG-CC-PVTZ
    Blend: AUG-CC-PVTZ
  Basis Set: (AUG-CC-PVTZ AUX)
    Blend: AUG-CC-PVTZ-JKFIT

    Orbital Energies [Eh]
    ---------------------

    Doubly Occupied:

       1A    -20.511420     2A    -15.602153     3A    -11.353084
       4A    -11.278970     5A    -11.267745     6A    -11.262650
       7A    -11.244208     8A    -11.230176     9A    -11.223714
      10A    -11.223698    11A     -1.368772    12A     -1.278113
      13A     -1.128581    14A     -1.054467    15A     -1.040164
      16A     -0.945684    17A     -0.884696    18A     -0.847761
      19A     -0.805682    20A     -0.710791    21A     -0.698542
      22A     -0.650110    23A     -0.635019    24A     -0.628190
      25A     -0.616485    26A     -0.604200    27A     -0.576573
      28A     -0.560032    29A     -0.544992    30A     -0.524977
      31A     -0.504853    32A     -0.501577    33A     -0.489977
      34A     -0.469273    35A     -0.421357    36A     -0.397854
      37A     -0.334944

  @DF-RHF Final Energy:  -438.75507495322853

   => Energetics <=

    Nuclear Repulsion Energy =            531.1221111938598369
    One-Electron Energy =               -1648.9114017232786864
    Two-Electron Energy =                 679.0342155761902632
    Total Energy =                       -438.7550749532285863
  Basis Set: (AUG-CC-PVTZ AUX)
    Blend: AUG-CC-PVTZ-RI
    Molecular point group: c1

    Geometry (in Angstrom), charge = 0, multiplicity = 1:

       Center              X                  Y                   Z               Mass
    ------------   -----------------  -----------------  -----------------  -----------------
         O            0.208088654579     2.201358327663    -0.000011483934    15.994914619570
         N           -0.196132345421    -0.081054672337    -0.000003483934    14.003074004430
         C           -1.651762345421     0.177423327663    -0.000005483934    12.000000000000
         C           -2.293152345421    -0.362384672337     1.272624516066    12.000000000000
         C           -2.293160345421    -0.362431672337    -1.272611483934    12.000000000000
         C            0.663517654579     1.047551327663    -0.000006483934    12.000000000000
         C            0.263438654579    -1.369232672337     0.000005516066    12.000000000000
         C            2.070099654579     0.710986327663    -0.000004483934    12.000000000000
         C            1.404212954579    -1.616990472337     0.000008916066    12.000000000000
         C            2.520622654579    -0.581219672337     0.000003516066    12.000000000000
         H           -1.717583345421     1.267056327663    -0.000024483934     1.007825032230
         H           -3.348016345421    -0.073420672337     1.304931516066     1.007825032230
         H           -2.243765345421    -1.454679672337     1.319881516066     1.007825032230
         H           -1.795492345421     0.048215327663     2.154874516066     1.007825032230
         H           -1.795501345421     0.048129327663    -2.154880483934     1.007825032230
         H           -3.348022345421    -0.073459672337    -1.304925483934     1.007825032230
         H           -2.243784345421    -1.454727672337    -1.319825483934     1.007825032230
         H           -0.497186345421    -2.143411672337     0.000010516066     1.007825032230
         H            2.752367654579     1.555094327663    -0.000008483934     1.007825032230
         H            1.927561654579    -2.692728672337     0.000017516066     1.007825032230
         H            3.589949654579    -0.780980672337     0.000006516066     1.007825032230

  Basis Set: AUG-CC-PVTZ
    Blend: AUG-CC-PVTZ
  Basis Set: (AUG-CC-PVTZ AUX)
    Blend: AUG-CC-PVTZ-JKFIT
	 Reference Energy          =    -438.7550749532285295 [Eh]
	 Singles Energy            =      -0.0000000000000000 [Eh]
	 Same-Spin Energy          =      -0.4649857900649068 [Eh]
	 Opposite-Spin Energy      =      -1.4951638571167873 [Eh]
	 Correlation Energy        =      -1.9601496471816942 [Eh]
	 Total Energy              =    -440.7152246004102381 [Eh]

	 ================> DF-SCS-MP2 Energies <==================
	-----------------------------------------------------------
	 SCS Same-Spin Scale       =       0.3333333333333333 [-]
	 SCS Opposite-Spin Scale   =       1.2000000000000000 [-]
	 SCS Same-Spin Energy      =      -0.1549952633549689 [Eh]
	 SCS Opposite-Spin Energy  =      -1.7941966285401447 [Eh]
	 SCS Correlation Energy    =      -1.9491918918951137 [Eh]
	 SCS Total Energy          =    -440.7042668451236409 [Eh]
	-----------------------------------------------------------

  Dipole Moment: [D]
     X:    -0.2134      Y:    -3.6664      Z:     0.0000     Total:     3.6726

*** Psi4 exiting successfully. Buy a developer a beer!
