                               Psi4 1.4a3.dev225

  ==> Input File <==

--------------------------------------------------------------------------
#psi4
#
memory 32 gb

molecule  {
0 1
  O        0.2506850     2.2433030    -0.0000120
  N       -0.1535360    -0.0391100    -0.0000040
  C       -1.6091660     0.2193680    -0.0000060
  C       -2.2084681    -0.2850179     1.1891142
  C       -2.2505640    -0.3204870    -1.2726120
  C        0.7061140     1.0894960    -0.0000070
  C        0.3060350    -1.3272880     0.0000050
  C        2.1126960     0.7529310    -0.0000050
  C        1.6422530    -1.6174930     0.0000090
  C        2.5632190    -0.5392750     0.0000030
  H       -1.6749870     1.3090010    -0.0000250
  H       -3.3054200    -0.0314760     1.3049310
  H       -2.2011690    -1.4127350     1.3198810
  H       -1.7528960     0.0901600     2.1548740
  H       -1.7529050     0.0900740    -2.1548810
  H       -3.3054260    -0.0315150    -1.3049260
  H       -2.2011880    -1.4127830    -1.3198260
  H       -0.4545900    -2.1014670     0.0000100
  H        2.7949640     1.5970390    -0.0000090
  H        1.9701580    -2.6507840     0.0000170
  H        3.6325460    -0.7390360     0.0000060
units angstrom
no_reorient  #important for SAPT in psi4, default
symmetry c1  #important for SAPT in psi4, default
}

set PROPERTIES_ORIGIN ["COM"]
properties('MP2/aug-cc-pvtz', properties = ['dipole'])
--------------------------------------------------------------------------

    Molecular point group: c1
  Charge       = 0
  Multiplicity = 1
  Basis Set: AUG-CC-PVTZ
    Blend: AUG-CC-PVTZ
  Basis Set: (AUG-CC-PVTZ AUX)
    Blend: AUG-CC-PVTZ-JKFIT

    Orbital Energies [Eh]
    ---------------------

    Doubly Occupied:

       1A    -20.505762     2A    -15.621336     3A    -11.350232
       4A    -11.305632     5A    -11.269733     6A    -11.269030
       7A    -11.238286     8A    -11.235268     9A    -11.234233
      10A    -11.229044    11A     -1.367589    12A     -1.279515
      13A     -1.127715    14A     -1.061159    15A     -1.022692
      16A     -0.950912    17A     -0.892309    18A     -0.855858
      19A     -0.802952    20A     -0.713881    21A     -0.701084
      22A     -0.658506    23A     -0.642176    24A     -0.632932
      25A     -0.616681    26A     -0.604781    27A     -0.564611
      28A     -0.559312    29A     -0.544632    30A     -0.542156
      31A     -0.521749    32A     -0.504419    33A     -0.480833
      34A     -0.472153    35A     -0.417410    36A     -0.408463
      37A     -0.307422

  @DF-RHF Final Energy:  -438.80611848223748

   => Energetics <=

    Nuclear Repulsion Energy =            529.7817779703789256
    One-Electron Energy =               -1646.1508700642684744
    Two-Electron Energy =                 677.5629736116520689
    Total Energy =                       -438.8061184822374798
  Basis Set: (AUG-CC-PVTZ AUX)
    Blend: AUG-CC-PVTZ-RI
    Molecular point group: c1

    Geometry (in Angstrom), charge = 0, multiplicity = 1:

       Center              X                  Y                   Z               Mass
    ------------   -----------------  -----------------  -----------------  -----------------
         O            0.187295725647     2.201973287546     0.007298704945    15.994914619570
         N           -0.216925274353    -0.080439712454     0.007306704945    14.003074004430
         C           -1.672555274353     0.178038287546     0.007304704945    12.000000000000
         C           -2.271857374353    -0.326347612454     1.196424904945    12.000000000000
         C           -2.313953274353    -0.361816712454    -1.265301295055    12.000000000000
         C            0.642724725647     1.048166287546     0.007303704945    12.000000000000
         C            0.242645725647    -1.368617712454     0.007315704945    12.000000000000
         C            2.049306725647     0.711601287546     0.007305704945    12.000000000000
         C            1.578863725647    -1.658822712454     0.007319704945    12.000000000000
         C            2.499829725647    -0.580604712454     0.007313704945    12.000000000000
         H           -1.738376274353     1.267671287546     0.007285704945     1.007825032230
         H           -3.368809274353    -0.072805712454     1.312241704945     1.007825032230
         H           -2.264558274353    -1.454064712454     1.327191704945     1.007825032230
         H           -1.816285274353     0.048830287546     2.162184704945     1.007825032230
         H           -1.816294274353     0.048744287546    -2.147570295055     1.007825032230
         H           -3.368815274353    -0.072844712454    -1.297615295055     1.007825032230
         H           -2.264577274353    -1.454112712454    -1.312515295055     1.007825032230
         H           -0.517979274353    -2.142796712454     0.007320704945     1.007825032230
         H            2.731574725647     1.555709287546     0.007301704945     1.007825032230
         H            1.906768725647    -2.692113712454     0.007327704945     1.007825032230
         H            3.569156725647    -0.780365712454     0.007316704945     1.007825032230

  Basis Set: AUG-CC-PVTZ
    Blend: AUG-CC-PVTZ
  Basis Set: (AUG-CC-PVTZ AUX)
    Blend: AUG-CC-PVTZ-JKFIT
	 Reference Energy          =    -438.8061184822374798 [Eh]
	 Singles Energy            =      -0.0000000000000000 [Eh]
	 Same-Spin Energy          =      -0.4690879626093340 [Eh]
	 Opposite-Spin Energy      =      -1.4985617106920615 [Eh]
	 Correlation Energy        =      -1.9676496733013955 [Eh]
	 Total Energy              =    -440.7737681555389031 [Eh]

	 ================> DF-SCS-MP2 Energies <==================
	-----------------------------------------------------------
	 SCS Same-Spin Scale       =       0.3333333333333333 [-]
	 SCS Opposite-Spin Scale   =       1.2000000000000000 [-]
	 SCS Same-Spin Energy      =      -0.1563626542031113 [Eh]
	 SCS Opposite-Spin Energy  =      -1.7982740528304737 [Eh]
	 SCS Correlation Energy    =      -1.9546367070335851 [Eh]
	 SCS Total Energy          =    -440.7607551892710376 [Eh]
	-----------------------------------------------------------

  Dipole Moment: [D]
     X:    -0.6695      Y:    -3.8602      Z:     0.0141     Total:     3.9178

*** Psi4 exiting successfully. Buy a developer a beer!
