                               Psi4 1.4a3.dev225

  ==> Input File <==

--------------------------------------------------------------------------
#psi4
#
memory 32 gb

molecule  {
0 1
  O        0.2506850     2.2433030    -0.0000120
  N       -0.1535360    -0.0391100    -0.0000040
  C       -1.6091660     0.2193680    -0.0000060
  C       -2.2505560    -0.3204400     1.2726240
  C       -2.2505640    -0.3204870    -1.2726120
  C        0.7061140     1.0894960    -0.0000070
  C        0.3060350    -1.3272880     0.0000050
  C        2.1126960     0.7529310    -0.0000050
  C        1.6422530    -1.6174930     0.0000090
  C        2.5632190    -0.5392750     0.0000030
  H       -1.6870463     1.5086371    -0.0000285
  H       -3.3054200    -0.0314760     1.3049310
  H       -2.2011690    -1.4127350     1.3198810
  H       -1.7528960     0.0901600     2.1548740
  H       -1.7529050     0.0900740    -2.1548810
  H       -3.3054260    -0.0315150    -1.3049260
  H       -2.2011880    -1.4127830    -1.3198260
  H       -0.4545900    -2.1014670     0.0000100
  H        2.7949640     1.5970390    -0.0000090
  H        1.9701580    -2.6507840     0.0000170
  H        3.6325460    -0.7390360     0.0000060
units angstrom
no_reorient  #important for SAPT in psi4, default
symmetry c1  #important for SAPT in psi4, default
}

set PROPERTIES_ORIGIN ["COM"]
properties('MP2/aug-cc-pvtz', properties = ['dipole'])
--------------------------------------------------------------------------

    Molecular point group: c1
  Charge       = 0
  Multiplicity = 1
  Basis Set: AUG-CC-PVTZ
    Blend: AUG-CC-PVTZ
  Basis Set: (AUG-CC-PVTZ AUX)
    Blend: AUG-CC-PVTZ-JKFIT

    Orbital Energies [Eh]
    ---------------------

    Doubly Occupied:

       1A    -20.505939     2A    -15.622931     3A    -11.350489
       4A    -11.306527     5A    -11.290696     6A    -11.269443
       7A    -11.238924     8A    -11.235817     9A    -11.228743
      10A    -11.228728    11A     -1.367475    12A     -1.277872
      13A     -1.120767    14A     -1.047327    15A     -1.023076
      16A     -0.950084    17A     -0.890778    18A     -0.856448
      19A     -0.793528    20A     -0.705872    21A     -0.698580
      22A     -0.654384    23A     -0.636412    24A     -0.628355
      25A     -0.609355    26A     -0.603004    27A     -0.564652
      28A     -0.561377    29A     -0.547584    30A     -0.543771
      31A     -0.522975    32A     -0.504632    33A     -0.474450
      34A     -0.464557    35A     -0.410459    36A     -0.407128
      37A     -0.307802

  @DF-RHF Final Energy:  -438.79561358065052

   => Energetics <=

    Nuclear Repulsion Energy =            527.0359372905512600
    One-Electron Energy =               -1640.7612207846352703
    Two-Electron Energy =                 674.9296699134335995
    Total Energy =                       -438.7956135806505245
  Basis Set: (AUG-CC-PVTZ AUX)
    Blend: AUG-CC-PVTZ-RI
    Molecular point group: c1

    Geometry (in Angstrom), charge = 0, multiplicity = 1:

       Center              X                  Y                   Z               Mass
    ------------   -----------------  -----------------  -----------------  -----------------
         O            0.191068654822     2.203606350753    -0.000011510725    15.994914619570
         N           -0.213152345178    -0.078806649247    -0.000003510725    14.003074004430
         C           -1.668782345178     0.179671350753    -0.000005510725    12.000000000000
         C           -2.310172345178    -0.360136649247     1.272624489275    12.000000000000
         C           -2.310180345178    -0.360183649247    -1.272611510725    12.000000000000
         C            0.646497654822     1.049799350753    -0.000006510725    12.000000000000
         C            0.246418654822    -1.366984649247     0.000005489275    12.000000000000
         C            2.053079654822     0.713234350753    -0.000004510725    12.000000000000
         C            1.582636654822    -1.657189649247     0.000009489275    12.000000000000
         C            2.503602654822    -0.578971649247     0.000003489275    12.000000000000
         H           -1.746662645178     1.468940450753    -0.000028010725     1.007825032230
         H           -3.365036345178    -0.071172649247     1.304931489275     1.007825032230
         H           -2.260785345178    -1.452431649247     1.319881489275     1.007825032230
         H           -1.812512345178     0.050463350753     2.154874489275     1.007825032230
         H           -1.812521345178     0.050377350753    -2.154880510725     1.007825032230
         H           -3.365042345178    -0.071211649247    -1.304925510725     1.007825032230
         H           -2.260804345178    -1.452479649247    -1.319825510725     1.007825032230
         H           -0.514206345178    -2.141163649247     0.000010489275     1.007825032230
         H            2.735347654822     1.557342350753    -0.000008510725     1.007825032230
         H            1.910541654822    -2.690480649247     0.000017489275     1.007825032230
         H            3.572929654822    -0.778732649247     0.000006489275     1.007825032230

  Basis Set: AUG-CC-PVTZ
    Blend: AUG-CC-PVTZ
  Basis Set: (AUG-CC-PVTZ AUX)
    Blend: AUG-CC-PVTZ-JKFIT
	 Reference Energy          =    -438.7956135806505245 [Eh]
	 Singles Energy            =      -0.0000000000000000 [Eh]
	 Same-Spin Energy          =      -0.4691716643162211 [Eh]
	 Opposite-Spin Energy      =      -1.5001847103360348 [Eh]
	 Correlation Energy        =      -1.9693563746522560 [Eh]
	 Total Energy              =    -440.7649699553027745 [Eh]

	 ================> DF-SCS-MP2 Energies <==================
	-----------------------------------------------------------
	 SCS Same-Spin Scale       =       0.3333333333333333 [-]
	 SCS Opposite-Spin Scale   =       1.2000000000000000 [-]
	 SCS Same-Spin Energy      =      -0.1563905547720737 [Eh]
	 SCS Opposite-Spin Energy  =      -1.8002216524032417 [Eh]
	 SCS Correlation Energy    =      -1.9566122071753154 [Eh]
	 SCS Total Energy          =    -440.7522257878258642 [Eh]
	-----------------------------------------------------------

  Dipole Moment: [D]
     X:    -0.5588      Y:    -3.8165      Z:     0.0000     Total:     3.8572

*** Psi4 exiting successfully. Buy a developer a beer!
