                               Psi4 1.4a3.dev225

  ==> Input File <==

--------------------------------------------------------------------------
#psi4
#
memory 32 gb

molecule  {
0 1
  O        0.2506850     2.2433030    -0.0000120
  N       -0.1535360    -0.0391100    -0.0000040
  C       -1.6091660     0.2193680    -0.0000060
  C       -2.2505560    -0.3204400     1.2726240
  C       -2.2505640    -0.3204870    -1.2726120
  C        0.7061140     1.0894960    -0.0000070
  C        0.3060350    -1.3272880     0.0000050
  C        2.0640687     0.7645665    -0.0000051
  C        1.6422530    -1.6174930     0.0000090
  C        2.5632190    -0.5392750     0.0000030
  H       -1.6749870     1.3090010    -0.0000250
  H       -3.3054200    -0.0314760     1.3049310
  H       -2.2011690    -1.4127350     1.3198810
  H       -1.7528960     0.0901600     2.1548740
  H       -1.7529050     0.0900740    -2.1548810
  H       -3.3054260    -0.0315150    -1.3049260
  H       -2.2011880    -1.4127830    -1.3198260
  H       -0.4545900    -2.1014670     0.0000100
  H        2.7949640     1.5970390    -0.0000090
  H        1.9701580    -2.6507840     0.0000170
  H        3.6325460    -0.7390360     0.0000060
units angstrom
no_reorient  #important for SAPT in psi4, default
symmetry c1  #important for SAPT in psi4, default
}

set PROPERTIES_ORIGIN ["COM"]
properties('MP2/aug-cc-pvtz', properties = ['dipole'])
--------------------------------------------------------------------------

    Molecular point group: c1
  Charge       = 0
  Multiplicity = 1
  Basis Set: AUG-CC-PVTZ
    Blend: AUG-CC-PVTZ
  Basis Set: (AUG-CC-PVTZ AUX)
    Blend: AUG-CC-PVTZ-JKFIT

    Orbital Energies [Eh]
    ---------------------

    Doubly Occupied:

       1A    -20.499345     2A    -15.623166     3A    -11.343120
       4A    -11.307866     5A    -11.275633     6A    -11.274214
       7A    -11.239744     8A    -11.233955     9A    -11.229005
      10A    -11.228990    11A     -1.365365    12A     -1.277431
      13A     -1.122585    14A     -1.050026    15A     -1.026318
      16A     -0.950856    17A     -0.898688    18A     -0.854435
      19A     -0.805578    20A     -0.712274    21A     -0.700703
      22A     -0.656076    23A     -0.637789    24A     -0.628906
      25A     -0.612990    26A     -0.604313    27A     -0.566524
      28A     -0.562598    29A     -0.548532    30A     -0.536915
      31A     -0.523668    32A     -0.504826    33A     -0.486506
      34A     -0.472918    35A     -0.416857    36A     -0.403188
      37A     -0.307204

  @DF-RHF Final Energy:  -438.81319895967567

   => Energetics <=

    Nuclear Repulsion Energy =            528.6285565708969898
    One-Electron Energy =               -1643.9052932992574370
    Two-Electron Energy =                 676.4635377686847733
    Total Energy =                       -438.8131989596756739
  Basis Set: (AUG-CC-PVTZ AUX)
    Blend: AUG-CC-PVTZ-RI
    Molecular point group: c1

    Geometry (in Angstrom), charge = 0, multiplicity = 1:

       Center              X                  Y                   Z               Mass
    ------------   -----------------  -----------------  -----------------  -----------------
         O            0.195236709949     2.204055507694    -0.000011527703    15.994914619570
         N           -0.208984290051    -0.078357492306    -0.000003527703    14.003074004430
         C           -1.664614290051     0.180120507694    -0.000005527703    12.000000000000
         C           -2.306004290051    -0.359687492306     1.272624472297    12.000000000000
         C           -2.306012290051    -0.359734492306    -1.272611527703    12.000000000000
         C            0.650665709949     1.050248507694    -0.000006527703    12.000000000000
         C            0.250586709949    -1.366535492306     0.000005472297    12.000000000000
         C            2.008620409949     0.725319007694    -0.000004627703    12.000000000000
         C            1.586804709949    -1.656740492306     0.000009472297    12.000000000000
         C            2.507770709949    -0.578522492306     0.000003472297    12.000000000000
         H           -1.730435290051     1.269753507694    -0.000024527703     1.007825032230
         H           -3.360868290051    -0.070723492306     1.304931472297     1.007825032230
         H           -2.256617290051    -1.451982492306     1.319881472297     1.007825032230
         H           -1.808344290051     0.050912507694     2.154874472297     1.007825032230
         H           -1.808353290051     0.050826507694    -2.154880527703     1.007825032230
         H           -3.360874290051    -0.070762492306    -1.304925527703     1.007825032230
         H           -2.256636290051    -1.452030492306    -1.319825527703     1.007825032230
         H           -0.510038290051    -2.140714492306     0.000010472297     1.007825032230
         H            2.739515709949     1.557791507694    -0.000008527703     1.007825032230
         H            1.914709709949    -2.690031492306     0.000017472297     1.007825032230
         H            3.577097709949    -0.778283492306     0.000006472297     1.007825032230

  Basis Set: AUG-CC-PVTZ
    Blend: AUG-CC-PVTZ
  Basis Set: (AUG-CC-PVTZ AUX)
    Blend: AUG-CC-PVTZ-JKFIT
	 Reference Energy          =    -438.8131989596756739 [Eh]
	 Singles Energy            =      -0.0000000000000000 [Eh]
	 Same-Spin Energy          =      -0.4690849457069313 [Eh]
	 Opposite-Spin Energy      =      -1.4983387612269299 [Eh]
	 Correlation Energy        =      -1.9674237069338611 [Eh]
	 Total Energy              =    -440.7806226666095313 [Eh]

	 ================> DF-SCS-MP2 Energies <==================
	-----------------------------------------------------------
	 SCS Same-Spin Scale       =       0.3333333333333333 [-]
	 SCS Opposite-Spin Scale   =       1.2000000000000000 [-]
	 SCS Same-Spin Energy      =      -0.1563616485689771 [Eh]
	 SCS Opposite-Spin Energy  =      -1.7980065134723158 [Eh]
	 SCS Correlation Energy    =      -1.9543681620412929 [Eh]
	 SCS Total Energy          =    -440.7675671217169793 [Eh]
	-----------------------------------------------------------

  Dipole Moment: [D]
     X:    -0.6338      Y:    -4.0127      Z:     0.0000     Total:     4.0624

*** Psi4 exiting successfully. Buy a developer a beer!
