                               Psi4 1.4a3.dev225

  ==> Input File <==

--------------------------------------------------------------------------
#psi4
#
memory 32 gb

molecule  {
0 1
  O        0.2506850     2.2433030    -0.0000120
  N       -0.1535360    -0.0391100    -0.0000040
  C       -1.6091660     0.2193680    -0.0000060
  C       -2.2505560    -0.3204400     1.2726240
  C       -2.2505640    -0.3204870    -1.2726120
  C        0.7061140     1.0894960    -0.0000070
  C        0.3060350    -1.3272880     0.0000050
  C        2.1126960     0.7529310    -0.0000050
  C        1.6422530    -1.6174930     0.0000090
  C        2.5632190    -0.5392750     0.0000030
  H       -1.6749870     1.3090010    -0.0000250
  H       -3.3054200    -0.0314760     1.3049310
  H       -2.2011690    -1.4127350     1.3198810
  H       -1.7528960     0.0901600     2.1548740
  H       -1.7756710     0.0712924    -2.1145206
  H       -3.3054260    -0.0315150    -1.3049260
  H       -2.2011880    -1.4127830    -1.3198260
  H       -0.4545900    -2.1014670     0.0000100
  H        2.7949640     1.5970390    -0.0000090
  H        1.9701580    -2.6507840     0.0000170
  H        3.6325460    -0.7390360     0.0000060
units angstrom
no_reorient  #important for SAPT in psi4, default
symmetry c1  #important for SAPT in psi4, default
}

set PROPERTIES_ORIGIN ["COM"]
properties('MP2/aug-cc-pvtz', properties = ['dipole'])
--------------------------------------------------------------------------

    Molecular point group: c1
  Charge       = 0
  Multiplicity = 1
  Basis Set: AUG-CC-PVTZ
    Blend: AUG-CC-PVTZ
  Basis Set: (AUG-CC-PVTZ AUX)
    Blend: AUG-CC-PVTZ-JKFIT

    Orbital Energies [Eh]
    ---------------------

    Doubly Occupied:

       1A    -20.505445     2A    -15.621486     3A    -11.349966
       4A    -11.305609     5A    -11.273740     6A    -11.268944
       7A    -11.238328     8A    -11.235253     9A    -11.228332
      10A    -11.222710    11A     -1.367014    12A     -1.277620
      13A     -1.122657    14A     -1.051963    15A     -1.022554
      16A     -0.954005    17A     -0.893543    18A     -0.856056
      19A     -0.804521    20A     -0.711494    21A     -0.699662
      22A     -0.656430    23A     -0.640707    24A     -0.628069
      25A     -0.617223    26A     -0.604386    27A     -0.564769
      28A     -0.562844    29A     -0.548254    30A     -0.544114
      31A     -0.524292    32A     -0.507445    33A     -0.486875
      34A     -0.473861    35A     -0.417742    36A     -0.406561
      37A     -0.307156

  @DF-RHF Final Energy:  -438.81698609852214

   => Energetics <=

    Nuclear Repulsion Energy =            528.1349670074117739
    One-Electron Energy =               -1642.9006365307618580
    Two-Electron Energy =                 675.9486834248277773
    Total Energy =                       -438.8169860985221931
  Basis Set: (AUG-CC-PVTZ AUX)
    Blend: AUG-CC-PVTZ-RI
    Molecular point group: c1

    Geometry (in Angstrom), charge = 0, multiplicity = 1:

       Center              X                  Y                   Z               Mass
    ------------   -----------------  -----------------  -----------------  -----------------
         O            0.191147369153     2.205212130587    -0.000308261111    15.994914619570
         N           -0.213073630847    -0.077200869413    -0.000300261111    14.003074004430
         C           -1.668703630847     0.181277130587    -0.000302261111    12.000000000000
         C           -2.310093630847    -0.358530869413     1.272327738889    12.000000000000
         C           -2.310101630847    -0.358577869413    -1.272908261111    12.000000000000
         C            0.646576369153     1.051405130587    -0.000303261111    12.000000000000
         C            0.246497369153    -1.365378869413    -0.000291261111    12.000000000000
         C            2.053158369153     0.714840130587    -0.000301261111    12.000000000000
         C            1.582715369153    -1.655583869413    -0.000287261111    12.000000000000
         C            2.503681369153    -0.577365869413    -0.000293261111    12.000000000000
         H           -1.734524630847     1.270910130587    -0.000321261111     1.007825032230
         H           -3.364957630847    -0.069566869413     1.304634738889     1.007825032230
         H           -2.260706630847    -1.450825869413     1.319584738889     1.007825032230
         H           -1.812433630847     0.052069130587     2.154577738889     1.007825032230
         H           -1.835208630847     0.033201530587    -2.114816861111     1.007825032230
         H           -3.364963630847    -0.069605869413    -1.305222261111     1.007825032230
         H           -2.260725630847    -1.450873869413    -1.320122261111     1.007825032230
         H           -0.514127630847    -2.139557869413    -0.000286261111     1.007825032230
         H            2.735426369153     1.558948130587    -0.000305261111     1.007825032230
         H            1.910620369153    -2.688874869413    -0.000279261111     1.007825032230
         H            3.573008369153    -0.777126869413    -0.000290261111     1.007825032230

  Basis Set: AUG-CC-PVTZ
    Blend: AUG-CC-PVTZ
  Basis Set: (AUG-CC-PVTZ AUX)
    Blend: AUG-CC-PVTZ-JKFIT
	 Reference Energy          =    -438.8169860985221362 [Eh]
	 Singles Energy            =      -0.0000000000000000 [Eh]
	 Same-Spin Energy          =      -0.4679631034586184 [Eh]
	 Opposite-Spin Energy      =      -1.4969833501260630 [Eh]
	 Correlation Energy        =      -1.9649464535846812 [Eh]
	 Total Energy              =    -440.7819325521068095 [Eh]

	 ================> DF-SCS-MP2 Energies <==================
	-----------------------------------------------------------
	 SCS Same-Spin Scale       =       0.3333333333333333 [-]
	 SCS Opposite-Spin Scale   =       1.2000000000000000 [-]
	 SCS Same-Spin Energy      =      -0.1559877011528728 [Eh]
	 SCS Opposite-Spin Energy  =      -1.7963800201512756 [Eh]
	 SCS Correlation Energy    =      -1.9523677213041484 [Eh]
	 SCS Total Energy          =    -440.7693538198262786 [Eh]
	-----------------------------------------------------------

  Dipole Moment: [D]
     X:    -0.6602      Y:    -3.8660      Z:    -0.0220     Total:     3.9220

*** Psi4 exiting successfully. Buy a developer a beer!
