                               Psi4 1.4a3.dev225

  ==> Input File <==

--------------------------------------------------------------------------
#psi4
#
memory 32 gb

molecule  {
0 1
  O        0.2506850     2.2433030    -0.0000120
  N       -0.1535360    -0.0391100    -0.0000040
  C       -1.6091660     0.2193680    -0.0000060
  C       -2.2505560    -0.3204400     1.2726240
  C       -2.2505640    -0.3204870    -1.2726120
  C        0.7061140     1.0894960    -0.0000070
  C        0.3060350    -1.3272880     0.0000050
  C        2.1126960     0.7529310    -0.0000050
  C        1.6422530    -1.6174930     0.0000090
  C        2.4973767    -0.3504238     0.0000018
  H       -1.6749870     1.3090010    -0.0000250
  H       -3.3054200    -0.0314760     1.3049310
  H       -2.2011690    -1.4127350     1.3198810
  H       -1.7528960     0.0901600     2.1548740
  H       -1.7529050     0.0900740    -2.1548810
  H       -3.3054260    -0.0315150    -1.3049260
  H       -2.2011880    -1.4127830    -1.3198260
  H       -0.4545900    -2.1014670     0.0000100
  H        2.7949640     1.5970390    -0.0000090
  H        1.9701580    -2.6507840     0.0000170
  H        3.6325460    -0.7390360     0.0000060
units angstrom
no_reorient  #important for SAPT in psi4, default
symmetry c1  #important for SAPT in psi4, default
}

set PROPERTIES_ORIGIN ["COM"]
properties('MP2/aug-cc-pvtz', properties = ['dipole'])
--------------------------------------------------------------------------

    Molecular point group: c1
  Charge       = 0
  Multiplicity = 1
  Basis Set: AUG-CC-PVTZ
    Blend: AUG-CC-PVTZ
  Basis Set: (AUG-CC-PVTZ AUX)
    Blend: AUG-CC-PVTZ-JKFIT

    Orbital Energies [Eh]
    ---------------------

    Doubly Occupied:

       1A    -20.517981     2A    -15.612701     3A    -11.357428
       4A    -11.295969     5A    -11.272562     6A    -11.253540
       7A    -11.240450     8A    -11.226909     9A    -11.226893
      10A    -11.214304    11A     -1.374258    12A     -1.277370
      13A     -1.145239    14A     -1.062694    15A     -1.021548
      16A     -0.948933    17A     -0.873567    18A     -0.866660
      19A     -0.795637    20A     -0.709363    21A     -0.702329
      22A     -0.653768    23A     -0.640973    24A     -0.629383
      25A     -0.612843    26A     -0.606812    27A     -0.577579
      28A     -0.562783    29A     -0.549752    30A     -0.532069
      31A     -0.505685    32A     -0.503929    33A     -0.473636
      34A     -0.473325    35A     -0.435291    36A     -0.417744
      37A     -0.317462

  @DF-RHF Final Energy:  -438.75618162357375

   => Energetics <=

    Nuclear Repulsion Energy =            530.5619323196608548
    One-Electron Energy =               -1647.6574849733997326
    Two-Electron Energy =                 678.3393710301651254
    Total Energy =                       -438.7561816235737524
  Basis Set: (AUG-CC-PVTZ AUX)
    Blend: AUG-CC-PVTZ-RI
    Molecular point group: c1

    Geometry (in Angstrom), charge = 0, multiplicity = 1:

       Center              X                  Y                   Z               Mass
    ------------   -----------------  -----------------  -----------------  -----------------
         O            0.196743668482     2.188542483508    -0.000011431412    15.994914619570
         N           -0.207477331518    -0.093870516492    -0.000003431412    14.003074004430
         C           -1.663107331518     0.164607483508    -0.000005431412    12.000000000000
         C           -2.304497331518    -0.375200516492     1.272624568588    12.000000000000
         C           -2.304505331518    -0.375247516492    -1.272611431412    12.000000000000
         C            0.652172668482     1.034735483508    -0.000006431412    12.000000000000
         C            0.252093668482    -1.382048516492     0.000005568588    12.000000000000
         C            2.058754668482     0.698170483508    -0.000004431412    12.000000000000
         C            1.588311668482    -1.672253516492     0.000009568588    12.000000000000
         C            2.443435368482    -0.405184316492     0.000002368588    12.000000000000
         H           -1.728928331518     1.254240483508    -0.000024431412     1.007825032230
         H           -3.359361331518    -0.086236516492     1.304931568588     1.007825032230
         H           -2.255110331518    -1.467495516492     1.319881568588     1.007825032230
         H           -1.806837331518     0.035399483508     2.154874568588     1.007825032230
         H           -1.806846331518     0.035313483508    -2.154880431412     1.007825032230
         H           -3.359367331518    -0.086275516492    -1.304925431412     1.007825032230
         H           -2.255129331518    -1.467543516492    -1.319825431412     1.007825032230
         H           -0.508531331518    -2.156227516492     0.000010568588     1.007825032230
         H            2.741022668482     1.542278483508    -0.000008431412     1.007825032230
         H            1.916216668482    -2.705544516492     0.000017568588     1.007825032230
         H            3.578604668482    -0.793796516492     0.000006568588     1.007825032230

  Basis Set: AUG-CC-PVTZ
    Blend: AUG-CC-PVTZ
  Basis Set: (AUG-CC-PVTZ AUX)
    Blend: AUG-CC-PVTZ-JKFIT
	 Reference Energy          =    -438.7561816235737524 [Eh]
	 Singles Energy            =      -0.0000000000000000 [Eh]
	 Same-Spin Energy          =      -0.4650224326537994 [Eh]
	 Opposite-Spin Energy      =      -1.4950706362642625 [Eh]
	 Correlation Energy        =      -1.9600930689180620 [Eh]
	 Total Energy              =    -440.7162746924918224 [Eh]

	 ================> DF-SCS-MP2 Energies <==================
	-----------------------------------------------------------
	 SCS Same-Spin Scale       =       0.3333333333333333 [-]
	 SCS Opposite-Spin Scale   =       1.2000000000000000 [-]
	 SCS Same-Spin Energy      =      -0.1550074775512665 [Eh]
	 SCS Opposite-Spin Energy  =      -1.7940847635171149 [Eh]
	 SCS Correlation Energy    =      -1.9490922410683813 [Eh]
	 SCS Total Energy          =    -440.7052738646421517 [Eh]
	-----------------------------------------------------------

  Dipole Moment: [D]
     X:    -0.6253      Y:    -3.4857      Z:     0.0000     Total:     3.5413

*** Psi4 exiting successfully. Buy a developer a beer!
