                               Psi4 1.4a3.dev225

  ==> Input File <==

--------------------------------------------------------------------------
#psi4
#
memory 32 gb

molecule  {
0 1
  O        0.2506850     2.2433030    -0.0000120
  N       -0.1535360    -0.0391100    -0.0000040
  C       -1.6091660     0.2193680    -0.0000060
  C       -2.2505560    -0.3204400     1.2726240
  C       -2.2505640    -0.3204870    -1.2726120
  C        0.7061140     1.0894960    -0.0000070
  C        0.3060350    -1.3272880     0.0000050
  C        2.1126960     0.7529310    -0.0000050
  C        1.6422530    -1.6174930     0.0000090
  C        2.5796796    -0.5864878     0.0000033
  H       -1.6749870     1.3090010    -0.0000250
  H       -3.3054200    -0.0314760     1.3049310
  H       -2.2011690    -1.4127350     1.3198810
  H       -1.7528960     0.0901600     2.1548740
  H       -1.7529050     0.0900740    -2.1548810
  H       -3.3054260    -0.0315150    -1.3049260
  H       -2.2011880    -1.4127830    -1.3198260
  H       -0.4545900    -2.1014670     0.0000100
  H        2.7949640     1.5970390    -0.0000090
  H        1.9701580    -2.6507840     0.0000170
  H        3.6325460    -0.7390360     0.0000060
units angstrom
no_reorient  #important for SAPT in psi4, default
symmetry c1  #important for SAPT in psi4, default
}

set PROPERTIES_ORIGIN ["COM"]
properties('MP2/aug-cc-pvtz', properties = ['dipole'])
--------------------------------------------------------------------------

    Molecular point group: c1
  Charge       = 0
  Multiplicity = 1
  Basis Set: AUG-CC-PVTZ
    Blend: AUG-CC-PVTZ
  Basis Set: (AUG-CC-PVTZ AUX)
    Blend: AUG-CC-PVTZ-JKFIT

    Orbital Energies [Eh]
    ---------------------

    Doubly Occupied:

       1A    -20.502055     2A    -15.624388     3A    -11.347935
       4A    -11.308692     5A    -11.274835     6A    -11.271932
       7A    -11.238666     8A    -11.238233     9A    -11.229440
      10A    -11.229425    11A     -1.365261    12A     -1.277932
      13A     -1.121631    14A     -1.051365    15A     -1.019226
      16A     -0.951294    17A     -0.898058    18A     -0.853944
      19A     -0.805768    20A     -0.712643    21A     -0.700497
      22A     -0.656374    23A     -0.640597    24A     -0.628245
      25A     -0.613221    26A     -0.603188    27A     -0.568390
      28A     -0.562486    29A     -0.547791    30A     -0.540002
      31A     -0.526123    32A     -0.504623    33A     -0.487932
      34A     -0.474644    35A     -0.415856    36A     -0.403066
      37A     -0.303224

  @DF-RHF Final Energy:  -438.81233828510301

   => Energetics <=

    Nuclear Repulsion Energy =            527.3611031212021771
    One-Electron Energy =               -1641.3489164337081547
    Two-Electron Energy =                 675.1754750274029675
    Total Energy =                       -438.8123382851030101
  Basis Set: (AUG-CC-PVTZ AUX)
    Blend: AUG-CC-PVTZ-RI
    Molecular point group: c1

    Geometry (in Angstrom), charge = 0, multiplicity = 1:

       Center              X                  Y                   Z               Mass
    ------------   -----------------  -----------------  -----------------  -----------------
         O            0.189539076122     2.209206942365    -0.000011562718    15.994914619570
         N           -0.214681923878    -0.073206057635    -0.000003562718    14.003074004430
         C           -1.670311923878     0.185271942365    -0.000005562718    12.000000000000
         C           -2.311701923878    -0.354536057635     1.272624437282    12.000000000000
         C           -2.311709923878    -0.354583057635    -1.272611562718    12.000000000000
         C            0.644968076122     1.055399942365    -0.000006562718    12.000000000000
         C            0.244889076122    -1.361384057635     0.000005437282    12.000000000000
         C            2.051550076122     0.718834942365    -0.000004562718    12.000000000000
         C            1.581107076122    -1.651589057635     0.000009437282    12.000000000000
         C            2.518533676122    -0.620583857635     0.000003737282    12.000000000000
         H           -1.736132923878     1.274904942365    -0.000024562718     1.007825032230
         H           -3.366565923878    -0.065572057635     1.304931437282     1.007825032230
         H           -2.262314923878    -1.446831057635     1.319881437282     1.007825032230
         H           -1.814041923878     0.056063942365     2.154874437282     1.007825032230
         H           -1.814050923878     0.055977942365    -2.154880562718     1.007825032230
         H           -3.366571923878    -0.065611057635    -1.304925562718     1.007825032230
         H           -2.262333923878    -1.446879057635    -1.319825562718     1.007825032230
         H           -0.515735923878    -2.135563057635     0.000010437282     1.007825032230
         H            2.733818076122     1.562942942365    -0.000008562718     1.007825032230
         H            1.909012076122    -2.684880057635     0.000017437282     1.007825032230
         H            3.571400076122    -0.773132057635     0.000006437282     1.007825032230

  Basis Set: AUG-CC-PVTZ
    Blend: AUG-CC-PVTZ
  Basis Set: (AUG-CC-PVTZ AUX)
    Blend: AUG-CC-PVTZ-JKFIT
	 Reference Energy          =    -438.8123382851030101 [Eh]
	 Singles Energy            =      -0.0000000000000000 [Eh]
	 Same-Spin Energy          =      -0.4691095569033926 [Eh]
	 Opposite-Spin Energy      =      -1.4986702243754590 [Eh]
	 Correlation Energy        =      -1.9677797812788516 [Eh]
	 Total Energy              =    -440.7801180663818741 [Eh]

	 ================> DF-SCS-MP2 Energies <==================
	-----------------------------------------------------------
	 SCS Same-Spin Scale       =       0.3333333333333333 [-]
	 SCS Opposite-Spin Scale   =       1.2000000000000000 [-]
	 SCS Same-Spin Energy      =      -0.1563698523011309 [Eh]
	 SCS Opposite-Spin Energy  =      -1.7984042692505509 [Eh]
	 SCS Correlation Energy    =      -1.9547741215516816 [Eh]
	 SCS Total Energy          =    -440.7671124066546895 [Eh]
	-----------------------------------------------------------

  Dipole Moment: [D]
     X:    -0.6910      Y:    -3.9395      Z:     0.0000     Total:     3.9997

*** Psi4 exiting successfully. Buy a developer a beer!
