                               Psi4 1.4a3.dev225

  ==> Input File <==

--------------------------------------------------------------------------
#psi4
#
memory 32 gb

molecule  {
0 1
  O        0.2506850     2.2433030    -0.0000120
  N       -0.1535360    -0.0391100    -0.0000040
  C       -1.6091660     0.2193680    -0.0000060
  C       -2.2505560    -0.3204400     1.2726240
  C       -2.2505640    -0.3204870    -1.2726120
  C        0.7061140     1.0894960    -0.0000070
  C        0.3060350    -1.3272880     0.0000050
  C        2.1126960     0.7529310    -0.0000050
  C        1.6422530    -1.6174930     0.0000090
  C        2.5632190    -0.5392750     0.0000030
  H       -1.6749870     1.3090010    -0.0000250
  H       -3.3054200    -0.0314760     1.3049310
  H       -2.2011690    -1.4127350     1.3198810
  H       -1.7528960     0.0901600     2.1548740
  H       -1.7529050     0.0900740    -2.1548810
  H       -3.3054260    -0.0315150    -1.3049260
  H       -2.2011880    -1.4127830    -1.3198260
  H       -0.4545900    -2.1014670     0.0000100
  H        2.7949640     1.5970390    -0.0000090
  H        1.9701580    -2.6507840     0.0000170
  H        3.6816957    -0.7482177     0.0000061
units angstrom
no_reorient  #important for SAPT in psi4, default
symmetry c1  #important for SAPT in psi4, default
}

set PROPERTIES_ORIGIN ["COM"]
properties('MP2/aug-cc-pvtz', properties = ['dipole'])
--------------------------------------------------------------------------

    Molecular point group: c1
  Charge       = 0
  Multiplicity = 1
  Basis Set: AUG-CC-PVTZ
    Blend: AUG-CC-PVTZ
  Basis Set: (AUG-CC-PVTZ AUX)
    Blend: AUG-CC-PVTZ-JKFIT

    Orbital Energies [Eh]
    ---------------------

    Doubly Occupied:

       1A    -20.505648     2A    -15.621665     3A    -11.350290
       4A    -11.305960     5A    -11.274507     6A    -11.274309
       7A    -11.238815     8A    -11.235574     9A    -11.228872
      10A    -11.228857    11A     -1.367209    12A     -1.277823
      13A     -1.122066    14A     -1.050731    15A     -1.022779
      16A     -0.950766    17A     -0.891756    18A     -0.854755
      19A     -0.802770    20A     -0.710186    21A     -0.699119
      22A     -0.653708    23A     -0.638059    24A     -0.628337
      25A     -0.613120    26A     -0.604376    27A     -0.562261
      28A     -0.560578    29A     -0.548081    30A     -0.543975
      31A     -0.523587    32A     -0.504726    33A     -0.486801
      34A     -0.474027    35A     -0.417700    36A     -0.406844
      37A     -0.307403

  @DF-RHF Final Energy:  -438.81550021222932

   => Energetics <=

    Nuclear Repulsion Energy =            527.6638208133069838
    One-Electron Energy =               -1641.9825607511447743
    Two-Electron Energy =                 675.5032397256084096
    Total Energy =                       -438.8155002122293808
  Basis Set: (AUG-CC-PVTZ AUX)
    Blend: AUG-CC-PVTZ-RI
    Molecular point group: c1

    Geometry (in Angstrom), charge = 0, multiplicity = 1:

       Center              X                  Y                   Z               Mass
    ------------   -----------------  -----------------  -----------------  -----------------
         O            0.190618653848     2.205141553313    -0.000011537192    15.994914619570
         N           -0.213602346152    -0.077271446687    -0.000003537192    14.003074004430
         C           -1.669232346152     0.181206553313    -0.000005537192    12.000000000000
         C           -2.310622346152    -0.358601446687     1.272624462808    12.000000000000
         C           -2.310630346152    -0.358648446687    -1.272611537192    12.000000000000
         C            0.646047653848     1.051334553313    -0.000006537192    12.000000000000
         C            0.245968653848    -1.365449446687     0.000005462808    12.000000000000
         C            2.052629653848     0.714769553313    -0.000004537192    12.000000000000
         C            1.582186653848    -1.655654446687     0.000009462808    12.000000000000
         C            2.503152653848    -0.577436446687     0.000003462808    12.000000000000
         H           -1.735053346152     1.270839553313    -0.000024537192     1.007825032230
         H           -3.365486346152    -0.069637446687     1.304931462808     1.007825032230
         H           -2.261235346152    -1.450896446687     1.319881462808     1.007825032230
         H           -1.812962346152     0.051998553313     2.154874462808     1.007825032230
         H           -1.812971346152     0.051912553313    -2.154880537192     1.007825032230
         H           -3.365492346152    -0.069676446687    -1.304925537192     1.007825032230
         H           -2.261254346152    -1.450944446687    -1.319825537192     1.007825032230
         H           -0.514656346152    -2.139628446687     0.000010462808     1.007825032230
         H            2.734897653848     1.558877553313    -0.000008537192     1.007825032230
         H            1.910091653848    -2.688945446687     0.000017462808     1.007825032230
         H            3.621629353848    -0.786379146687     0.000006562808     1.007825032230

  Basis Set: AUG-CC-PVTZ
    Blend: AUG-CC-PVTZ
  Basis Set: (AUG-CC-PVTZ AUX)
    Blend: AUG-CC-PVTZ-JKFIT
	 Reference Energy          =    -438.8155002122293240 [Eh]
	 Singles Energy            =      -0.0000000000000000 [Eh]
	 Same-Spin Energy          =      -0.4680776645444293 [Eh]
	 Opposite-Spin Energy      =      -1.4977081427466781 [Eh]
	 Correlation Energy        =      -1.9657858072911074 [Eh]
	 Total Energy              =    -440.7812860195204507 [Eh]

	 ================> DF-SCS-MP2 Energies <==================
	-----------------------------------------------------------
	 SCS Same-Spin Scale       =       0.3333333333333333 [-]
	 SCS Opposite-Spin Scale   =       1.2000000000000000 [-]
	 SCS Same-Spin Energy      =      -0.1560258881814764 [Eh]
	 SCS Opposite-Spin Energy  =      -1.7972497712960136 [Eh]
	 SCS Correlation Energy    =      -1.9532756594774900 [Eh]
	 SCS Total Energy          =    -440.7687758717067936 [Eh]
	-----------------------------------------------------------

  Dipole Moment: [D]
     X:    -0.6873      Y:    -3.8663      Z:     0.0000     Total:     3.9269

*** Psi4 exiting successfully. Buy a developer a beer!
