                               Psi4 1.4a3.dev225

  ==> Input File <==

--------------------------------------------------------------------------
#psi4
#
memory 32 gb

molecule  {
0 1
  O        0.2506850     2.2433030    -0.0000120
  N       -0.1535360    -0.0391100    -0.0000040
  C       -1.6091660     0.2193680    -0.0000060
  C       -2.2505560    -0.3204400     1.2726240
  C       -2.2613460    -0.2705036    -1.2872697
  C        0.7061140     1.0894960    -0.0000070
  C        0.3060350    -1.3272880     0.0000050
  C        2.1126960     0.7529310    -0.0000050
  C        1.6422530    -1.6174930     0.0000090
  C        2.5632190    -0.5392750     0.0000030
  H       -1.6749870     1.3090010    -0.0000250
  H       -3.3054200    -0.0314760     1.3049310
  H       -2.2011690    -1.4127350     1.3198810
  H       -1.7528960     0.0901600     2.1548740
  H       -1.7529050     0.0900740    -2.1548810
  H       -3.3054260    -0.0315150    -1.3049260
  H       -2.2011880    -1.4127830    -1.3198260
  H       -0.4545900    -2.1014670     0.0000100
  H        2.7949640     1.5970390    -0.0000090
  H        1.9701580    -2.6507840     0.0000170
  H        3.6325460    -0.7390360     0.0000060
units angstrom
no_reorient  #important for SAPT in psi4, default
symmetry c1  #important for SAPT in psi4, default
}

set PROPERTIES_ORIGIN ["COM"]
properties('MP2/aug-cc-pvtz', properties = ['dipole'])
--------------------------------------------------------------------------

    Molecular point group: c1
  Charge       = 0
  Multiplicity = 1
  Basis Set: AUG-CC-PVTZ
    Blend: AUG-CC-PVTZ
  Basis Set: (AUG-CC-PVTZ AUX)
    Blend: AUG-CC-PVTZ-JKFIT

    Orbital Energies [Eh]
    ---------------------

    Doubly Occupied:

       1A    -20.505493     2A    -15.621920     3A    -11.350074
       4A    -11.305573     5A    -11.273998     6A    -11.269004
       7A    -11.238220     8A    -11.235254     9A    -11.229460
      10A    -11.229328    11A     -1.367033    12A     -1.277560
      13A     -1.122443    14A     -1.051321    15A     -1.022461
      16A     -0.951660    17A     -0.892949    18A     -0.856133
      19A     -0.803676    20A     -0.710980    21A     -0.699505
      22A     -0.656261    23A     -0.640279    24A     -0.629123
      25A     -0.614991    26A     -0.604248    27A     -0.567308
      28A     -0.556843    29A     -0.549925    30A     -0.542691
      31A     -0.525464    32A     -0.509427    33A     -0.478954
      34A     -0.474137    35A     -0.417573    36A     -0.407254
      37A     -0.307194

  @DF-RHF Final Energy:  -438.81520138951737

   => Energetics <=

    Nuclear Repulsion Energy =            527.7462502538251101
    One-Electron Energy =               -1642.1314644904775832
    Two-Electron Energy =                 675.5700128471351036
    Total Energy =                       -438.8152013895173695
  Basis Set: (AUG-CC-PVTZ AUX)
    Blend: AUG-CC-PVTZ-RI
    Molecular point group: c1

    Geometry (in Angstrom), charge = 0, multiplicity = 1:

       Center              X                  Y                   Z               Mass
    ------------   -----------------  -----------------  -----------------  -----------------
         O            0.191923825965     2.200698627349     0.001271562358    15.994914619570
         N           -0.212297174035    -0.081714372651     0.001279562358    14.003074004430
         C           -1.667927174035     0.176763627349     0.001277562358    12.000000000000
         C           -2.309317174035    -0.363044372651     1.273907562358    12.000000000000
         C           -2.320107174035    -0.313107972651    -1.285986137642    12.000000000000
         C            0.647352825965     1.046891627349     0.001276562358    12.000000000000
         C            0.247273825965    -1.369892372651     0.001288562358    12.000000000000
         C            2.053934825965     0.710326627349     0.001278562358    12.000000000000
         C            1.583491825965    -1.660097372651     0.001292562358    12.000000000000
         C            2.504457825965    -0.581879372651     0.001286562358    12.000000000000
         H           -1.733748174035     1.266396627349     0.001258562358     1.007825032230
         H           -3.364181174035    -0.074080372651     1.306214562358     1.007825032230
         H           -2.259930174035    -1.455339372651     1.321164562358     1.007825032230
         H           -1.811657174035     0.047555627349     2.156157562358     1.007825032230
         H           -1.811666174035     0.047469627349    -2.153597437642     1.007825032230
         H           -3.364187174035    -0.074119372651    -1.303642437642     1.007825032230
         H           -2.259949174035    -1.455387372651    -1.318542437642     1.007825032230
         H           -0.513351174035    -2.144071372651     0.001293562358     1.007825032230
         H            2.736202825965     1.554434627349     0.001274562358     1.007825032230
         H            1.911396825965    -2.693388372651     0.001300562358     1.007825032230
         H            3.573784825965    -0.781640372651     0.001289562358     1.007825032230

  Basis Set: AUG-CC-PVTZ
    Blend: AUG-CC-PVTZ
  Basis Set: (AUG-CC-PVTZ AUX)
    Blend: AUG-CC-PVTZ-JKFIT
	 Reference Energy          =    -438.8152013895173695 [Eh]
	 Singles Energy            =      -0.0000000000000000 [Eh]
	 Same-Spin Energy          =      -0.4679414464817711 [Eh]
	 Opposite-Spin Energy      =      -1.4972988677547738 [Eh]
	 Correlation Energy        =      -1.9652403142365449 [Eh]
	 Total Energy              =    -440.7804417037539224 [Eh]

	 ================> DF-SCS-MP2 Energies <==================
	-----------------------------------------------------------
	 SCS Same-Spin Scale       =       0.3333333333333333 [-]
	 SCS Opposite-Spin Scale   =       1.2000000000000000 [-]
	 SCS Same-Spin Energy      =      -0.1559804821605904 [Eh]
	 SCS Opposite-Spin Energy  =      -1.7967586413057286 [Eh]
	 SCS Correlation Energy    =      -1.9527391234663189 [Eh]
	 SCS Total Energy          =    -440.7679405129836709 [Eh]
	-----------------------------------------------------------

  Dipole Moment: [D]
     X:    -0.6614      Y:    -3.8363      Z:     0.0031     Total:     3.8929

*** Psi4 exiting successfully. Buy a developer a beer!
