                               Psi4 1.4a3.dev225

  ==> Input File <==

--------------------------------------------------------------------------
#psi4
#
memory 32 gb

molecule  {
0 1
  O        0.2506850     2.2433030    -0.0000120
  N       -0.1535360    -0.0391100    -0.0000040
  C       -1.6091660     0.2193680    -0.0000060
  C       -2.2505560    -0.3204400     1.2726240
  C       -2.2505640    -0.3204870    -1.2726120
  C        0.7061140     1.0894960    -0.0000070
  C        0.3060350    -1.3272880     0.0000050
  C        2.1126960     0.7529310    -0.0000050
  C        1.6422530    -1.6174930     0.0000090
  C        2.5632190    -0.5392750     0.0000030
  H       -1.6749870     1.3090010    -0.0000250
  H       -3.3054200    -0.0314760     1.3049310
  H       -2.2011690    -1.4127350     1.3198810
  H       -1.7528960     0.0901600     2.1548740
  H       -1.7620114     0.0825614    -2.1387368
  H       -3.3054260    -0.0315150    -1.3049260
  H       -2.2011880    -1.4127830    -1.3198260
  H       -0.4545900    -2.1014670     0.0000100
  H        2.7949640     1.5970390    -0.0000090
  H        1.9701580    -2.6507840     0.0000170
  H        3.6325460    -0.7390360     0.0000060
units angstrom
no_reorient  #important for SAPT in psi4, default
symmetry c1  #important for SAPT in psi4, default
}

set PROPERTIES_ORIGIN ["COM"]
properties('MP2/aug-cc-pvtz', properties = ['dipole'])
--------------------------------------------------------------------------

    Molecular point group: c1
  Charge       = 0
  Multiplicity = 1
  Basis Set: AUG-CC-PVTZ
    Blend: AUG-CC-PVTZ
  Basis Set: (AUG-CC-PVTZ AUX)
    Blend: AUG-CC-PVTZ-JKFIT

    Orbital Energies [Eh]
    ---------------------

    Doubly Occupied:

       1A    -20.505435     2A    -15.621478     3A    -11.349958
       4A    -11.305618     5A    -11.273995     6A    -11.268934
       7A    -11.238324     8A    -11.235245     9A    -11.228581
      10A    -11.226355    11A     -1.367000    12A     -1.277607
      13A     -1.122574    14A     -1.051514    15A     -1.022535
      16A     -0.951922    17A     -0.893370    18A     -0.855951
      19A     -0.804117    20A     -0.711475    21A     -0.699582
      22A     -0.655838    23A     -0.640785    24A     -0.628110
      25A     -0.614612    26A     -0.604347    27A     -0.564511
      28A     -0.562453    29A     -0.548061    30A     -0.543961
      31A     -0.524308    32A     -0.505794    33A     -0.486855
      34A     -0.473815    35A     -0.417744    36A     -0.406598
      37A     -0.307149

  @DF-RHF Final Energy:  -438.81800362386679

   => Energetics <=

    Nuclear Repulsion Energy =            528.0034001628757778
    One-Electron Energy =               -1642.6497823290462748
    Two-Electron Energy =                 675.8283785423037671
    Total Energy =                       -438.8180036238667299
  Basis Set: (AUG-CC-PVTZ AUX)
    Blend: AUG-CC-PVTZ-RI
    Molecular point group: c1

    Geometry (in Angstrom), charge = 0, multiplicity = 1:

       Center              X                  Y                   Z               Mass
    ------------   -----------------  -----------------  -----------------  -----------------
         O            0.191046945468     2.205129282297    -0.000130226613    15.994914619570
         N           -0.213174054532    -0.077283717703    -0.000122226613    14.003074004430
         C           -1.668804054532     0.181194282297    -0.000124226613    12.000000000000
         C           -2.310194054532    -0.358613717703     1.272505773387    12.000000000000
         C           -2.310202054532    -0.358660717703    -1.272730226613    12.000000000000
         C            0.646475945468     1.051322282297    -0.000125226613    12.000000000000
         C            0.246396945468    -1.365461717703    -0.000113226613    12.000000000000
         C            2.053057945468     0.714757282297    -0.000123226613    12.000000000000
         C            1.582614945468    -1.655666717703    -0.000109226613    12.000000000000
         C            2.503580945468    -0.577448717703    -0.000115226613    12.000000000000
         H           -1.734625054532     1.270827282297    -0.000143226613     1.007825032230
         H           -3.365058054532    -0.069649717703     1.304812773387     1.007825032230
         H           -2.260807054532    -1.450908717703     1.319762773387     1.007825032230
         H           -1.812534054532     0.051986282297     2.154755773387     1.007825032230
         H           -1.821649454532     0.044387682297    -2.138855026613     1.007825032230
         H           -3.365064054532    -0.069688717703    -1.305044226613     1.007825032230
         H           -2.260826054532    -1.450956717703    -1.319944226613     1.007825032230
         H           -0.514228054532    -2.139640717703    -0.000108226613     1.007825032230
         H            2.735325945468     1.558865282297    -0.000127226613     1.007825032230
         H            1.910519945468    -2.688957717703    -0.000101226613     1.007825032230
         H            3.572907945468    -0.777209717703    -0.000112226613     1.007825032230

  Basis Set: AUG-CC-PVTZ
    Blend: AUG-CC-PVTZ
  Basis Set: (AUG-CC-PVTZ AUX)
    Blend: AUG-CC-PVTZ-JKFIT
	 Reference Energy          =    -438.8180036238667867 [Eh]
	 Singles Energy            =      -0.0000000000000000 [Eh]
	 Same-Spin Energy          =      -0.4679643670259934 [Eh]
	 Opposite-Spin Energy      =      -1.4971515996387792 [Eh]
	 Correlation Energy        =      -1.9651159666647726 [Eh]
	 Total Energy              =    -440.7831195905315553 [Eh]

	 ================> DF-SCS-MP2 Energies <==================
	-----------------------------------------------------------
	 SCS Same-Spin Scale       =       0.3333333333333333 [-]
	 SCS Opposite-Spin Scale   =       1.2000000000000000 [-]
	 SCS Same-Spin Energy      =      -0.1559881223419978 [Eh]
	 SCS Opposite-Spin Energy  =      -1.7965819195665349 [Eh]
	 SCS Correlation Energy    =      -1.9525700419085328 [Eh]
	 SCS Total Energy          =    -440.7705736657753164 [Eh]
	-----------------------------------------------------------

  Dipole Moment: [D]
     X:    -0.6633      Y:    -3.8681      Z:    -0.0092     Total:     3.9246

*** Psi4 exiting successfully. Buy a developer a beer!
