                               Psi4 1.4a3.dev225

  ==> Input File <==

--------------------------------------------------------------------------
#psi4
#
memory 32 gb

molecule  {
0 1
  O        0.2506850     2.2433030    -0.0000120
  N       -0.1535360    -0.0391100    -0.0000040
  C       -1.6091660     0.2193680    -0.0000060
  C       -2.2505560    -0.3204400     1.2726240
  C       -2.2505640    -0.3204870    -1.2726120
  C        0.7061140     1.0894960    -0.0000070
  C        0.3060350    -1.3272880     0.0000050
  C        2.1613233     0.7412955    -0.0000049
  C        1.6422530    -1.6174930     0.0000090
  C        2.5632190    -0.5392750     0.0000030
  H       -1.6749870     1.3090010    -0.0000250
  H       -3.3054200    -0.0314760     1.3049310
  H       -2.2011690    -1.4127350     1.3198810
  H       -1.7528960     0.0901600     2.1548740
  H       -1.7529050     0.0900740    -2.1548810
  H       -3.3054260    -0.0315150    -1.3049260
  H       -2.2011880    -1.4127830    -1.3198260
  H       -0.4545900    -2.1014670     0.0000100
  H        2.7949640     1.5970390    -0.0000090
  H        1.9701580    -2.6507840     0.0000170
  H        3.6325460    -0.7390360     0.0000060
units angstrom
no_reorient  #important for SAPT in psi4, default
symmetry c1  #important for SAPT in psi4, default
}

set PROPERTIES_ORIGIN ["COM"]
properties('MP2/aug-cc-pvtz', properties = ['dipole'])
--------------------------------------------------------------------------

    Molecular point group: c1
  Charge       = 0
  Multiplicity = 1
  Basis Set: AUG-CC-PVTZ
    Blend: AUG-CC-PVTZ
  Basis Set: (AUG-CC-PVTZ AUX)
    Blend: AUG-CC-PVTZ-JKFIT

    Orbital Energies [Eh]
    ---------------------

    Doubly Occupied:

       1A    -20.510580     2A    -15.619904     3A    -11.355311
       4A    -11.303871     5A    -11.274094     6A    -11.262691
       7A    -11.237220     8A    -11.236206     9A    -11.228534
      10A    -11.228519    11A     -1.368367    12A     -1.277555
      13A     -1.122847    14A     -1.052667    15A     -1.019679
      16A     -0.950460    17A     -0.888682    18A     -0.856717
      19A     -0.802239    20A     -0.711118    21A     -0.698575
      22A     -0.656072    23A     -0.643197    24A     -0.627442
      25A     -0.613050    26A     -0.603346    27A     -0.563505
      28A     -0.561698    29A     -0.549702    30A     -0.547378
      31A     -0.523796    32A     -0.504371    33A     -0.486655
      34A     -0.474738    35A     -0.416886    36A     -0.410213
      37A     -0.307304

  @DF-RHF Final Energy:  -438.81675893613715

   => Energetics <=

    Nuclear Repulsion Energy =            527.2456532104795315
    One-Electron Energy =               -1641.1344521856585743
    Two-Electron Energy =                 675.0720400390418945
    Total Energy =                       -438.8167589361371483
  Basis Set: (AUG-CC-PVTZ AUX)
    Blend: AUG-CC-PVTZ-RI
    Molecular point group: c1

    Geometry (in Angstrom), charge = 0, multiplicity = 1:

       Center              X                  Y                   Z               Mass
    ------------   -----------------  -----------------  -----------------  -----------------
         O            0.186723282741     2.206092593493    -0.000011545211    15.994914619570
         N           -0.217497717259    -0.076320406507    -0.000003545211    14.003074004430
         C           -1.673127717259     0.182157593493    -0.000005545211    12.000000000000
         C           -2.314517717259    -0.357650406507     1.272624454789    12.000000000000
         C           -2.314525717259    -0.357697406507    -1.272611545211    12.000000000000
         C            0.642152282741     1.052285593493    -0.000006545211    12.000000000000
         C            0.242073282741    -1.364498406507     0.000005454789    12.000000000000
         C            2.097361582741     0.704085093493    -0.000004445211    12.000000000000
         C            1.578291282741    -1.654703406507     0.000009454789    12.000000000000
         C            2.499257282741    -0.576485406507     0.000003454789    12.000000000000
         H           -1.738948717259     1.271790593493    -0.000024545211     1.007825032230
         H           -3.369381717259    -0.068686406507     1.304931454789     1.007825032230
         H           -2.265130717259    -1.449945406507     1.319881454789     1.007825032230
         H           -1.816857717259     0.052949593493     2.154874454789     1.007825032230
         H           -1.816866717259     0.052863593493    -2.154880545211     1.007825032230
         H           -3.369387717259    -0.068725406507    -1.304925545211     1.007825032230
         H           -2.265149717259    -1.449993406507    -1.319825545211     1.007825032230
         H           -0.518551717259    -2.138677406507     0.000010454789     1.007825032230
         H            2.731002282741     1.559828593493    -0.000008545211     1.007825032230
         H            1.906196282741    -2.687994406507     0.000017454789     1.007825032230
         H            3.568584282741    -0.776246406507     0.000006454789     1.007825032230

  Basis Set: AUG-CC-PVTZ
    Blend: AUG-CC-PVTZ
  Basis Set: (AUG-CC-PVTZ AUX)
    Blend: AUG-CC-PVTZ-JKFIT
	 Reference Energy          =    -438.8167589361371483 [Eh]
	 Singles Energy            =      -0.0000000000000000 [Eh]
	 Same-Spin Energy          =      -0.4670198287427115 [Eh]
	 Opposite-Spin Energy      =      -1.4965098179659395 [Eh]
	 Correlation Energy        =      -1.9635296467086509 [Eh]
	 Total Energy              =    -440.7802885828457988 [Eh]

	 ================> DF-SCS-MP2 Energies <==================
	-----------------------------------------------------------
	 SCS Same-Spin Scale       =       0.3333333333333333 [-]
	 SCS Opposite-Spin Scale   =       1.2000000000000000 [-]
	 SCS Same-Spin Energy      =      -0.1556732762475705 [Eh]
	 SCS Opposite-Spin Energy  =      -1.7958117815591275 [Eh]
	 SCS Correlation Energy    =      -1.9514850578066980 [Eh]
	 SCS Total Energy          =    -440.7682439939438268 [Eh]
	-----------------------------------------------------------

  Dipole Moment: [D]
     X:    -0.6989      Y:    -3.7327      Z:     0.0000     Total:     3.7976

*** Psi4 exiting successfully. Buy a developer a beer!
