                               Psi4 1.4a3.dev225

  ==> Input File <==

--------------------------------------------------------------------------
#psi4
#
memory 32 gb

molecule  {
0 1
  O        0.2506850     2.2433030    -0.0000120
  N       -0.1535360    -0.0391100    -0.0000040
  C       -1.6091660     0.2193680    -0.0000060
  C       -2.2505560    -0.3204400     1.2726240
  C       -2.2505640    -0.3204870    -1.2726120
  C        0.7061140     1.0894960    -0.0000070
  C        0.3060350    -1.3272880     0.0000050
  C        2.1126960     0.7529310    -0.0000050
  C        1.6422530    -1.6174930     0.0000090
  C        2.5632190    -0.5392750     0.0000030
  H       -1.6749870     1.3090010    -0.0000250
  H       -3.3054200    -0.0314760     1.3049310
  H       -2.2011690    -1.4127350     1.3198810
  H       -1.7528960     0.0901600     2.1548740
  H       -1.7529050     0.0900740    -2.1548810
  H       -3.3054260    -0.0315150    -1.3049260
  H       -2.2011880    -1.4127830    -1.3198260
  H       -0.3144230    -1.9588023     0.0000091
  H        2.7949640     1.5970390    -0.0000090
  H        1.9701580    -2.6507840     0.0000170
  H        3.6325460    -0.7390360     0.0000060
units angstrom
no_reorient  #important for SAPT in psi4, default
symmetry c1  #important for SAPT in psi4, default
}

set PROPERTIES_ORIGIN ["COM"]
properties('MP2/aug-cc-pvtz', properties = ['dipole'])
--------------------------------------------------------------------------

    Molecular point group: c1
  Charge       = 0
  Multiplicity = 1
  Basis Set: AUG-CC-PVTZ
    Blend: AUG-CC-PVTZ
  Basis Set: (AUG-CC-PVTZ AUX)
    Blend: AUG-CC-PVTZ-JKFIT

    Orbital Energies [Eh]
    ---------------------

    Doubly Occupied:

       1A    -20.504837     2A    -15.620197     3A    -11.349133
       4A    -11.283066     5A    -11.274092     6A    -11.268272
       7A    -11.237990     8A    -11.235402     9A    -11.229105
      10A    -11.229090    11A     -1.366551    12A     -1.278913
      13A     -1.122575    14A     -1.051940    15A     -1.033708
      16A     -0.950939    17A     -0.903929    18A     -0.861521
      19A     -0.808513    20A     -0.730312    21A     -0.706039
      22A     -0.665377    23A     -0.641012    24A     -0.627797
      25A     -0.614940    26A     -0.608822    27A     -0.565286
      28A     -0.562176    29A     -0.548002    30A     -0.546137
      31A     -0.523998    32A     -0.504703    33A     -0.488698
      34A     -0.473486    35A     -0.417614    36A     -0.406135
      37A     -0.307016

  @DF-RHF Final Energy:  -438.78323694736810

   => Energetics <=

    Nuclear Repulsion Energy =            529.0699239757684609
    One-Electron Energy =               -1644.6116726697202921
    Two-Electron Energy =                 676.7585117465837357
    Total Energy =                       -438.7832369473680956
  Basis Set: (AUG-CC-PVTZ AUX)
    Blend: AUG-CC-PVTZ-RI
    Molecular point group: c1

    Geometry (in Angstrom), charge = 0, multiplicity = 1:

       Center              X                  Y                   Z               Mass
    ------------   -----------------  -----------------  -----------------  -----------------
         O            0.189949505949     2.204025197418    -0.000011529840    15.994914619570
         N           -0.214271494051    -0.078387802582    -0.000003529840    14.003074004430
         C           -1.669901494051     0.180090197418    -0.000005529840    12.000000000000
         C           -2.311291494051    -0.359717802582     1.272624470160    12.000000000000
         C           -2.311299494051    -0.359764802582    -1.272611529840    12.000000000000
         C            0.645378505949     1.050218197418    -0.000006529840    12.000000000000
         C            0.245299505949    -1.366565802582     0.000005470160    12.000000000000
         C            2.051960505949     0.713653197418    -0.000004529840    12.000000000000
         C            1.581517505949    -1.656770802582     0.000009470160    12.000000000000
         C            2.502483505949    -0.578552802582     0.000003470160    12.000000000000
         H           -1.735722494051     1.269723197418    -0.000024529840     1.007825032230
         H           -3.366155494051    -0.070753802582     1.304931470160     1.007825032230
         H           -2.261904494051    -1.452012802582     1.319881470160     1.007825032230
         H           -1.813631494051     0.050882197418     2.154874470160     1.007825032230
         H           -1.813640494051     0.050796197418    -2.154880529840     1.007825032230
         H           -3.366161494051    -0.070792802582    -1.304925529840     1.007825032230
         H           -2.261923494051    -1.452060802582    -1.319825529840     1.007825032230
         H           -0.375158494051    -1.998080102582     0.000009570160     1.007825032230
         H            2.734228505949     1.557761197418    -0.000008529840     1.007825032230
         H            1.909422505949    -2.690061802582     0.000017470160     1.007825032230
         H            3.571810505949    -0.778313802582     0.000006470160     1.007825032230

  Basis Set: AUG-CC-PVTZ
    Blend: AUG-CC-PVTZ
  Basis Set: (AUG-CC-PVTZ AUX)
    Blend: AUG-CC-PVTZ-JKFIT
	 Reference Energy          =    -438.7832369473680956 [Eh]
	 Singles Energy            =      -0.0000000000000000 [Eh]
	 Same-Spin Energy          =      -0.4674009135428084 [Eh]
	 Opposite-Spin Energy      =      -1.4964110207591683 [Eh]
	 Correlation Energy        =      -1.9638119343019769 [Eh]
	 Total Energy              =    -440.7470488816700822 [Eh]

	 ================> DF-SCS-MP2 Energies <==================
	-----------------------------------------------------------
	 SCS Same-Spin Scale       =       0.3333333333333333 [-]
	 SCS Opposite-Spin Scale   =       1.2000000000000000 [-]
	 SCS Same-Spin Energy      =      -0.1558003045142695 [Eh]
	 SCS Opposite-Spin Energy  =      -1.7956932249110020 [Eh]
	 SCS Correlation Energy    =      -1.9514935294252715 [Eh]
	 SCS Total Energy          =    -440.7347304767933451 [Eh]
	-----------------------------------------------------------

  Dipole Moment: [D]
     X:    -0.6671      Y:    -3.8809      Z:     0.0000     Total:     3.9378

*** Psi4 exiting successfully. Buy a developer a beer!
