                               Psi4 1.4a3.dev225

  ==> Input File <==

--------------------------------------------------------------------------
#psi4
#
memory 32 gb

molecule  {
0 1
  O        0.2506850     2.2433030    -0.0000120
  N       -0.1535360    -0.0391100    -0.0000040
  C       -1.6091660     0.2193680    -0.0000060
  C       -2.2505560    -0.3204400     1.2726240
  C       -2.2505640    -0.3204870    -1.2726120
  C        0.7061140     1.0894960    -0.0000070
  C        0.3060350    -1.3272880     0.0000050
  C        2.1126960     0.7529310    -0.0000050
  C        1.6911139    -1.6281048     0.0000091
  C        2.5632190    -0.5392750     0.0000030
  H       -1.6749870     1.3090010    -0.0000250
  H       -3.3054200    -0.0314760     1.3049310
  H       -2.2011690    -1.4127350     1.3198810
  H       -1.7528960     0.0901600     2.1548740
  H       -1.7529050     0.0900740    -2.1548810
  H       -3.3054260    -0.0315150    -1.3049260
  H       -2.2011880    -1.4127830    -1.3198260
  H       -0.4545900    -2.1014670     0.0000100
  H        2.7949640     1.5970390    -0.0000090
  H        1.9701580    -2.6507840     0.0000170
  H        3.6325460    -0.7390360     0.0000060
units angstrom
no_reorient  #important for SAPT in psi4, default
symmetry c1  #important for SAPT in psi4, default
}

set PROPERTIES_ORIGIN ["COM"]
properties('MP2/aug-cc-pvtz', properties = ['dipole'])
--------------------------------------------------------------------------

    Molecular point group: c1
  Charge       = 0
  Multiplicity = 1
  Basis Set: AUG-CC-PVTZ
    Blend: AUG-CC-PVTZ
  Basis Set: (AUG-CC-PVTZ AUX)
    Blend: AUG-CC-PVTZ-JKFIT

    Orbital Energies [Eh]
    ---------------------

    Doubly Occupied:

       1A    -20.503824     2A    -15.626921     3A    -11.348948
       4A    -11.315446     5A    -11.276007     6A    -11.266057
       7A    -11.239981     8A    -11.232242     9A    -11.230269
      10A    -11.230254    11A     -1.366685    12A     -1.278517
      13A     -1.122236    14A     -1.053608    15A     -1.017031
      16A     -0.952142    17A     -0.896454    18A     -0.856401
      19A     -0.803608    20A     -0.712093    21A     -0.699623
      22A     -0.657686    23A     -0.643313    24A     -0.628823
      25A     -0.615746    26A     -0.600435    27A     -0.563122
      28A     -0.560810    29A     -0.551641    30A     -0.548787
      31A     -0.522506    32A     -0.505749    33A     -0.488826
      34A     -0.471385    35A     -0.416480    36A     -0.409281
      37A     -0.301073

  @DF-RHF Final Energy:  -438.81284647079661

   => Energetics <=

    Nuclear Repulsion Energy =            527.2298200577351963
    One-Electron Energy =               -1641.0573115005208820
    Two-Electron Energy =                 675.0146449719890143
    Total Energy =                       -438.8128464707966714
  Basis Set: (AUG-CC-PVTZ AUX)
    Blend: AUG-CC-PVTZ-RI
    Molecular point group: c1

    Geometry (in Angstrom), charge = 0, multiplicity = 1:

       Center              X                  Y                   Z               Mass
    ------------   -----------------  -----------------  -----------------  -----------------
         O            0.186702833975     2.206002981326    -0.000011545211    15.994914619570
         N           -0.217518166025    -0.076410018674    -0.000003545211    14.003074004430
         C           -1.673148166025     0.182067981326    -0.000005545211    12.000000000000
         C           -2.314538166025    -0.357740018674     1.272624454789    12.000000000000
         C           -2.314546166025    -0.357787018674    -1.272611545211    12.000000000000
         C            0.642131833975     1.052195981326    -0.000006545211    12.000000000000
         C            0.242052833975    -1.364588018674     0.000005454789    12.000000000000
         C            2.048713833975     0.715630981326    -0.000004545211    12.000000000000
         C            1.627131733975    -1.665404818674     0.000009554789    12.000000000000
         C            2.499236833975    -0.576575018674     0.000003454789    12.000000000000
         H           -1.738969166025     1.271700981326    -0.000024545211     1.007825032230
         H           -3.369402166025    -0.068776018674     1.304931454789     1.007825032230
         H           -2.265151166025    -1.450035018674     1.319881454789     1.007825032230
         H           -1.816878166025     0.052859981326     2.154874454789     1.007825032230
         H           -1.816887166025     0.052773981326    -2.154880545211     1.007825032230
         H           -3.369408166025    -0.068815018674    -1.304925545211     1.007825032230
         H           -2.265170166025    -1.450083018674    -1.319825545211     1.007825032230
         H           -0.518572166025    -2.138767018674     0.000010454789     1.007825032230
         H            2.730981833975     1.559738981326    -0.000008545211     1.007825032230
         H            1.906175833975    -2.688084018674     0.000017454789     1.007825032230
         H            3.568563833975    -0.776336018674     0.000006454789     1.007825032230

  Basis Set: AUG-CC-PVTZ
    Blend: AUG-CC-PVTZ
  Basis Set: (AUG-CC-PVTZ AUX)
    Blend: AUG-CC-PVTZ-JKFIT
	 Reference Energy          =    -438.8128464707966145 [Eh]
	 Singles Energy            =      -0.0000000000000000 [Eh]
	 Same-Spin Energy          =      -0.4689071085618687 [Eh]
	 Opposite-Spin Energy      =      -1.4983257793853813 [Eh]
	 Correlation Energy        =      -1.9672328879472500 [Eh]
	 Total Energy              =    -440.7800793587438761 [Eh]

	 ================> DF-SCS-MP2 Energies <==================
	-----------------------------------------------------------
	 SCS Same-Spin Scale       =       0.3333333333333333 [-]
	 SCS Opposite-Spin Scale   =       1.2000000000000000 [-]
	 SCS Same-Spin Energy      =      -0.1563023695206229 [Eh]
	 SCS Opposite-Spin Energy  =      -1.7979909352624575 [Eh]
	 SCS Correlation Energy    =      -1.9542933047830804 [Eh]
	 SCS Total Energy          =    -440.7671397755797216 [Eh]
	-----------------------------------------------------------

  Dipole Moment: [D]
     X:    -0.7647      Y:    -3.9177      Z:     0.0000     Total:     3.9917

*** Psi4 exiting successfully. Buy a developer a beer!
