                               Psi4 1.4a3.dev225

  ==> Input File <==

--------------------------------------------------------------------------
#psi4
#
memory 32 gb

molecule  {
0 1
  O        0.2506850     2.2433030    -0.0000120
  N       -0.1535360    -0.0391100    -0.0000040
  C       -1.6091660     0.2193680    -0.0000060
  C       -2.2505560    -0.3204400     1.2726240
  C       -2.2505640    -0.3204870    -1.2726120
  C        0.7061140     1.0894960    -0.0000070
  C        0.3060350    -1.3272880     0.0000050
  C        2.1126960     0.7529310    -0.0000050
  C        1.6422530    -1.6174930     0.0000090
  C        2.5632190    -0.5392750     0.0000030
  H       -1.6749870     1.3090010    -0.0000250
  H       -3.3054200    -0.0314760     1.3049310
  H       -2.2011690    -1.4127350     1.3198810
  H       -1.7528960     0.0901600     2.1548740
  H       -1.7387809     0.0184271    -2.1769563
  H       -3.3054260    -0.0315150    -1.3049260
  H       -2.2011880    -1.4127830    -1.3198260
  H       -0.4545900    -2.1014670     0.0000100
  H        2.7949640     1.5970390    -0.0000090
  H        1.9701580    -2.6507840     0.0000170
  H        3.6325460    -0.7390360     0.0000060
units angstrom
no_reorient  #important for SAPT in psi4, default
symmetry c1  #important for SAPT in psi4, default
}

set PROPERTIES_ORIGIN ["COM"]
properties('MP2/aug-cc-pvtz', properties = ['dipole'])
--------------------------------------------------------------------------

    Molecular point group: c1
  Charge       = 0
  Multiplicity = 1
  Basis Set: AUG-CC-PVTZ
    Blend: AUG-CC-PVTZ
  Basis Set: (AUG-CC-PVTZ AUX)
    Blend: AUG-CC-PVTZ-JKFIT

    Orbital Energies [Eh]
    ---------------------

    Doubly Occupied:

       1A    -20.505373     2A    -15.621502     3A    -11.349915
       4A    -11.305596     5A    -11.274701     6A    -11.268923
       7A    -11.238333     8A    -11.235245     9A    -11.229149
      10A    -11.228738    11A     -1.366939    12A     -1.277599
      13A     -1.122517    14A     -1.051218    15A     -1.022526
      16A     -0.950786    17A     -0.893424    18A     -0.855873
      19A     -0.804426    20A     -0.711788    21A     -0.699517
      22A     -0.656147    23A     -0.640793    24A     -0.628046
      25A     -0.612315    26A     -0.604202    27A     -0.565005
      28A     -0.559200    29A     -0.549437    30A     -0.543520
      31A     -0.524763    32A     -0.506378    33A     -0.485361
      34A     -0.473815    35A     -0.417695    36A     -0.406723
      37A     -0.307138

  @DF-RHF Final Energy:  -438.81746298585409

   => Energetics <=

    Nuclear Repulsion Energy =            527.8838083351416799
    One-Electron Energy =               -1642.4132845342007840
    Two-Electron Energy =                 675.7120132132049548
    Total Energy =                       -438.8174629858540357
  Basis Set: (AUG-CC-PVTZ AUX)
    Blend: AUG-CC-PVTZ-RI
    Molecular point group: c1

    Geometry (in Angstrom), charge = 0, multiplicity = 1:

       Center              X                  Y                   Z               Mass
    ------------   -----------------  -----------------  -----------------  -----------------
         O            0.190876157714     2.205600789714     0.000150758410    15.994914619570
         N           -0.213344842286    -0.076812210286     0.000158758410    14.003074004430
         C           -1.668974842286     0.181665789714     0.000156758410    12.000000000000
         C           -2.310364842286    -0.358142210286     1.272786758410    12.000000000000
         C           -2.310372842286    -0.358189210286    -1.272449241590    12.000000000000
         C            0.646305157714     1.051793789714     0.000155758410    12.000000000000
         C            0.246226157714    -1.364990210286     0.000167758410    12.000000000000
         C            2.052887157714     0.715228789714     0.000157758410    12.000000000000
         C            1.582444157714    -1.655195210286     0.000171758410    12.000000000000
         C            2.503410157714    -0.576977210286     0.000165758410    12.000000000000
         H           -1.734795842286     1.271298789714     0.000137758410     1.007825032230
         H           -3.365228842286    -0.069178210286     1.305093758410     1.007825032230
         H           -2.260977842286    -1.450437210286     1.320043758410     1.007825032230
         H           -1.812704842286     0.052457789714     2.155036758410     1.007825032230
         H           -1.798589742286    -0.019275110286    -2.176793541590     1.007825032230
         H           -3.365234842286    -0.069217210286    -1.304763241590     1.007825032230
         H           -2.260996842286    -1.450485210286    -1.319663241590     1.007825032230
         H           -0.514398842286    -2.139169210286     0.000172758410     1.007825032230
         H            2.735155157714     1.559336789714     0.000153758410     1.007825032230
         H            1.910349157714    -2.688486210286     0.000179758410     1.007825032230
         H            3.572737157714    -0.776738210286     0.000168758410     1.007825032230

  Basis Set: AUG-CC-PVTZ
    Blend: AUG-CC-PVTZ
  Basis Set: (AUG-CC-PVTZ AUX)
    Blend: AUG-CC-PVTZ-JKFIT
	 Reference Energy          =    -438.8174629858540925 [Eh]
	 Singles Energy            =      -0.0000000000000000 [Eh]
	 Same-Spin Energy          =      -0.4679726933610838 [Eh]
	 Opposite-Spin Energy      =      -1.4972602202235026 [Eh]
	 Correlation Energy        =      -1.9652329135845865 [Eh]
	 Total Energy              =    -440.7826958994386928 [Eh]

	 ================> DF-SCS-MP2 Energies <==================
	-----------------------------------------------------------
	 SCS Same-Spin Scale       =       0.3333333333333333 [-]
	 SCS Opposite-Spin Scale   =       1.2000000000000000 [-]
	 SCS Same-Spin Energy      =      -0.1559908977870279 [Eh]
	 SCS Opposite-Spin Energy  =      -1.7967122642682030 [Eh]
	 SCS Correlation Energy    =      -1.9527031620552309 [Eh]
	 SCS Total Energy          =    -440.7701661479093218 [Eh]
	-----------------------------------------------------------

  Dipole Moment: [D]
     X:    -0.6572      Y:    -3.8875      Z:    -0.0005     Total:     3.9427

*** Psi4 exiting successfully. Buy a developer a beer!
