                               Psi4 1.4a3.dev225

  ==> Input File <==

--------------------------------------------------------------------------
#psi4
#
memory 32 gb

molecule  {
0 1
  O        0.2506850     2.2433030    -0.0000120
  N       -0.1535360    -0.0391100    -0.0000040
  C       -1.6091660     0.2193680    -0.0000060
  C       -2.2505560    -0.3204400     1.2726240
  C       -2.2505640    -0.3204870    -1.2726120
  C        0.7061140     1.0894960    -0.0000070
  C        0.3060350    -1.3272880     0.0000050
  C        2.1126960     0.7529310    -0.0000050
  C        1.6227086    -1.6132483     0.0000089
  C        2.5632190    -0.5392750     0.0000030
  H       -1.6749870     1.3090010    -0.0000250
  H       -3.3054200    -0.0314760     1.3049310
  H       -2.2011690    -1.4127350     1.3198810
  H       -1.7528960     0.0901600     2.1548740
  H       -1.7529050     0.0900740    -2.1548810
  H       -3.3054260    -0.0315150    -1.3049260
  H       -2.2011880    -1.4127830    -1.3198260
  H       -0.4545900    -2.1014670     0.0000100
  H        2.7949640     1.5970390    -0.0000090
  H        1.9701580    -2.6507840     0.0000170
  H        3.6325460    -0.7390360     0.0000060
units angstrom
no_reorient  #important for SAPT in psi4, default
symmetry c1  #important for SAPT in psi4, default
}

set PROPERTIES_ORIGIN ["COM"]
properties('MP2/aug-cc-pvtz', properties = ['dipole'])
--------------------------------------------------------------------------

    Molecular point group: c1
  Charge       = 0
  Multiplicity = 1
  Basis Set: AUG-CC-PVTZ
    Blend: AUG-CC-PVTZ
  Basis Set: (AUG-CC-PVTZ AUX)
    Blend: AUG-CC-PVTZ-JKFIT

    Orbital Energies [Eh]
    ---------------------

    Doubly Occupied:

       1A    -20.506068     2A    -15.619333     3A    -11.350330
       4A    -11.301531     5A    -11.273458     6A    -11.270049
       7A    -11.237621     8A    -11.236353     9A    -11.228181
      10A    -11.228166    11A     -1.367132    12A     -1.277313
      13A     -1.122724    14A     -1.050380    15A     -1.024957
      16A     -0.950080    17A     -0.892075    18A     -0.855555
      19A     -0.804013    20A     -0.711232    21A     -0.699533
      22A     -0.654838    23A     -0.639864    24A     -0.627928
      25A     -0.611922    26A     -0.605837    27A     -0.565977
      28A     -0.561762    29A     -0.547598    30A     -0.540197
      31A     -0.524708    32A     -0.504151    33A     -0.485883
      34A     -0.474891    35A     -0.418212    36A     -0.405614
      37A     -0.309713

  @DF-RHF Final Energy:  -438.81822354926163

   => Energetics <=

    Nuclear Repulsion Energy =            528.2039659368040248
    One-Electron Energy =               -1643.0740216218771366
    Two-Electron Energy =                 676.0518321358114235
    Total Energy =                       -438.8182235492616883
  Basis Set: (AUG-CC-PVTZ AUX)
    Blend: AUG-CC-PVTZ-RI
    Molecular point group: c1

    Geometry (in Angstrom), charge = 0, multiplicity = 1:

       Center              X                  Y                   Z               Mass
    ------------   -----------------  -----------------  -----------------  -----------------
         O            0.192690864794     2.204702480051    -0.000011527703    15.994914619570
         N           -0.211530135206    -0.077710519949    -0.000003527703    14.003074004430
         C           -1.667160135206     0.180767480051    -0.000005527703    12.000000000000
         C           -2.308550135206    -0.359040519949     1.272624472297    12.000000000000
         C           -2.308558135206    -0.359087519949    -1.272611527703    12.000000000000
         C            0.648119864794     1.050895480051    -0.000006527703    12.000000000000
         C            0.248040864794    -1.365888519949     0.000005472297    12.000000000000
         C            2.054701864794     0.714330480051    -0.000004527703    12.000000000000
         C            1.564714464794    -1.651848819949     0.000009372297    12.000000000000
         C            2.505224864794    -0.577875519949     0.000003472297    12.000000000000
         H           -1.732981135206     1.270400480051    -0.000024527703     1.007825032230
         H           -3.363414135206    -0.070076519949     1.304931472297     1.007825032230
         H           -2.259163135206    -1.451335519949     1.319881472297     1.007825032230
         H           -1.810890135206     0.051559480051     2.154874472297     1.007825032230
         H           -1.810899135206     0.051473480051    -2.154880527703     1.007825032230
         H           -3.363420135206    -0.070115519949    -1.304925527703     1.007825032230
         H           -2.259182135206    -1.451383519949    -1.319825527703     1.007825032230
         H           -0.512584135206    -2.140067519949     0.000010472297     1.007825032230
         H            2.736969864794     1.558438480051    -0.000008527703     1.007825032230
         H            1.912163864794    -2.689384519949     0.000017472297     1.007825032230
         H            3.574551864794    -0.777636519949     0.000006472297     1.007825032230

  Basis Set: AUG-CC-PVTZ
    Blend: AUG-CC-PVTZ
  Basis Set: (AUG-CC-PVTZ AUX)
    Blend: AUG-CC-PVTZ-JKFIT
	 Reference Energy          =    -438.8182235492616314 [Eh]
	 Singles Energy            =      -0.0000000000000000 [Eh]
	 Same-Spin Energy          =      -0.4675920408108269 [Eh]
	 Opposite-Spin Energy      =      -1.4968991664992202 [Eh]
	 Correlation Energy        =      -1.9644912073100471 [Eh]
	 Total Energy              =    -440.7827147565716928 [Eh]

	 ================> DF-SCS-MP2 Energies <==================
	-----------------------------------------------------------
	 SCS Same-Spin Scale       =       0.3333333333333333 [-]
	 SCS Opposite-Spin Scale   =       1.2000000000000000 [-]
	 SCS Same-Spin Energy      =      -0.1558640136036090 [Eh]
	 SCS Opposite-Spin Energy  =      -1.7962789997990642 [Eh]
	 SCS Correlation Energy    =      -1.9521430134026732 [Eh]
	 SCS Total Energy          =    -440.7703665626643215 [Eh]
	-----------------------------------------------------------

  Dipole Moment: [D]
     X:    -0.6229      Y:    -3.8496      Z:     0.0000     Total:     3.8996

*** Psi4 exiting successfully. Buy a developer a beer!
