                               Psi4 1.4a3.dev225

  ==> Input File <==

--------------------------------------------------------------------------
#psi4
#
memory 32 gb

molecule  {
0 1
  O        0.2506850     2.2433030    -0.0000120
  N       -0.1535360    -0.0391100    -0.0000040
  C       -1.6091660     0.2193680    -0.0000060
  C       -2.2505560    -0.3204400     1.2726240
  C       -2.2505640    -0.3204870    -1.2726120
  C        0.7061140     1.0894960    -0.0000070
  C        0.3060350    -1.3272880     0.0000050
  C        2.1321469     0.7482768    -0.0000050
  C        1.6422530    -1.6174930     0.0000090
  C        2.5632190    -0.5392750     0.0000030
  H       -1.6749870     1.3090010    -0.0000250
  H       -3.3054200    -0.0314760     1.3049310
  H       -2.2011690    -1.4127350     1.3198810
  H       -1.7528960     0.0901600     2.1548740
  H       -1.7529050     0.0900740    -2.1548810
  H       -3.3054260    -0.0315150    -1.3049260
  H       -2.2011880    -1.4127830    -1.3198260
  H       -0.4545900    -2.1014670     0.0000100
  H        2.7949640     1.5970390    -0.0000090
  H        1.9701580    -2.6507840     0.0000170
  H        3.6325460    -0.7390360     0.0000060
units angstrom
no_reorient  #important for SAPT in psi4, default
symmetry c1  #important for SAPT in psi4, default
}

set PROPERTIES_ORIGIN ["COM"]
properties('MP2/aug-cc-pvtz', properties = ['dipole'])
--------------------------------------------------------------------------

    Molecular point group: c1
  Charge       = 0
  Multiplicity = 1
  Basis Set: AUG-CC-PVTZ
    Blend: AUG-CC-PVTZ
  Basis Set: (AUG-CC-PVTZ AUX)
    Blend: AUG-CC-PVTZ-JKFIT

    Orbital Energies [Eh]
    ---------------------

    Doubly Occupied:

       1A    -20.507599     2A    -15.620834     3A    -11.352271
       4A    -11.304868     5A    -11.274150     6A    -11.266369
       7A    -11.237845     8A    -11.235654     9A    -11.228673
      10A    -11.228657    11A     -1.367577    12A     -1.277607
      13A     -1.122613    14A     -1.051812    15A     -1.021279
      16A     -0.950579    17A     -0.891311    18A     -0.856303
      19A     -0.803204    20A     -0.711281    21A     -0.699106
      22A     -0.655571    23A     -0.641914    24A     -0.627863
      25A     -0.612995    26A     -0.604034    27A     -0.563852
      28A     -0.561950    29A     -0.547709    30A     -0.546451
      31A     -0.524197    32A     -0.504506    33A     -0.486793
      34A     -0.474151    35A     -0.417618    36A     -0.408045
      37A     -0.307184

  @DF-RHF Final Energy:  -438.81816647398978

   => Energetics <=

    Nuclear Repulsion Energy =            527.6451038829201252
    One-Electron Energy =               -1641.9376908905690016
    Two-Electron Energy =                 675.4744205336589857
    Total Energy =                       -438.8181664739897769
  Basis Set: (AUG-CC-PVTZ AUX)
    Blend: AUG-CC-PVTZ-RI
    Molecular point group: c1

    Geometry (in Angstrom), charge = 0, multiplicity = 1:

       Center              X                  Y                   Z               Mass
    ------------   -----------------  -----------------  -----------------  -----------------
         O            0.189277312654     2.205481467753    -0.000011536457    15.994914619570
         N           -0.214943687346    -0.076931532247    -0.000003536457    14.003074004430
         C           -1.670573687346     0.181546467753    -0.000005536457    12.000000000000
         C           -2.311963687346    -0.358261532247     1.272624463543    12.000000000000
         C           -2.311971687346    -0.358308532247    -1.272611536457    12.000000000000
         C            0.644706312654     1.051674467753    -0.000006536457    12.000000000000
         C            0.244627312654    -1.365109532247     0.000005463543    12.000000000000
         C            2.070739212654     0.710455267753    -0.000004536457    12.000000000000
         C            1.580845312654    -1.655314532247     0.000009463543    12.000000000000
         C            2.501811312654    -0.577096532247     0.000003463543    12.000000000000
         H           -1.736394687346     1.271179467753    -0.000024536457     1.007825032230
         H           -3.366827687346    -0.069297532247     1.304931463543     1.007825032230
         H           -2.262576687346    -1.450556532247     1.319881463543     1.007825032230
         H           -1.814303687346     0.052338467753     2.154874463543     1.007825032230
         H           -1.814312687346     0.052252467753    -2.154880536457     1.007825032230
         H           -3.366833687346    -0.069336532247    -1.304925536457     1.007825032230
         H           -2.262595687346    -1.450604532247    -1.319825536457     1.007825032230
         H           -0.515997687346    -2.139288532247     0.000010463543     1.007825032230
         H            2.733556312654     1.559217467753    -0.000008536457     1.007825032230
         H            1.908750312654    -2.688605532247     0.000017463543     1.007825032230
         H            3.571138312654    -0.776857532247     0.000006463543     1.007825032230

  Basis Set: AUG-CC-PVTZ
    Blend: AUG-CC-PVTZ
  Basis Set: (AUG-CC-PVTZ AUX)
    Blend: AUG-CC-PVTZ-JKFIT
	 Reference Energy          =    -438.8181664739897769 [Eh]
	 Singles Energy            =      -0.0000000000000000 [Eh]
	 Same-Spin Energy          =      -0.4675657084282936 [Eh]
	 Opposite-Spin Energy      =      -1.4969331900406719 [Eh]
	 Correlation Energy        =      -1.9644988984689655 [Eh]
	 Total Energy              =    -440.7826653724587231 [Eh]

	 ================> DF-SCS-MP2 Energies <==================
	-----------------------------------------------------------
	 SCS Same-Spin Scale       =       0.3333333333333333 [-]
	 SCS Opposite-Spin Scale   =       1.2000000000000000 [-]
	 SCS Same-Spin Energy      =      -0.1558552361427645 [Eh]
	 SCS Opposite-Spin Energy  =      -1.7963198280488062 [Eh]
	 SCS Correlation Energy    =      -1.9521750641915707 [Eh]
	 SCS Total Energy          =    -440.7703415381813556 [Eh]
	-----------------------------------------------------------

  Dipole Moment: [D]
     X:    -0.6789      Y:    -3.8140      Z:     0.0000     Total:     3.8740

*** Psi4 exiting successfully. Buy a developer a beer!
