                               Psi4 1.4a3.dev225

  ==> Input File <==

--------------------------------------------------------------------------
#psi4
#
memory 32 gb

molecule  {
0 1
  O        0.2506850     2.2433030    -0.0000120
  N       -0.1535360    -0.0391100    -0.0000040
  C       -1.6091660     0.2193680    -0.0000060
  C       -2.2505560    -0.3204400     1.2726240
  C       -2.2505640    -0.3204870    -1.2726120
  C        0.7061140     1.0894960    -0.0000070
  C        0.3060350    -1.3272880     0.0000050
  C        2.1126960     0.7529310    -0.0000050
  C        1.6422530    -1.6174930     0.0000090
  C        2.5632190    -0.5392750     0.0000030
  H       -1.6749870     1.3090010    -0.0000250
  H       -3.3054200    -0.0314760     1.3049310
  H       -2.2011690    -1.4127350     1.3198810
  H       -1.7528960     0.0901600     2.1548740
  H       -1.6882070     0.0583161    -2.1298671
  H       -3.3054260    -0.0315150    -1.3049260
  H       -2.2011880    -1.4127830    -1.3198260
  H       -0.4545900    -2.1014670     0.0000100
  H        2.7949640     1.5970390    -0.0000090
  H        1.9701580    -2.6507840     0.0000170
  H        3.6325460    -0.7390360     0.0000060
units angstrom
no_reorient  #important for SAPT in psi4, default
symmetry c1  #important for SAPT in psi4, default
}

set PROPERTIES_ORIGIN ["COM"]
properties('MP2/aug-cc-pvtz', properties = ['dipole'])
--------------------------------------------------------------------------

    Molecular point group: c1
  Charge       = 0
  Multiplicity = 1
  Basis Set: AUG-CC-PVTZ
    Blend: AUG-CC-PVTZ
  Basis Set: (AUG-CC-PVTZ AUX)
    Blend: AUG-CC-PVTZ-JKFIT

    Orbital Energies [Eh]
    ---------------------

    Doubly Occupied:

       1A    -20.505561     2A    -15.621621     3A    -11.350101
       4A    -11.305730     5A    -11.273745     6A    -11.269065
       7A    -11.238459     8A    -11.235382     9A    -11.228914
      10A    -11.228442    11A     -1.367139    12A     -1.277776
      13A     -1.122699    14A     -1.051364    15A     -1.022663
      16A     -0.950760    17A     -0.893263    18A     -0.855888
      19A     -0.803612    20A     -0.711664    21A     -0.699494
      22A     -0.655732    23A     -0.640838    24A     -0.629010
      25A     -0.611971    26A     -0.604312    27A     -0.565656
      28A     -0.560953    29A     -0.550221    30A     -0.544095
      31A     -0.525085    32A     -0.502595    33A     -0.486623
      34A     -0.473523    35A     -0.417847    36A     -0.406688
      37A     -0.307288

  @DF-RHF Final Energy:  -438.81735827999307

   => Energetics <=

    Nuclear Repulsion Energy =            528.0557891995374575
    One-Electron Energy =               -1642.7547372159312999
    Two-Electron Energy =                 675.8815897364007697
    Total Energy =                       -438.8173582799930728
  Basis Set: (AUG-CC-PVTZ AUX)
    Blend: AUG-CC-PVTZ-RI
    Molecular point group: c1

    Geometry (in Angstrom), charge = 0, multiplicity = 1:

       Center              X                  Y                   Z               Mass
    ------------   -----------------  -----------------  -----------------  -----------------
         O            0.190504344675     2.205307530735    -0.000195435547    15.994914619570
         N           -0.213716655325    -0.077105469265    -0.000187435547    14.003074004430
         C           -1.669346655325     0.181372530735    -0.000189435547    12.000000000000
         C           -2.310736655325    -0.358435469265     1.272440564453    12.000000000000
         C           -2.310744655325    -0.358482469265    -1.272795435547    12.000000000000
         C            0.645933344675     1.051500530735    -0.000190435547    12.000000000000
         C            0.245854344675    -1.365283469265    -0.000178435547    12.000000000000
         C            2.052515344675     0.714935530735    -0.000188435547    12.000000000000
         C            1.582072344675    -1.655488469265    -0.000174435547    12.000000000000
         C            2.503038344675    -0.577270469265    -0.000180435547    12.000000000000
         H           -1.735167655325     1.271005530735    -0.000208435547     1.007825032230
         H           -3.365600655325    -0.069471469265     1.304747564453     1.007825032230
         H           -2.261349655325    -1.450730469265     1.319697564453     1.007825032230
         H           -1.813076655325     0.052164530735     2.154690564453     1.007825032230
         H           -1.748387655325     0.020320630735    -2.130050535547     1.007825032230
         H           -3.365606655325    -0.069510469265    -1.305109435547     1.007825032230
         H           -2.261368655325    -1.450778469265    -1.320009435547     1.007825032230
         H           -0.514770655325    -2.139462469265    -0.000173435547     1.007825032230
         H            2.734783344675     1.559043530735    -0.000192435547     1.007825032230
         H            1.909977344675    -2.688779469265    -0.000166435547     1.007825032230
         H            3.572365344675    -0.777031469265    -0.000177435547     1.007825032230

  Basis Set: AUG-CC-PVTZ
    Blend: AUG-CC-PVTZ
  Basis Set: (AUG-CC-PVTZ AUX)
    Blend: AUG-CC-PVTZ-JKFIT
	 Reference Energy          =    -438.8173582799930728 [Eh]
	 Singles Energy            =      -0.0000000000000000 [Eh]
	 Same-Spin Energy          =      -0.4680220778872791 [Eh]
	 Opposite-Spin Energy      =      -1.4973934113654410 [Eh]
	 Correlation Energy        =      -1.9654154892527202 [Eh]
	 Total Energy              =    -440.7827737692458072 [Eh]

	 ================> DF-SCS-MP2 Energies <==================
	-----------------------------------------------------------
	 SCS Same-Spin Scale       =       0.3333333333333333 [-]
	 SCS Opposite-Spin Scale   =       1.2000000000000000 [-]
	 SCS Same-Spin Energy      =      -0.1560073592957597 [Eh]
	 SCS Opposite-Spin Energy  =      -1.7968720936385292 [Eh]
	 SCS Correlation Energy    =      -1.9528794529342888 [Eh]
	 SCS Total Energy          =    -440.7702377329273418 [Eh]
	-----------------------------------------------------------

  Dipole Moment: [D]
     X:    -0.6449      Y:    -3.8835      Z:     0.0115     Total:     3.9367

*** Psi4 exiting successfully. Buy a developer a beer!
