                               Psi4 1.4a3.dev225

  ==> Input File <==

--------------------------------------------------------------------------
#psi4
#
memory 32 gb

molecule  {
0 1
  O        0.2506850     2.2433030    -0.0000120
  N       -0.1535360    -0.0391100    -0.0000040
  C       -1.6091660     0.2193680    -0.0000060
  C       -2.2505560    -0.3204400     1.2726240
  C       -2.2505640    -0.3204870    -1.2726120
  C        0.7061140     1.0894960    -0.0000070
  C        0.3060350    -1.3272880     0.0000050
  C        2.1126960     0.7529310    -0.0000050
  C        1.6422530    -1.6174930     0.0000090
  C        2.5632190    -0.5392750     0.0000030
  H       -1.6749870     1.3090010    -0.0000250
  H       -3.3054200    -0.0314760     1.3049310
  H       -2.2011690    -1.4127350     1.3198810
  H       -1.7756620     0.0713766     2.1145145
  H       -1.7529050     0.0900740    -2.1548810
  H       -3.3054260    -0.0315150    -1.3049260
  H       -2.2011880    -1.4127830    -1.3198260
  H       -0.4545900    -2.1014670     0.0000100
  H        2.7949640     1.5970390    -0.0000090
  H        1.9701580    -2.6507840     0.0000170
  H        3.6325460    -0.7390360     0.0000060
units angstrom
no_reorient  #important for SAPT in psi4, default
symmetry c1  #important for SAPT in psi4, default
}

set PROPERTIES_ORIGIN ["COM"]
properties('MP2/aug-cc-pvtz', properties = ['dipole'])
--------------------------------------------------------------------------

    Molecular point group: c1
  Charge       = 0
  Multiplicity = 1
  Basis Set: AUG-CC-PVTZ
    Blend: AUG-CC-PVTZ
  Basis Set: (AUG-CC-PVTZ AUX)
    Blend: AUG-CC-PVTZ-JKFIT

    Orbital Energies [Eh]
    ---------------------

    Doubly Occupied:

       1A    -20.505445     2A    -15.621486     3A    -11.349966
       4A    -11.305609     5A    -11.273740     6A    -11.268944
       7A    -11.238328     8A    -11.235253     9A    -11.228333
      10A    -11.222710    11A     -1.367014    12A     -1.277620
      13A     -1.122657    14A     -1.051963    15A     -1.022554
      16A     -0.954005    17A     -0.893543    18A     -0.856056
      19A     -0.804521    20A     -0.711494    21A     -0.699662
      22A     -0.656430    23A     -0.640707    24A     -0.628069
      25A     -0.617223    26A     -0.604386    27A     -0.564769
      28A     -0.562844    29A     -0.548254    30A     -0.544114
      31A     -0.524292    32A     -0.507445    33A     -0.486875
      34A     -0.473861    35A     -0.417742    36A     -0.406561
      37A     -0.307156

  @DF-RHF Final Energy:  -438.81698607610281

   => Energetics <=

    Nuclear Repulsion Energy =            528.1349665605216614
    One-Electron Energy =               -1642.9006355051353694
    Two-Electron Energy =                 675.9486828685109003
    Total Energy =                       -438.8169860761028076
  Basis Set: (AUG-CC-PVTZ AUX)
    Blend: AUG-CC-PVTZ-RI
    Molecular point group: c1

    Geometry (in Angstrom), charge = 0, multiplicity = 1:

       Center              X                  Y                   Z               Mass
    ------------   -----------------  -----------------  -----------------  -----------------
         O            0.191147369153     2.205212143820     0.000285181580    15.994914619570
         N           -0.213073630847    -0.077200856180     0.000293181580    14.003074004430
         C           -1.668703630847     0.181277143820     0.000291181580    12.000000000000
         C           -2.310093630847    -0.358530856180     1.272921181580    12.000000000000
         C           -2.310101630847    -0.358577856180    -1.272314818420    12.000000000000
         C            0.646576369153     1.051405143820     0.000290181580    12.000000000000
         C            0.246497369153    -1.365378856180     0.000302181580    12.000000000000
         C            2.053158369153     0.714840143820     0.000292181580    12.000000000000
         C            1.582715369153    -1.655583856180     0.000306181580    12.000000000000
         C            2.503681369153    -0.577365856180     0.000300181580    12.000000000000
         H           -1.734524630847     1.270910143820     0.000272181580     1.007825032230
         H           -3.364957630847    -0.069566856180     1.305228181580     1.007825032230
         H           -2.260706630847    -1.450825856180     1.320178181580     1.007825032230
         H           -1.835199630847     0.033285743820     2.114811681580     1.007825032230
         H           -1.812442630847     0.051983143820    -2.154583818420     1.007825032230
         H           -3.364963630847    -0.069605856180    -1.304628818420     1.007825032230
         H           -2.260725630847    -1.450873856180    -1.319528818420     1.007825032230
         H           -0.514127630847    -2.139557856180     0.000307181580     1.007825032230
         H            2.735426369153     1.558948143820     0.000288181580     1.007825032230
         H            1.910620369153    -2.688874856180     0.000314181580     1.007825032230
         H            3.573008369153    -0.777126856180     0.000303181580     1.007825032230

  Basis Set: AUG-CC-PVTZ
    Blend: AUG-CC-PVTZ
  Basis Set: (AUG-CC-PVTZ AUX)
    Blend: AUG-CC-PVTZ-JKFIT
	 Reference Energy          =    -438.8169860761028076 [Eh]
	 Singles Energy            =      -0.0000000000000000 [Eh]
	 Same-Spin Energy          =      -0.4679631023344630 [Eh]
	 Opposite-Spin Energy      =      -1.4969833496091212 [Eh]
	 Correlation Energy        =      -1.9649464519435842 [Eh]
	 Total Energy              =    -440.7819325280464113 [Eh]

	 ================> DF-SCS-MP2 Energies <==================
	-----------------------------------------------------------
	 SCS Same-Spin Scale       =       0.3333333333333333 [-]
	 SCS Opposite-Spin Scale   =       1.2000000000000000 [-]
	 SCS Same-Spin Energy      =      -0.1559877007781543 [Eh]
	 SCS Opposite-Spin Energy  =      -1.7963800195309454 [Eh]
	 SCS Correlation Energy    =      -1.9523677203090997 [Eh]
	 SCS Total Energy          =    -440.7693537964119059 [Eh]
	-----------------------------------------------------------

  Dipole Moment: [D]
     X:    -0.6602      Y:    -3.8660      Z:     0.0220     Total:     3.9220

*** Psi4 exiting successfully. Buy a developer a beer!
