                               Psi4 1.4a3.dev225

  ==> Input File <==

--------------------------------------------------------------------------
#psi4
#
memory 32 gb

molecule  {
0 1
  O        0.2506850     2.2433030    -0.0000120
  N       -0.1535360    -0.0391100    -0.0000040
  C       -1.6091660     0.2193680    -0.0000060
  C       -2.2505560    -0.3204400     1.2726240
  C       -2.2505640    -0.3204870    -1.2726120
  C        0.7061140     1.0894960    -0.0000070
  C        0.3060350    -1.3272880     0.0000050
  C        2.1126960     0.7529310    -0.0000050
  C        1.6422530    -1.6174930     0.0000090
  C        2.5632190    -0.5392750     0.0000030
  H       -1.6749870     1.3090010    -0.0000250
  H       -3.3054200    -0.0314760     1.3049310
  H       -2.2011690    -1.4127350     1.3198810
  H       -1.7528960     0.0901600     2.1548740
  H       -1.7529050     0.0900740    -2.1548810
  H       -3.3054260    -0.0315150    -1.3049260
  H       -2.2011880    -1.4127830    -1.3198260
  H       -0.4686067    -2.1157335     0.0000101
  H        2.7949640     1.5970390    -0.0000090
  H        1.9701580    -2.6507840     0.0000170
  H        3.6325460    -0.7390360     0.0000060
units angstrom
no_reorient  #important for SAPT in psi4, default
symmetry c1  #important for SAPT in psi4, default
}

set PROPERTIES_ORIGIN ["COM"]
properties('MP2/aug-cc-pvtz', properties = ['dipole'])
--------------------------------------------------------------------------

    Molecular point group: c1
  Charge       = 0
  Multiplicity = 1
  Basis Set: AUG-CC-PVTZ
    Blend: AUG-CC-PVTZ
  Basis Set: (AUG-CC-PVTZ AUX)
    Blend: AUG-CC-PVTZ-JKFIT

    Orbital Energies [Eh]
    ---------------------

    Doubly Occupied:

       1A    -20.505514     2A    -15.621651     3A    -11.350069
       4A    -11.307791     5A    -11.274188     6A    -11.269027
       7A    -11.238415     8A    -11.235260     9A    -11.228715
      10A    -11.228699    11A     -1.367068    12A     -1.277567
      13A     -1.122569    14A     -1.051261    15A     -1.021839
      16A     -0.950614    17A     -0.892669    18A     -0.855453
      19A     -0.803533    20A     -0.710918    21A     -0.698232
      22A     -0.654255    23A     -0.640742    24A     -0.628201
      25A     -0.612858    26A     -0.603408    27A     -0.564338
      28A     -0.562110    29A     -0.547924    30A     -0.543486
      31A     -0.524375    32A     -0.504579    33A     -0.486539
      34A     -0.473841    35A     -0.417771    36A     -0.406698
      37A     -0.307189

  @DF-RHF Final Energy:  -438.81725481628621

   => Energetics <=

    Nuclear Repulsion Energy =            527.8178752721991032
    One-Electron Energy =               -1642.2915300717577338
    Two-Electron Energy =                 675.6563999832723084
    Total Energy =                       -438.8172548162862086
  Basis Set: (AUG-CC-PVTZ AUX)
    Blend: AUG-CC-PVTZ-RI
    Molecular point group: c1

    Geometry (in Angstrom), charge = 0, multiplicity = 1:

       Center              X                  Y                   Z               Mass
    ------------   -----------------  -----------------  -----------------  -----------------
         O            0.191083045384     2.205178936132    -0.000011537192    15.994914619570
         N           -0.213137954616    -0.077234063868    -0.000003537192    14.003074004430
         C           -1.668767954616     0.181243936132    -0.000005537192    12.000000000000
         C           -2.310157954616    -0.358564063868     1.272624462808    12.000000000000
         C           -2.310165954616    -0.358611063868    -1.272611537192    12.000000000000
         C            0.646512045384     1.051371936132    -0.000006537192    12.000000000000
         C            0.246433045384    -1.365412063868     0.000005462808    12.000000000000
         C            2.053094045384     0.714806936132    -0.000004537192    12.000000000000
         C            1.582651045384    -1.655617063868     0.000009462808    12.000000000000
         C            2.503617045384    -0.577399063868     0.000003462808    12.000000000000
         H           -1.734588954616     1.270876936132    -0.000024537192     1.007825032230
         H           -3.365021954616    -0.069600063868     1.304931462808     1.007825032230
         H           -2.260770954616    -1.450859063868     1.319881462808     1.007825032230
         H           -1.812497954616     0.052035936132     2.154874462808     1.007825032230
         H           -1.812506954616     0.051949936132    -2.154880537192     1.007825032230
         H           -3.365027954616    -0.069639063868    -1.304925537192     1.007825032230
         H           -2.260789954616    -1.450907063868    -1.319825537192     1.007825032230
         H           -0.528208654616    -2.153857563868     0.000010562808     1.007825032230
         H            2.735362045384     1.558914936132    -0.000008537192     1.007825032230
         H            1.910556045384    -2.688908063868     0.000017462808     1.007825032230
         H            3.572944045384    -0.777160063868     0.000006462808     1.007825032230

  Basis Set: AUG-CC-PVTZ
    Blend: AUG-CC-PVTZ
  Basis Set: (AUG-CC-PVTZ AUX)
    Blend: AUG-CC-PVTZ-JKFIT
	 Reference Energy          =    -438.8172548162862086 [Eh]
	 Singles Energy            =      -0.0000000000000000 [Eh]
	 Same-Spin Energy          =      -0.4680542759804731 [Eh]
	 Opposite-Spin Energy      =      -1.4974705815298783 [Eh]
	 Correlation Energy        =      -1.9655248575103514 [Eh]
	 Total Energy              =    -440.7827796737965400 [Eh]

	 ================> DF-SCS-MP2 Energies <==================
	-----------------------------------------------------------
	 SCS Same-Spin Scale       =       0.3333333333333333 [-]
	 SCS Opposite-Spin Scale   =       1.2000000000000000 [-]
	 SCS Same-Spin Energy      =      -0.1560180919934910 [Eh]
	 SCS Opposite-Spin Energy  =      -1.7969646978358540 [Eh]
	 SCS Correlation Energy    =      -1.9529827898293450 [Eh]
	 SCS Total Energy          =    -440.7702376061155292 [Eh]
	-----------------------------------------------------------

  Dipole Moment: [D]
     X:    -0.6633      Y:    -3.8664      Z:     0.0000     Total:     3.9228

*** Psi4 exiting successfully. Buy a developer a beer!
