                               Psi4 1.4a3.dev225

  ==> Input File <==

--------------------------------------------------------------------------
#psi4
#
memory 32 gb

molecule  {
0 1
  O        0.2506850     2.2433030    -0.0000120
  N       -0.1535360    -0.0391100    -0.0000040
  C       -1.6091660     0.2193680    -0.0000060
  C       -2.2505560    -0.3204400     1.2726240
  C       -2.2505640    -0.3204870    -1.2726120
  C        0.7061140     1.0894960    -0.0000070
  C        0.3060350    -1.3272880     0.0000050
  C        2.1126960     0.7529310    -0.0000050
  C        1.6422530    -1.6174930     0.0000090
  C        2.5632190    -0.5392750     0.0000030
  H       -1.6749870     1.3090010    -0.0000250
  H       -3.3054200    -0.0314760     1.3049310
  H       -2.2011690    -1.4127350     1.3198810
  H       -1.7528960     0.0901600     2.1548740
  H       -1.7694709     0.0977068    -2.1604672
  H       -3.3054260    -0.0315150    -1.3049260
  H       -2.2011880    -1.4127830    -1.3198260
  H       -0.4545900    -2.1014670     0.0000100
  H        2.7949640     1.5970390    -0.0000090
  H        1.9701580    -2.6507840     0.0000170
  H        3.6325460    -0.7390360     0.0000060
units angstrom
no_reorient  #important for SAPT in psi4, default
symmetry c1  #important for SAPT in psi4, default
}

set PROPERTIES_ORIGIN ["COM"]
properties('MP2/aug-cc-pvtz', properties = ['dipole'])
--------------------------------------------------------------------------

    Molecular point group: c1
  Charge       = 0
  Multiplicity = 1
  Basis Set: AUG-CC-PVTZ
    Blend: AUG-CC-PVTZ
  Basis Set: (AUG-CC-PVTZ AUX)
    Blend: AUG-CC-PVTZ-JKFIT

    Orbital Energies [Eh]
    ---------------------

    Doubly Occupied:

       1A    -20.505399     2A    -15.621440     3A    -11.349919
       4A    -11.305603     5A    -11.274291     6A    -11.268896
       7A    -11.238291     8A    -11.235207     9A    -11.228832
      10A    -11.228720    11A     -1.366958    12A     -1.277564
      13A     -1.122493    14A     -1.051251    15A     -1.022493
      16A     -0.950649    17A     -0.893267    18A     -0.855891
      19A     -0.803945    20A     -0.711429    21A     -0.699552
      22A     -0.655468    23A     -0.640877    24A     -0.628003
      25A     -0.613181    26A     -0.604310    27A     -0.564234
      28A     -0.562394    29A     -0.547406    30A     -0.543684
      31A     -0.524138    32A     -0.504946    33A     -0.486841
      34A     -0.473828    35A     -0.417723    36A     -0.406614
      37A     -0.307112

  @DF-RHF Final Energy:  -438.81795682299258

   => Energetics <=

    Nuclear Repulsion Energy =            527.8853139163514925
    One-Electron Energy =               -1642.4208407898825044
    Two-Electron Energy =                 675.7175700505385976
    Total Energy =                       -438.8179568229925280
  Basis Set: (AUG-CC-PVTZ AUX)
    Blend: AUG-CC-PVTZ-RI
    Molecular point group: c1

    Geometry (in Angstrom), charge = 0, multiplicity = 1:

       Center              X                  Y                   Z               Mass
    ------------   -----------------  -----------------  -----------------  -----------------
         O            0.191101786786     2.205017935195     0.000029532592    15.994914619570
         N           -0.213119213214    -0.077395064805     0.000037532592    14.003074004430
         C           -1.668749213214     0.181082935195     0.000035532592    12.000000000000
         C           -2.310139213214    -0.358725064805     1.272665532592    12.000000000000
         C           -2.310147213214    -0.358772064805    -1.272570467408    12.000000000000
         C            0.646530786786     1.051210935195     0.000034532592    12.000000000000
         C            0.246451786786    -1.365573064805     0.000046532592    12.000000000000
         C            2.053112786786     0.714645935195     0.000036532592    12.000000000000
         C            1.582669786786    -1.655778064805     0.000050532592    12.000000000000
         C            2.503635786786    -0.577560064805     0.000044532592    12.000000000000
         H           -1.734570213214     1.270715935195     0.000016532592     1.007825032230
         H           -3.365003213214    -0.069761064805     1.304972532592     1.007825032230
         H           -2.260752213214    -1.451020064805     1.319922532592     1.007825032230
         H           -1.812479213214     0.051874935195     2.154915532592     1.007825032230
         H           -1.829054113214     0.059421735195    -2.160425667408     1.007825032230
         H           -3.365009213214    -0.069800064805    -1.304884467408     1.007825032230
         H           -2.260771213214    -1.451068064805    -1.319784467408     1.007825032230
         H           -0.514173213214    -2.139752064805     0.000051532592     1.007825032230
         H            2.735380786786     1.558753935195     0.000032532592     1.007825032230
         H            1.910574786786    -2.689069064805     0.000058532592     1.007825032230
         H            3.572962786786    -0.777321064805     0.000047532592     1.007825032230

  Basis Set: AUG-CC-PVTZ
    Blend: AUG-CC-PVTZ
  Basis Set: (AUG-CC-PVTZ AUX)
    Blend: AUG-CC-PVTZ-JKFIT
	 Reference Energy          =    -438.8179568229925849 [Eh]
	 Singles Energy            =      -0.0000000000000000 [Eh]
	 Same-Spin Energy          =      -0.4679620438765849 [Eh]
	 Opposite-Spin Energy      =      -1.4972603117341683 [Eh]
	 Correlation Energy        =      -1.9652223556107531 [Eh]
	 Total Energy              =    -440.7831791786033477 [Eh]

	 ================> DF-SCS-MP2 Energies <==================
	-----------------------------------------------------------
	 SCS Same-Spin Scale       =       0.3333333333333333 [-]
	 SCS Opposite-Spin Scale   =       1.2000000000000000 [-]
	 SCS Same-Spin Energy      =      -0.1559873479588616 [Eh]
	 SCS Opposite-Spin Energy  =      -1.7967123740810018 [Eh]
	 SCS Correlation Energy    =      -1.9526997220398634 [Eh]
	 SCS Total Energy          =    -440.7706565450324661 [Eh]
	-----------------------------------------------------------

  Dipole Moment: [D]
     X:    -0.6709      Y:    -3.8661      Z:    -0.0026     Total:     3.9239

*** Psi4 exiting successfully. Buy a developer a beer!
