                               Psi4 1.4a3.dev225

  ==> Input File <==

--------------------------------------------------------------------------
#psi4
#
memory 32 gb

molecule  {
0 1
  O        0.2506850     2.2433030    -0.0000120
  N       -0.1652197    -0.0843100    -0.0920302
  C       -1.6091660     0.2193680    -0.0000060
  C       -2.2505560    -0.3204400     1.2726240
  C       -2.2505640    -0.3204870    -1.2726120
  C        0.7061140     1.0894960    -0.0000070
  C        0.3060350    -1.3272880     0.0000050
  C        2.1126960     0.7529310    -0.0000050
  C        1.6422530    -1.6174930     0.0000090
  C        2.5632190    -0.5392750     0.0000030
  H       -1.6749870     1.3090010    -0.0000250
  H       -3.3054200    -0.0314760     1.3049310
  H       -2.2011690    -1.4127350     1.3198810
  H       -1.7528960     0.0901600     2.1548740
  H       -1.7529050     0.0900740    -2.1548810
  H       -3.3054260    -0.0315150    -1.3049260
  H       -2.2011880    -1.4127830    -1.3198260
  H       -0.4545900    -2.1014670     0.0000100
  H        2.7949640     1.5970390    -0.0000090
  H        1.9701580    -2.6507840     0.0000170
  H        3.6325460    -0.7390360     0.0000060
units angstrom
no_reorient  #important for SAPT in psi4, default
symmetry c1  #important for SAPT in psi4, default
}

set PROPERTIES_ORIGIN ["COM"]
properties('MP2/aug-cc-pvtz', properties = ['dipole'])
--------------------------------------------------------------------------

    Molecular point group: c1
  Charge       = 0
  Multiplicity = 1
  Basis Set: AUG-CC-PVTZ
    Blend: AUG-CC-PVTZ
  Basis Set: (AUG-CC-PVTZ AUX)
    Blend: AUG-CC-PVTZ-JKFIT

    Orbital Energies [Eh]
    ---------------------

    Doubly Occupied:

       1A    -20.512576     2A    -15.622318     3A    -11.355587
       4A    -11.303483     5A    -11.275183     6A    -11.269098
       7A    -11.233784     8A    -11.232938     9A    -11.230913
      10A    -11.226820    11A     -1.367420    12A     -1.285024
      13A     -1.121810    14A     -1.053080    15A     -1.018077
      16A     -0.951252    17A     -0.892254    18A     -0.854118
      19A     -0.804177    20A     -0.713264    21A     -0.695600
      22A     -0.656478    23A     -0.643897    24A     -0.627593
      25A     -0.611740    26A     -0.605228    27A     -0.565662
      28A     -0.562727    29A     -0.548176    30A     -0.542204
      31A     -0.527133    32A     -0.505944    33A     -0.484914
      34A     -0.477417    35A     -0.420008    36A     -0.407817
      37A     -0.303284

  @DF-RHF Final Energy:  -438.81187280205666

   => Energetics <=

    Nuclear Repulsion Energy =            527.7067018076658087
    One-Electron Energy =               -1642.0191538651902192
    Two-Electron Energy =                 675.5005792554676418
    Total Energy =                       -438.8118728020566550
  Basis Set: (AUG-CC-PVTZ AUX)
    Blend: AUG-CC-PVTZ-RI
    Molecular point group: c1

    Geometry (in Angstrom), charge = 0, multiplicity = 1:

       Center              X                  Y                   Z               Mass
    ------------   -----------------  -----------------  -----------------  -----------------
         O            0.192173480919     2.209691209778     0.009388897492    15.994914619570
         N           -0.223731219081    -0.117921790222    -0.082629302508    14.003074004430
         C           -1.667677519081     0.185756209778     0.009394897492    12.000000000000
         C           -2.309067519081    -0.354051790222     1.282024897492    12.000000000000
         C           -2.309075519081    -0.354098790222    -1.263211102508    12.000000000000
         C            0.647602480919     1.055884209778     0.009393897492    12.000000000000
         C            0.247523480919    -1.360899790222     0.009405897492    12.000000000000
         C            2.054184480919     0.719319209778     0.009395897492    12.000000000000
         C            1.583741480919    -1.651104790222     0.009409897492    12.000000000000
         C            2.504707480919    -0.572886790222     0.009403897492    12.000000000000
         H           -1.733498519081     1.275389209778     0.009375897492     1.007825032230
         H           -3.363931519081    -0.065087790222     1.314331897492     1.007825032230
         H           -2.259680519081    -1.446346790222     1.329281897492     1.007825032230
         H           -1.811407519081     0.056548209778     2.164274897492     1.007825032230
         H           -1.811416519081     0.056462209778    -2.145480102508     1.007825032230
         H           -3.363937519081    -0.065126790222    -1.295525102508     1.007825032230
         H           -2.259699519081    -1.446394790222    -1.310425102508     1.007825032230
         H           -0.513101519081    -2.135078790222     0.009410897492     1.007825032230
         H            2.736452480919     1.563427209778     0.009391897492     1.007825032230
         H            1.911646480919    -2.684395790222     0.009417897492     1.007825032230
         H            3.574034480919    -0.772647790222     0.009406897492     1.007825032230

  Basis Set: AUG-CC-PVTZ
    Blend: AUG-CC-PVTZ
  Basis Set: (AUG-CC-PVTZ AUX)
    Blend: AUG-CC-PVTZ-JKFIT
	 Reference Energy          =    -438.8118728020566550 [Eh]
	 Singles Energy            =      -0.0000000000000000 [Eh]
	 Same-Spin Energy          =      -0.4687145716319308 [Eh]
	 Opposite-Spin Energy      =      -1.4980762600828963 [Eh]
	 Correlation Energy        =      -1.9667908317148270 [Eh]
	 Total Energy              =    -440.7786636337714867 [Eh]

	 ================> DF-SCS-MP2 Energies <==================
	-----------------------------------------------------------
	 SCS Same-Spin Scale       =       0.3333333333333333 [-]
	 SCS Opposite-Spin Scale   =       1.2000000000000000 [-]
	 SCS Same-Spin Energy      =      -0.1562381905439769 [Eh]
	 SCS Opposite-Spin Energy  =      -1.7976915120994754 [Eh]
	 SCS Correlation Energy    =      -1.9539297026434523 [Eh]
	 SCS Total Energy          =    -440.7658025047001047 [Eh]
	-----------------------------------------------------------

  Dipole Moment: [D]
     X:    -0.7360      Y:    -3.6627      Z:     0.0825     Total:     3.7368

*** Psi4 exiting successfully. Buy a developer a beer!
