                               Psi4 1.4a3.dev225

  ==> Input File <==

--------------------------------------------------------------------------
#psi4
#
memory 32 gb

molecule  {
0 1
  O        0.2506850     2.2433030    -0.0000120
  N       -0.1535360    -0.0391100    -0.0000040
  C       -1.6091660     0.2193680    -0.0000060
  C       -2.2505560    -0.3204400     1.2726240
  C       -2.2505640    -0.3204870    -1.2726120
  C        0.7061140     1.0894960    -0.0000070
  C        0.3060350    -1.3272880     0.0000050
  C        2.1126960     0.7529310    -0.0000050
  C        1.6422530    -1.6174930     0.0000090
  C        2.5566348    -0.5203899     0.0000029
  H       -1.6749870     1.3090010    -0.0000250
  H       -3.3054200    -0.0314760     1.3049310
  H       -2.2011690    -1.4127350     1.3198810
  H       -1.7528960     0.0901600     2.1548740
  H       -1.7529050     0.0900740    -2.1548810
  H       -3.3054260    -0.0315150    -1.3049260
  H       -2.2011880    -1.4127830    -1.3198260
  H       -0.4545900    -2.1014670     0.0000100
  H        2.7949640     1.5970390    -0.0000090
  H        1.9701580    -2.6507840     0.0000170
  H        3.6325460    -0.7390360     0.0000060
units angstrom
no_reorient  #important for SAPT in psi4, default
symmetry c1  #important for SAPT in psi4, default
}

set PROPERTIES_ORIGIN ["COM"]
properties('MP2/aug-cc-pvtz', properties = ['dipole'])
--------------------------------------------------------------------------

    Molecular point group: c1
  Charge       = 0
  Multiplicity = 1
  Basis Set: AUG-CC-PVTZ
    Blend: AUG-CC-PVTZ
  Basis Set: (AUG-CC-PVTZ AUX)
    Blend: AUG-CC-PVTZ-JKFIT

    Orbital Energies [Eh]
    ---------------------

    Doubly Occupied:

       1A    -20.506759     2A    -15.620383     3A    -11.350738
       4A    -11.304462     5A    -11.273940     6A    -11.267621
       7A    -11.238417     8A    -11.233645     9A    -11.228517
      10A    -11.228501    11A     -1.367699    12A     -1.277491
      13A     -1.123306    14A     -1.051673    15A     -1.023457
      16A     -0.950423    17A     -0.891269    18A     -0.856803
      19A     -0.803088    20A     -0.711141    21A     -0.699451
      22A     -0.655074    23A     -0.640935    24A     -0.628147
      25A     -0.612934    26A     -0.604749    27A     -0.564408
      28A     -0.562022    29A     -0.548024    30A     -0.543449
      31A     -0.523271    32A     -0.504608    33A     -0.486249
      34A     -0.473481    35A     -0.418373    36A     -0.408466
      37A     -0.308583

  @DF-RHF Final Energy:  -438.81837545050337

   => Energetics <=

    Nuclear Repulsion Energy =            528.1505501637423095
    One-Electron Energy =               -1642.9547396899440628
    Two-Electron Energy =                 675.9858140756983858
    Total Energy =                       -438.8183754505033676
  Basis Set: (AUG-CC-PVTZ AUX)
    Blend: AUG-CC-PVTZ-RI
    Molecular point group: c1

    Geometry (in Angstrom), charge = 0, multiplicity = 1:

       Center              X                  Y                   Z               Mass
    ------------   -----------------  -----------------  -----------------  -----------------
         O            0.191556360932     2.203420895636    -0.000011527703    15.994914619570
         N           -0.212664639068    -0.078992104364    -0.000003527703    14.003074004430
         C           -1.668294639068     0.179485895636    -0.000005527703    12.000000000000
         C           -2.309684639068    -0.360322104364     1.272624472297    12.000000000000
         C           -2.309692639068    -0.360369104364    -1.272611527703    12.000000000000
         C            0.646985360932     1.049613895636    -0.000006527703    12.000000000000
         C            0.246906360932    -1.367170104364     0.000005472297    12.000000000000
         C            2.053567360932     0.713048895636    -0.000004527703    12.000000000000
         C            1.583124360932    -1.657375104364     0.000009472297    12.000000000000
         C            2.497506160932    -0.560272004364     0.000003372297    12.000000000000
         H           -1.734115639068     1.269118895636    -0.000024527703     1.007825032230
         H           -3.364548639068    -0.071358104364     1.304931472297     1.007825032230
         H           -2.260297639068    -1.452617104364     1.319881472297     1.007825032230
         H           -1.812024639068     0.050277895636     2.154874472297     1.007825032230
         H           -1.812033639068     0.050191895636    -2.154880527703     1.007825032230
         H           -3.364554639068    -0.071397104364    -1.304925527703     1.007825032230
         H           -2.260316639068    -1.452665104364    -1.319825527703     1.007825032230
         H           -0.513718639068    -2.141349104364     0.000010472297     1.007825032230
         H            2.735835360932     1.557156895636    -0.000008527703     1.007825032230
         H            1.911029360932    -2.690666104364     0.000017472297     1.007825032230
         H            3.573417360932    -0.778918104364     0.000006472297     1.007825032230

  Basis Set: AUG-CC-PVTZ
    Blend: AUG-CC-PVTZ
  Basis Set: (AUG-CC-PVTZ AUX)
    Blend: AUG-CC-PVTZ-JKFIT
	 Reference Energy          =    -438.8183754505033676 [Eh]
	 Singles Energy            =      -0.0000000000000000 [Eh]
	 Same-Spin Energy          =      -0.4675428379358622 [Eh]
	 Opposite-Spin Energy      =      -1.4968110568272492 [Eh]
	 Correlation Energy        =      -1.9643538947631114 [Eh]
	 Total Energy              =    -440.7827293452664890 [Eh]

	 ================> DF-SCS-MP2 Energies <==================
	-----------------------------------------------------------
	 SCS Same-Spin Scale       =       0.3333333333333333 [-]
	 SCS Opposite-Spin Scale   =       1.2000000000000000 [-]
	 SCS Same-Spin Energy      =      -0.1558476126452874 [Eh]
	 SCS Opposite-Spin Energy  =      -1.7961732681926990 [Eh]
	 SCS Correlation Energy    =      -1.9520208808379864 [Eh]
	 SCS Total Energy          =    -440.7703963313413738 [Eh]
	-----------------------------------------------------------

  Dipole Moment: [D]
     X:    -0.6561      Y:    -3.8380      Z:     0.0000     Total:     3.8937

*** Psi4 exiting successfully. Buy a developer a beer!
