                               Psi4 1.4a3.dev225

  ==> Input File <==

--------------------------------------------------------------------------
#psi4
#
memory 32 gb

molecule  {
0 1
  O        0.2506850     2.2433030    -0.0000120
  N       -0.1535360    -0.0391100    -0.0000040
  C       -1.6091660     0.2193680    -0.0000060
  C       -2.2505560    -0.3204400     1.2726240
  C       -2.2505640    -0.3204870    -1.2726120
  C        0.7061140     1.0894960    -0.0000070
  C        0.3060350    -1.3272880     0.0000050
  C        2.1126960     0.7529310    -0.0000050
  C        1.5445312    -1.5962694     0.0000087
  C        2.5632190    -0.5392750     0.0000030
  H       -1.6749870     1.3090010    -0.0000250
  H       -3.3054200    -0.0314760     1.3049310
  H       -2.2011690    -1.4127350     1.3198810
  H       -1.7528960     0.0901600     2.1548740
  H       -1.7529050     0.0900740    -2.1548810
  H       -3.3054260    -0.0315150    -1.3049260
  H       -2.2011880    -1.4127830    -1.3198260
  H       -0.4545900    -2.1014670     0.0000100
  H        2.7949640     1.5970390    -0.0000090
  H        1.9701580    -2.6507840     0.0000170
  H        3.6325460    -0.7390360     0.0000060
units angstrom
no_reorient  #important for SAPT in psi4, default
symmetry c1  #important for SAPT in psi4, default
}

set PROPERTIES_ORIGIN ["COM"]
properties('MP2/aug-cc-pvtz', properties = ['dipole'])
--------------------------------------------------------------------------

    Molecular point group: c1
  Charge       = 0
  Multiplicity = 1
  Basis Set: AUG-CC-PVTZ
    Blend: AUG-CC-PVTZ
  Basis Set: (AUG-CC-PVTZ AUX)
    Blend: AUG-CC-PVTZ-JKFIT

    Orbital Energies [Eh]
    ---------------------

    Doubly Occupied:

       1A    -20.508552     2A    -15.611138     3A    -11.351687
       4A    -11.284483     5A    -11.274296     6A    -11.270713
       7A    -11.240315     8A    -11.234549     9A    -11.225995
      10A    -11.225979    11A     -1.367777    12A     -1.276782
      13A     -1.124188    14A     -1.047631    15A     -1.035407
      16A     -0.947924    17A     -0.888033    18A     -0.853219
      19A     -0.804687    20A     -0.710441    21A     -0.699544
      22A     -0.652658    23A     -0.636596    24A     -0.627437
      25A     -0.611768    26A     -0.607843    27A     -0.571541
      28A     -0.560587    29A     -0.546318    30A     -0.526348
      31A     -0.522777    32A     -0.502561    33A     -0.481060
      34A     -0.480425    35A     -0.419847    36A     -0.401859
      37A     -0.320610

  @DF-RHF Final Energy:  -438.80663643836704

   => Energetics <=

    Nuclear Repulsion Energy =            529.4157215826987795
    One-Electron Energy =               -1645.5375665907827170
    Two-Electron Energy =                 677.3152085697169014
    Total Energy =                       -438.8066364383670361
  Basis Set: (AUG-CC-PVTZ AUX)
    Blend: AUG-CC-PVTZ-RI
    Molecular point group: c1

    Geometry (in Angstrom), charge = 0, multiplicity = 1:

       Center              X                  Y                   Z               Mass
    ------------   -----------------  -----------------  -----------------  -----------------
         O            0.199534321085     2.203216189128    -0.000011510196    15.994914619570
         N           -0.204686678915    -0.079196810872    -0.000003510196    14.003074004430
         C           -1.660316678915     0.179281189128    -0.000005510196    12.000000000000
         C           -2.301706678915    -0.360526810872     1.272624489804    12.000000000000
         C           -2.301714678915    -0.360573810872    -1.272611510196    12.000000000000
         C            0.654963321085     1.049409189128    -0.000006510196    12.000000000000
         C            0.254884321085    -1.367374810872     0.000005489804    12.000000000000
         C            2.061545321085     0.712844189128    -0.000004510196    12.000000000000
         C            1.493380521085    -1.636356210872     0.000009189804    12.000000000000
         C            2.512068321085    -0.579361810872     0.000003489804    12.000000000000
         H           -1.726137678915     1.268914189128    -0.000024510196     1.007825032230
         H           -3.356570678915    -0.071562810872     1.304931489804     1.007825032230
         H           -2.252319678915    -1.452821810872     1.319881489804     1.007825032230
         H           -1.804046678915     0.050073189128     2.154874489804     1.007825032230
         H           -1.804055678915     0.049987189128    -2.154880510196     1.007825032230
         H           -3.356576678915    -0.071601810872    -1.304925510196     1.007825032230
         H           -2.252338678915    -1.452869810872    -1.319825510196     1.007825032230
         H           -0.505740678915    -2.141553810872     0.000010489804     1.007825032230
         H            2.743813321085     1.556952189128    -0.000008510196     1.007825032230
         H            1.919007321085    -2.690870810872     0.000017489804     1.007825032230
         H            3.581395321085    -0.779122810872     0.000006489804     1.007825032230

  Basis Set: AUG-CC-PVTZ
    Blend: AUG-CC-PVTZ
  Basis Set: (AUG-CC-PVTZ AUX)
    Blend: AUG-CC-PVTZ-JKFIT
	 Reference Energy          =    -438.8066364383670361 [Eh]
	 Singles Energy            =      -0.0000000000000000 [Eh]
	 Same-Spin Energy          =      -0.4662016388213579 [Eh]
	 Opposite-Spin Energy      =      -1.4957176469113005 [Eh]
	 Correlation Energy        =      -1.9619192857326584 [Eh]
	 Total Energy              =    -440.7685557240997127 [Eh]

	 ================> DF-SCS-MP2 Energies <==================
	-----------------------------------------------------------
	 SCS Same-Spin Scale       =       0.3333333333333333 [-]
	 SCS Opposite-Spin Scale   =       1.2000000000000000 [-]
	 SCS Same-Spin Energy      =      -0.1554005462737860 [Eh]
	 SCS Opposite-Spin Energy  =      -1.7948611762935605 [Eh]
	 SCS Correlation Energy    =      -1.9502617225673464 [Eh]
	 SCS Total Energy          =    -440.7568981609343837 [Eh]
	-----------------------------------------------------------

  Dipole Moment: [D]
     X:    -0.4412      Y:    -3.7671      Z:     0.0000     Total:     3.7929

*** Psi4 exiting successfully. Buy a developer a beer!
