                               Psi4 1.4a3.dev225

  ==> Input File <==

--------------------------------------------------------------------------
#psi4
#
memory 32 gb

molecule  {
0 1
  O        0.2506850     2.2433030    -0.0000120
  N       -0.1535360    -0.0391100    -0.0000040
  C       -1.6091660     0.2193680    -0.0000060
  C       -2.2505560    -0.3204400     1.2726240
  C       -2.2505640    -0.3204870    -1.2726120
  C        0.7061140     1.0894960    -0.0000070
  C        0.3127553    -1.3461251     0.0000051
  C        2.1126960     0.7529310    -0.0000050
  C        1.6422530    -1.6174930     0.0000090
  C        2.5632190    -0.5392750     0.0000030
  H       -1.6749870     1.3090010    -0.0000250
  H       -3.3054200    -0.0314760     1.3049310
  H       -2.2011690    -1.4127350     1.3198810
  H       -1.7528960     0.0901600     2.1548740
  H       -1.7529050     0.0900740    -2.1548810
  H       -3.3054260    -0.0315150    -1.3049260
  H       -2.2011880    -1.4127830    -1.3198260
  H       -0.4545900    -2.1014670     0.0000100
  H        2.7949640     1.5970390    -0.0000090
  H        1.9701580    -2.6507840     0.0000170
  H        3.6325460    -0.7390360     0.0000060
units angstrom
no_reorient  #important for SAPT in psi4, default
symmetry c1  #important for SAPT in psi4, default
}

set PROPERTIES_ORIGIN ["COM"]
properties('MP2/aug-cc-pvtz', properties = ['dipole'])
--------------------------------------------------------------------------

    Molecular point group: c1
  Charge       = 0
  Multiplicity = 1
  Basis Set: AUG-CC-PVTZ
    Blend: AUG-CC-PVTZ
  Basis Set: (AUG-CC-PVTZ AUX)
    Blend: AUG-CC-PVTZ-JKFIT

    Orbital Energies [Eh]
    ---------------------

    Doubly Occupied:

       1A    -20.505451     2A    -15.619279     3A    -11.349823
       4A    -11.304421     5A    -11.272912     6A    -11.269618
       7A    -11.238874     8A    -11.236911     9A    -11.227876
      10A    -11.227860    11A     -1.365681    12A     -1.272163
      13A     -1.123218    14A     -1.049457    15A     -1.024726
      16A     -0.949711    17A     -0.893131    18A     -0.853792
      19A     -0.802916    20A     -0.711376    21A     -0.699127
      22A     -0.657192    23A     -0.639056    24A     -0.625706
      25A     -0.612323    26A     -0.606337    27A     -0.564486
      28A     -0.561192    29A     -0.547149    30A     -0.544173
      31A     -0.523607    32A     -0.503670    33A     -0.485856
      34A     -0.473677    35A     -0.417773    36A     -0.405088
      37A     -0.309885

  @DF-RHF Final Energy:  -438.81749566761590

   => Energetics <=

    Nuclear Repulsion Energy =            527.5838183650548672
    One-Electron Energy =               -1641.8516411120701832
    Two-Electron Energy =                 675.4503270793994716
    Total Energy =                       -438.8174956676158445
  Basis Set: (AUG-CC-PVTZ AUX)
    Blend: AUG-CC-PVTZ-RI
    Molecular point group: c1

    Geometry (in Angstrom), charge = 0, multiplicity = 1:

       Center              X                  Y                   Z               Mass
    ------------   -----------------  -----------------  -----------------  -----------------
         O            0.190391717900     2.206723003750    -0.000011545211    15.994914619570
         N           -0.213829282100    -0.075689996250    -0.000003545211    14.003074004430
         C           -1.669459282100     0.182788003750    -0.000005545211    12.000000000000
         C           -2.310849282100    -0.357019996250     1.272624454789    12.000000000000
         C           -2.310857282100    -0.357066996250    -1.272611545211    12.000000000000
         C            0.645820717900     1.052916003750    -0.000006545211    12.000000000000
         C            0.252462017900    -1.382705096250     0.000005554789    12.000000000000
         C            2.052402717900     0.716351003750    -0.000004545211    12.000000000000
         C            1.581959717900    -1.654072996250     0.000009454789    12.000000000000
         C            2.502925717900    -0.575854996250     0.000003454789    12.000000000000
         H           -1.735280282100     1.272421003750    -0.000024545211     1.007825032230
         H           -3.365713282100    -0.068055996250     1.304931454789     1.007825032230
         H           -2.261462282100    -1.449314996250     1.319881454789     1.007825032230
         H           -1.813189282100     0.053580003750     2.154874454789     1.007825032230
         H           -1.813198282100     0.053494003750    -2.154880545211     1.007825032230
         H           -3.365719282100    -0.068094996250    -1.304925545211     1.007825032230
         H           -2.261481282100    -1.449362996250    -1.319825545211     1.007825032230
         H           -0.514883282100    -2.138046996250     0.000010454789     1.007825032230
         H            2.734670717900     1.560459003750    -0.000008545211     1.007825032230
         H            1.909864717900    -2.687363996250     0.000017454789     1.007825032230
         H            3.572252717900    -0.775615996250     0.000006454789     1.007825032230

  Basis Set: AUG-CC-PVTZ
    Blend: AUG-CC-PVTZ
  Basis Set: (AUG-CC-PVTZ AUX)
    Blend: AUG-CC-PVTZ-JKFIT
	 Reference Energy          =    -438.8174956676159013 [Eh]
	 Singles Energy            =      -0.0000000000000000 [Eh]
	 Same-Spin Energy          =      -0.4677024102393663 [Eh]
	 Opposite-Spin Energy      =      -1.4973419866580864 [Eh]
	 Correlation Energy        =      -1.9650443968974527 [Eh]
	 Total Energy              =    -440.7825400645133413 [Eh]

	 ================> DF-SCS-MP2 Energies <==================
	-----------------------------------------------------------
	 SCS Same-Spin Scale       =       0.3333333333333333 [-]
	 SCS Opposite-Spin Scale   =       1.2000000000000000 [-]
	 SCS Same-Spin Energy      =      -0.1559008034131221 [Eh]
	 SCS Opposite-Spin Energy  =      -1.7968103839897036 [Eh]
	 SCS Correlation Energy    =      -1.9527111874028258 [Eh]
	 SCS Total Energy          =    -440.7702068550187278 [Eh]
	-----------------------------------------------------------

  Dipole Moment: [D]
     X:    -0.5970      Y:    -3.8895      Z:     0.0000     Total:     3.9351

*** Psi4 exiting successfully. Buy a developer a beer!
