                               Psi4 1.4a3.dev225

  ==> Input File <==

--------------------------------------------------------------------------
#psi4
#
memory 32 gb

molecule  {
0 1
  O        0.2506850     2.2433030    -0.0000120
  N       -0.1535360    -0.0391100    -0.0000040
  C       -1.6091660     0.2193680    -0.0000060
  C       -2.2505560    -0.3204400     1.2726240
  C       -2.2505640    -0.3204870    -1.2726120
  C        0.7061140     1.0894960    -0.0000070
  C        0.3060350    -1.3272880     0.0000050
  C        2.1126960     0.7529310    -0.0000050
  C        1.6422530    -1.6174930     0.0000090
  C        2.5632190    -0.5392750     0.0000030
  H       -1.6749870     1.3090010    -0.0000250
  H       -3.3054200    -0.0314760     1.3049310
  H       -2.2011690    -1.4127350     1.3198810
  H       -1.7528960     0.0901600     2.1548740
  H       -1.7529050     0.0900740    -2.1548810
  H       -3.3054260    -0.0315150    -1.3049260
  H       -2.2011880    -1.4127830    -1.3198260
  H       -0.4896317    -2.1371332     0.0000102
  H        2.7949640     1.5970390    -0.0000090
  H        1.9701580    -2.6507840     0.0000170
  H        3.6325460    -0.7390360     0.0000060
units angstrom
no_reorient  #important for SAPT in psi4, default
symmetry c1  #important for SAPT in psi4, default
}

set PROPERTIES_ORIGIN ["COM"]
properties('MP2/aug-cc-pvtz', properties = ['dipole'])
--------------------------------------------------------------------------

    Molecular point group: c1
  Charge       = 0
  Multiplicity = 1
  Basis Set: AUG-CC-PVTZ
    Blend: AUG-CC-PVTZ
  Basis Set: (AUG-CC-PVTZ AUX)
    Blend: AUG-CC-PVTZ-JKFIT

    Orbital Energies [Eh]
    ---------------------

    Doubly Occupied:

       1A    -20.505649     2A    -15.621930     3A    -11.350252
       4A    -11.310968     5A    -11.274206     6A    -11.269185
       7A    -11.238574     8A    -11.235301     9A    -11.228634
      10A    -11.228619    11A     -1.367192    12A     -1.277541
      13A     -1.122639    14A     -1.051260    15A     -1.020922
      16A     -0.950544    17A     -0.891893    18A     -0.854857
      19A     -0.803066    20A     -0.710354    21A     -0.696319
      22A     -0.652406    23A     -0.640521    24A     -0.628282
      25A     -0.612718    26A     -0.601862    27A     -0.564168
      28A     -0.562084    29A     -0.547905    30A     -0.542907
      31A     -0.524444    32A     -0.504553    33A     -0.486092
      34A     -0.473948    35A     -0.417811    36A     -0.406815
      37A     -0.307268

  @DF-RHF Final Energy:  -438.81530041612473

   => Energetics <=

    Nuclear Repulsion Energy =            527.6711663935356000
    One-Electron Energy =               -1642.0055553520157900
    Two-Electron Energy =                 675.5190885423555756
    Total Energy =                       -438.8153004161247281
  Basis Set: (AUG-CC-PVTZ AUX)
    Blend: AUG-CC-PVTZ-RI
    Molecular point group: c1

    Geometry (in Angstrom), charge = 0, multiplicity = 1:

       Center              X                  Y                   Z               Mass
    ------------   -----------------  -----------------  -----------------  -----------------
         O            0.191237618576     2.205336264071    -0.000011537927    15.994914619570
         N           -0.212983381424    -0.077076735929    -0.000003537927    14.003074004430
         C           -1.668613381424     0.181401264071    -0.000005537927    12.000000000000
         C           -2.310003381424    -0.358406735929     1.272624462073    12.000000000000
         C           -2.310011381424    -0.358453735929    -1.272611537927    12.000000000000
         C            0.646666618576     1.051529264071    -0.000006537927    12.000000000000
         C            0.246587618576    -1.365254735929     0.000005462073    12.000000000000
         C            2.053248618576     0.714964264071    -0.000004537927    12.000000000000
         C            1.582805618576    -1.655459735929     0.000009462073    12.000000000000
         C            2.503771618576    -0.577241735929     0.000003462073    12.000000000000
         H           -1.734434381424     1.271034264071    -0.000024537927     1.007825032230
         H           -3.364867381424    -0.069442735929     1.304931462073     1.007825032230
         H           -2.260616381424    -1.450701735929     1.319881462073     1.007825032230
         H           -1.812343381424     0.052193264071     2.154874462073     1.007825032230
         H           -1.812352381424     0.052107264071    -2.154880537927     1.007825032230
         H           -3.364873381424    -0.069481735929    -1.304925537927     1.007825032230
         H           -2.260635381424    -1.450749735929    -1.319825537927     1.007825032230
         H           -0.549079081424    -2.175099935929     0.000010662073     1.007825032230
         H            2.735516618576     1.559072264071    -0.000008537927     1.007825032230
         H            1.910710618576    -2.688750735929     0.000017462073     1.007825032230
         H            3.573098618576    -0.777002735929     0.000006462073     1.007825032230

  Basis Set: AUG-CC-PVTZ
    Blend: AUG-CC-PVTZ
  Basis Set: (AUG-CC-PVTZ AUX)
    Blend: AUG-CC-PVTZ-JKFIT
	 Reference Energy          =    -438.8153004161247281 [Eh]
	 Singles Energy            =      -0.0000000000000000 [Eh]
	 Same-Spin Energy          =      -0.4681935165618232 [Eh]
	 Opposite-Spin Energy      =      -1.4977959603154436 [Eh]
	 Correlation Energy        =      -1.9659894768772668 [Eh]
	 Total Energy              =    -440.7812898930019969 [Eh]

	 ================> DF-SCS-MP2 Energies <==================
	-----------------------------------------------------------
	 SCS Same-Spin Scale       =       0.3333333333333333 [-]
	 SCS Opposite-Spin Scale   =       1.2000000000000000 [-]
	 SCS Same-Spin Energy      =      -0.1560645055206077 [Eh]
	 SCS Opposite-Spin Energy  =      -1.7973551523785323 [Eh]
	 SCS Correlation Energy    =      -1.9534196578991401 [Eh]
	 SCS Total Energy          =    -440.7687200740238609 [Eh]
	-----------------------------------------------------------

  Dipole Moment: [D]
     X:    -0.6593      Y:    -3.8606      Z:     0.0000     Total:     3.9165

*** Psi4 exiting successfully. Buy a developer a beer!
