                               Psi4 1.4a3.dev225

  ==> Input File <==

--------------------------------------------------------------------------
#psi4
#
memory 32 gb

molecule  {
0 1
  O        0.2506850     2.2433030    -0.0000120
  N       -0.1535360    -0.0391100    -0.0000040
  C       -1.6091660     0.2193680    -0.0000060
  C       -2.2505560    -0.3204400     1.2726240
  C       -2.2505640    -0.3204870    -1.2726120
  C        0.7061140     1.0894960    -0.0000070
  C        0.3060350    -1.3272880     0.0000050
  C        2.1126960     0.7529310    -0.0000050
  C        1.6422530    -1.6174930     0.0000090
  C        2.6931152    -0.3871994     0.0000022
  H       -1.6749870     1.3090010    -0.0000250
  H       -3.3054200    -0.0314760     1.3049310
  H       -2.2011690    -1.4127350     1.3198810
  H       -1.7528960     0.0901600     2.1548740
  H       -1.7529050     0.0900740    -2.1548810
  H       -3.3054260    -0.0315150    -1.3049260
  H       -2.2011880    -1.4127830    -1.3198260
  H       -0.4545900    -2.1014670     0.0000100
  H        2.7949640     1.5970390    -0.0000090
  H        1.9701580    -2.6507840     0.0000170
  H        3.6325460    -0.7390360     0.0000060
units angstrom
no_reorient  #important for SAPT in psi4, default
symmetry c1  #important for SAPT in psi4, default
}

set PROPERTIES_ORIGIN ["COM"]
properties('MP2/aug-cc-pvtz', properties = ['dipole'])
--------------------------------------------------------------------------

    Molecular point group: c1
  Charge       = 0
  Multiplicity = 1
  Basis Set: AUG-CC-PVTZ
    Blend: AUG-CC-PVTZ
  Basis Set: (AUG-CC-PVTZ AUX)
    Blend: AUG-CC-PVTZ-JKFIT

    Orbital Energies [Eh]
    ---------------------

    Doubly Occupied:

       1A    -20.518818     2A    -15.611855     3A    -11.361191
       4A    -11.294095     5A    -11.271596     6A    -11.266963
       7A    -11.244373     8A    -11.235006     9A    -11.226148
      10A    -11.226133    11A     -1.373973    12A     -1.274125
      13A     -1.118442    14A     -1.056332    15A     -1.014787
      16A     -0.948118    17A     -0.888785    18A     -0.857867
      19A     -0.803665    20A     -0.716569    21A     -0.691763
      22A     -0.672957    23A     -0.642540    24A     -0.626369
      25A     -0.609506    26A     -0.608465    27A     -0.583619
      28A     -0.560109    29A     -0.547470    30A     -0.527198
      31A     -0.504138    32A     -0.503703    33A     -0.470351
      34A     -0.466886    35A     -0.426902    36A     -0.415220
      37A     -0.313007

  @DF-RHF Final Energy:  -438.78169097624084

   => Energetics <=

    Nuclear Repulsion Energy =            526.2532965292878089
    One-Electron Energy =               -1639.1118850850941726
    Two-Electron Energy =                 674.0768975795655251
    Total Energy =                       -438.7816909762408386
  Basis Set: (AUG-CC-PVTZ AUX)
    Blend: AUG-CC-PVTZ-RI
    Molecular point group: c1

    Geometry (in Angstrom), charge = 0, multiplicity = 1:

       Center              X                  Y                   Z               Mass
    ------------   -----------------  -----------------  -----------------  -----------------
         O            0.179609204184     2.191761728599    -0.000011466427    15.994914619570
         N           -0.224611795816    -0.090651271401    -0.000003466427    14.003074004430
         C           -1.680241795816     0.167826728599    -0.000005466427    12.000000000000
         C           -2.321631795816    -0.371981271401     1.272624533573    12.000000000000
         C           -2.321639795816    -0.372028271401    -1.272611466427    12.000000000000
         C            0.635038204184     1.037954728599    -0.000006466427    12.000000000000
         C            0.234959204184    -1.378829271401     0.000005533573    12.000000000000
         C            2.041620204184     0.701389728599    -0.000004466427    12.000000000000
         C            1.571177204184    -1.669034271401     0.000009533573    12.000000000000
         C            2.622039404184    -0.438740671401     0.000002733573    12.000000000000
         H           -1.746062795816     1.257459728599    -0.000024466427     1.007825032230
         H           -3.376495795816    -0.083017271401     1.304931533573     1.007825032230
         H           -2.272244795816    -1.464276271401     1.319881533573     1.007825032230
         H           -1.823971795816     0.038618728599     2.154874533573     1.007825032230
         H           -1.823980795816     0.038532728599    -2.154880466427     1.007825032230
         H           -3.376501795816    -0.083056271401    -1.304925466427     1.007825032230
         H           -2.272263795816    -1.464324271401    -1.319825466427     1.007825032230
         H           -0.525665795816    -2.153008271401     0.000010533573     1.007825032230
         H            2.723888204184     1.545497728599    -0.000008466427     1.007825032230
         H            1.899082204184    -2.702325271401     0.000017533573     1.007825032230
         H            3.561470204184    -0.790577271401     0.000006533573     1.007825032230

  Basis Set: AUG-CC-PVTZ
    Blend: AUG-CC-PVTZ
  Basis Set: (AUG-CC-PVTZ AUX)
    Blend: AUG-CC-PVTZ-JKFIT
	 Reference Energy          =    -438.7816909762408386 [Eh]
	 Singles Energy            =      -0.0000000000000000 [Eh]
	 Same-Spin Energy          =      -0.4651982566191877 [Eh]
	 Opposite-Spin Energy      =      -1.4972055985397299 [Eh]
	 Correlation Energy        =      -1.9624038551589176 [Eh]
	 Total Energy              =    -440.7440948313997637 [Eh]

	 ================> DF-SCS-MP2 Energies <==================
	-----------------------------------------------------------
	 SCS Same-Spin Scale       =       0.3333333333333333 [-]
	 SCS Opposite-Spin Scale   =       1.2000000000000000 [-]
	 SCS Same-Spin Energy      =      -0.1550660855397292 [Eh]
	 SCS Opposite-Spin Energy  =      -1.7966467182476757 [Eh]
	 SCS Correlation Energy    =      -1.9517128037874050 [Eh]
	 SCS Total Energy          =    -440.7334037800282545 [Eh]
	-----------------------------------------------------------

  Dipole Moment: [D]
     X:    -0.4092      Y:    -3.4843      Z:     0.0000     Total:     3.5082

*** Psi4 exiting successfully. Buy a developer a beer!
