                               Psi4 1.4a3.dev225

  ==> Input File <==

--------------------------------------------------------------------------
#psi4
#
memory 32 gb

molecule  {
0 1
  O        0.2506850     2.2433030    -0.0000120
  N       -0.1535360    -0.0391100    -0.0000040
  C       -1.6091660     0.2193680    -0.0000060
  C       -2.2505560    -0.3204400     1.2726240
  C       -2.2505640    -0.3204870    -1.2726120
  C        0.7061140     1.0894960    -0.0000070
  C        0.3060350    -1.3272880     0.0000050
  C        2.1126960     0.7529310    -0.0000050
  C        1.6422530    -1.6174930     0.0000090
  C        2.5632190    -0.5392750     0.0000030
  H       -1.6749870     1.3090010    -0.0000250
  H       -3.3054200    -0.0314760     1.3049310
  H       -2.2011690    -1.4127350     1.3198810
  H       -1.7528960     0.0901600     2.1548740
  H       -1.7861834     0.1052122    -2.1657829
  H       -3.3054260    -0.0315150    -1.3049260
  H       -2.2011880    -1.4127830    -1.3198260
  H       -0.4545900    -2.1014670     0.0000100
  H        2.7949640     1.5970390    -0.0000090
  H        1.9701580    -2.6507840     0.0000170
  H        3.6325460    -0.7390360     0.0000060
units angstrom
no_reorient  #important for SAPT in psi4, default
symmetry c1  #important for SAPT in psi4, default
}

set PROPERTIES_ORIGIN ["COM"]
properties('MP2/aug-cc-pvtz', properties = ['dipole'])
--------------------------------------------------------------------------

    Molecular point group: c1
  Charge       = 0
  Multiplicity = 1
  Basis Set: AUG-CC-PVTZ
    Blend: AUG-CC-PVTZ
  Basis Set: (AUG-CC-PVTZ AUX)
    Blend: AUG-CC-PVTZ-JKFIT

    Orbital Energies [Eh]
    ---------------------

    Doubly Occupied:

       1A    -20.505369     2A    -15.621405     3A    -11.349885
       4A    -11.305580     5A    -11.274407     6A    -11.268865
       7A    -11.238261     8A    -11.235175     9A    -11.228905
      10A    -11.228685    11A     -1.366925    12A     -1.277527
      13A     -1.122458    14A     -1.051237    15A     -1.022463
      16A     -0.950648    17A     -0.893274    18A     -0.855897
      19A     -0.804020    20A     -0.711389    21A     -0.699570
      22A     -0.655434    23A     -0.640923    24A     -0.627887
      25A     -0.613368    26A     -0.604305    27A     -0.564088
      28A     -0.562625    29A     -0.546929    30A     -0.543482
      31A     -0.523951    32A     -0.505223    33A     -0.486864
      34A     -0.473875    35A     -0.417701    36A     -0.406603
      37A     -0.307080

  @DF-RHF Final Energy:  -438.81786623579416

   => Energetics <=

    Nuclear Repulsion Energy =            527.8528233390060223
    One-Electron Energy =               -1642.3568165993076491
    Two-Electron Energy =                 675.6861270245076412
    Total Energy =                       -438.8178662357940993
  Basis Set: (AUG-CC-PVTZ AUX)
    Blend: AUG-CC-PVTZ-RI
    Molecular point group: c1

    Geometry (in Angstrom), charge = 0, multiplicity = 1:

       Center              X                  Y                   Z               Mass
    ------------   -----------------  -----------------  -----------------  -----------------
         O            0.191224655013     2.204962756425     0.000068612959    15.994914619570
         N           -0.212996344987    -0.077450243575     0.000076612959    14.003074004430
         C           -1.668626344987     0.181027756425     0.000074612959    12.000000000000
         C           -2.310016344987    -0.358780243575     1.272704612959    12.000000000000
         C           -2.310024344987    -0.358827243575    -1.272531387041    12.000000000000
         C            0.646653655013     1.051155756425     0.000073612959    12.000000000000
         C            0.246574655013    -1.365628243575     0.000085612959    12.000000000000
         C            2.053235655013     0.714590756425     0.000075612959    12.000000000000
         C            1.582792655013    -1.655833243575     0.000089612959    12.000000000000
         C            2.503758655013    -0.577615243575     0.000083612959    12.000000000000
         H           -1.734447344987     1.270660756425     0.000055612959     1.007825032230
         H           -3.364880344987    -0.069816243575     1.305011612959     1.007825032230
         H           -2.260629344987    -1.451075243575     1.319961612959     1.007825032230
         H           -1.812356344987     0.051819756425     2.154954612959     1.007825032230
         H           -1.845643744987     0.066871956425    -2.165702287041     1.007825032230
         H           -3.364886344987    -0.069855243575    -1.304845387041     1.007825032230
         H           -2.260648344987    -1.451123243575    -1.319745387041     1.007825032230
         H           -0.514050344987    -2.139807243575     0.000090612959     1.007825032230
         H            2.735503655013     1.558698756425     0.000071612959     1.007825032230
         H            1.910697655013    -2.689124243575     0.000097612959     1.007825032230
         H            3.573085655013    -0.777376243575     0.000086612959     1.007825032230

  Basis Set: AUG-CC-PVTZ
    Blend: AUG-CC-PVTZ
  Basis Set: (AUG-CC-PVTZ AUX)
    Blend: AUG-CC-PVTZ-JKFIT
	 Reference Energy          =    -438.8178662357941562 [Eh]
	 Singles Energy            =      -0.0000000000000000 [Eh]
	 Same-Spin Energy          =      -0.4679607325987131 [Eh]
	 Opposite-Spin Energy      =      -1.4972486315765203 [Eh]
	 Correlation Energy        =      -1.9652093641752333 [Eh]
	 Total Energy              =    -440.7830755999693793 [Eh]

	 ================> DF-SCS-MP2 Energies <==================
	-----------------------------------------------------------
	 SCS Same-Spin Scale       =       0.3333333333333333 [-]
	 SCS Opposite-Spin Scale   =       1.2000000000000000 [-]
	 SCS Same-Spin Energy      =      -0.1559869108662377 [Eh]
	 SCS Opposite-Spin Energy  =      -1.7966983578918243 [Eh]
	 SCS Correlation Energy    =      -1.9526852687580620 [Eh]
	 SCS Total Energy          =    -440.7705515045522020 [Eh]
	-----------------------------------------------------------

  Dipole Moment: [D]
     X:    -0.6765      Y:    -3.8626      Z:    -0.0051     Total:     3.9214

*** Psi4 exiting successfully. Buy a developer a beer!
