                               Psi4 1.4a3.dev225

  ==> Input File <==

--------------------------------------------------------------------------
#psi4
#
memory 32 gb

molecule  {
0 1
  O        0.2506850     2.2433030    -0.0000120
  N       -0.1535360    -0.0391100    -0.0000040
  C       -1.6091660     0.2193680    -0.0000060
  C       -2.2505560    -0.3204400     1.2726240
  C       -2.2505640    -0.3204870    -1.2726120
  C        0.7061140     1.0894960    -0.0000070
  C        0.3060350    -1.3272880     0.0000050
  C        2.1126960     0.7529310    -0.0000050
  C        1.6422530    -1.6174930     0.0000090
  C        2.5632190    -0.5392750     0.0000030
  H       -1.6749870     1.3090010    -0.0000250
  H       -3.3054200    -0.0314760     1.3049310
  H       -2.2011690    -1.4127350     1.3198810
  H       -1.7528960     0.0901600     2.1548740
  H       -1.7529050     0.0900740    -2.1548810
  H       -3.3054260    -0.0315150    -1.3049260
  H       -2.2011880    -1.4127830    -1.3198260
  H       -0.5246735    -2.1727993     0.0000105
  H        2.7949640     1.5970390    -0.0000090
  H        1.9701580    -2.6507840     0.0000170
  H        3.6325460    -0.7390360     0.0000060
units angstrom
no_reorient  #important for SAPT in psi4, default
symmetry c1  #important for SAPT in psi4, default
}

set PROPERTIES_ORIGIN ["COM"]
properties('MP2/aug-cc-pvtz', properties = ['dipole'])
--------------------------------------------------------------------------

    Molecular point group: c1
  Charge       = 0
  Multiplicity = 1
  Basis Set: AUG-CC-PVTZ
    Blend: AUG-CC-PVTZ
  Basis Set: (AUG-CC-PVTZ AUX)
    Blend: AUG-CC-PVTZ-JKFIT

    Orbital Energies [Eh]
    ---------------------

    Doubly Occupied:

       1A    -20.505897     2A    -15.622430     3A    -11.350588
       4A    -11.316061     5A    -11.274238     6A    -11.269477
       7A    -11.238887     8A    -11.235403     9A    -11.228486
      10A    -11.228470    11A     -1.367425    12A     -1.277562
      13A     -1.122786    14A     -1.051275    15A     -1.019663
      16A     -0.950416    17A     -0.890854    18A     -0.854010
      19A     -0.802394    20A     -0.709842    21A     -0.693493
      22A     -0.649648    23A     -0.639894    24A     -0.628433
      25A     -0.612558    26A     -0.598819    27A     -0.563849
      28A     -0.562032    29A     -0.547868    30A     -0.541741
      31A     -0.524562    32A     -0.504508    33A     -0.485229
      34A     -0.474154    35A     -0.417883    36A     -0.407031
      37A     -0.307427

  @DF-RHF Final Energy:  -438.81011669708755

   => Energetics <=

    Nuclear Repulsion Energy =            527.4364765839569600
    One-Electron Energy =               -1641.5426020073703057
    Two-Electron Energy =                 675.2960087263256810
    Total Energy =                       -438.8101166970875511
  Basis Set: (AUG-CC-PVTZ AUX)
    Blend: AUG-CC-PVTZ-RI
    Molecular point group: c1

    Geometry (in Angstrom), charge = 0, multiplicity = 1:

       Center              X                  Y                   Z               Mass
    ------------   -----------------  -----------------  -----------------  -----------------
         O            0.191495241542     2.205598476814    -0.000011540133    15.994914619570
         N           -0.212725758458    -0.076814523186    -0.000003540133    14.003074004430
         C           -1.668355758458     0.181663476814    -0.000005540133    12.000000000000
         C           -2.309745758458    -0.358144523186     1.272624459867    12.000000000000
         C           -2.309753758458    -0.358191523186    -1.272611540133    12.000000000000
         C            0.646924241542     1.051791476814    -0.000006540133    12.000000000000
         C            0.246845241542    -1.364992523186     0.000005459867    12.000000000000
         C            2.053506241542     0.715226476814    -0.000004540133    12.000000000000
         C            1.583063241542    -1.655197523186     0.000009459867    12.000000000000
         C            2.504029241542    -0.576979523186     0.000003459867    12.000000000000
         H           -1.734176758458     1.271296476814    -0.000024540133     1.007825032230
         H           -3.364609758458    -0.069180523186     1.304931459867     1.007825032230
         H           -2.260358758458    -1.450439523186     1.319881459867     1.007825032230
         H           -1.812085758458     0.052455476814     2.154874459867     1.007825032230
         H           -1.812094758458     0.052369476814    -2.154880540133     1.007825032230
         H           -3.364615758458    -0.069219523186    -1.304925540133     1.007825032230
         H           -2.260377758458    -1.450487523186    -1.319825540133     1.007825032230
         H           -0.583863258458    -2.210503823186     0.000010959867     1.007825032230
         H            2.735774241542     1.559334476814    -0.000008540133     1.007825032230
         H            1.910968241542    -2.688488523186     0.000017459867     1.007825032230
         H            3.573356241542    -0.776740523186     0.000006459867     1.007825032230

  Basis Set: AUG-CC-PVTZ
    Blend: AUG-CC-PVTZ
  Basis Set: (AUG-CC-PVTZ AUX)
    Blend: AUG-CC-PVTZ-JKFIT
	 Reference Energy          =    -438.8101166970875511 [Eh]
	 Singles Energy            =      -0.0000000000000000 [Eh]
	 Same-Spin Energy          =      -0.4684453157515650 [Eh]
	 Opposite-Spin Energy      =      -1.4984265897118041 [Eh]
	 Correlation Energy        =      -1.9668719054633690 [Eh]
	 Total Energy              =    -440.7769886025509436 [Eh]

	 ================> DF-SCS-MP2 Energies <==================
	-----------------------------------------------------------
	 SCS Same-Spin Scale       =       0.3333333333333333 [-]
	 SCS Opposite-Spin Scale   =       1.2000000000000000 [-]
	 SCS Same-Spin Energy      =      -0.1561484385838550 [Eh]
	 SCS Opposite-Spin Energy  =      -1.7981119076541650 [Eh]
	 SCS Correlation Energy    =      -1.9542603462380199 [Eh]
	 SCS Total Energy          =    -440.7643770433255668 [Eh]
	-----------------------------------------------------------

  Dipole Moment: [D]
     X:    -0.6507      Y:    -3.8490      Z:     0.0000     Total:     3.9036

*** Psi4 exiting successfully. Buy a developer a beer!
