                               Psi4 1.4a3.dev225

  ==> Input File <==

--------------------------------------------------------------------------
#psi4
#
memory 32 gb

molecule  {
0 1
  O        0.2506850     2.2433030    -0.0000120
  N       -0.1535360    -0.0391100    -0.0000040
  C       -1.6091660     0.2193680    -0.0000060
  C       -2.2505560    -0.3204400     1.2726240
  C       -2.2505640    -0.3204870    -1.2726120
  C        0.7061140     1.0894960    -0.0000070
  C        0.3060350    -1.3272880     0.0000050
  C        2.1126960     0.7529310    -0.0000050
  C        1.6422530    -1.6174930     0.0000090
  C        2.5632190    -0.5392750     0.0000030
  H       -1.6749870     1.3090010    -0.0000250
  H       -3.3054200    -0.0314760     1.3049310
  H       -2.2011690    -1.4127350     1.3198810
  H       -1.7528960     0.0901600     2.1548740
  H       -1.7984370     0.0525108    -2.0741602
  H       -3.3054260    -0.0315150    -1.3049260
  H       -2.2011880    -1.4127830    -1.3198260
  H       -0.4545900    -2.1014670     0.0000100
  H        2.7949640     1.5970390    -0.0000090
  H        1.9701580    -2.6507840     0.0000170
  H        3.6325460    -0.7390360     0.0000060
units angstrom
no_reorient  #important for SAPT in psi4, default
symmetry c1  #important for SAPT in psi4, default
}

set PROPERTIES_ORIGIN ["COM"]
properties('MP2/aug-cc-pvtz', properties = ['dipole'])
--------------------------------------------------------------------------

    Molecular point group: c1
  Charge       = 0
  Multiplicity = 1
  Basis Set: AUG-CC-PVTZ
    Blend: AUG-CC-PVTZ
  Basis Set: (AUG-CC-PVTZ AUX)
    Blend: AUG-CC-PVTZ-JKFIT

    Orbital Energies [Eh]
    ---------------------

    Doubly Occupied:

       1A    -20.505464     2A    -15.621510     3A    -11.349983
       4A    -11.305600     5A    -11.273363     6A    -11.268962
       7A    -11.238341     8A    -11.235271     9A    -11.227962
      10A    -11.216565    11A     -1.367041    12A     -1.277652
      13A     -1.122848    14A     -1.052957    15A     -1.022597
      16A     -0.957986    17A     -0.893858    18A     -0.856254
      19A     -0.805295    20A     -0.711564    21A     -0.699833
      22A     -0.657742    23A     -0.640603    24A     -0.628098
      25A     -0.621792    26A     -0.604434    27A     -0.565634
      28A     -0.563144    29A     -0.548564    30A     -0.544281
      31A     -0.524309    32A     -0.509793    33A     -0.486845
      34A     -0.473920    35A     -0.417745    36A     -0.406509
      37A     -0.307171

  @DF-RHF Final Energy:  -438.81188942913434

   => Energetics <=

    Nuclear Repulsion Energy =            528.3658878136114936
    One-Electron Energy =               -1643.3325715950377344
    Two-Electron Energy =                 676.1547943522917876
    Total Energy =                       -438.8118894291343395
  Basis Set: (AUG-CC-PVTZ AUX)
    Blend: AUG-CC-PVTZ-RI
    Molecular point group: c1

    Geometry (in Angstrom), charge = 0, multiplicity = 1:

       Center              X                  Y                   Z               Mass
    ------------   -----------------  -----------------  -----------------  -----------------
         O            0.191314741960     2.205350210580    -0.000604985765    15.994914619570
         N           -0.212906258040    -0.077062789420    -0.000596985765    14.003074004430
         C           -1.668536258040     0.181415210580    -0.000598985765    12.000000000000
         C           -2.309926258040    -0.358392789420     1.272031014235    12.000000000000
         C           -2.309934258040    -0.358439789420    -1.273204985765    12.000000000000
         C            0.646743741960     1.051543210580    -0.000599985765    12.000000000000
         C            0.246664741960    -1.365240789420    -0.000587985765    12.000000000000
         C            2.053325741960     0.714978210580    -0.000597985765    12.000000000000
         C            1.582882741960    -1.655445789420    -0.000583985765    12.000000000000
         C            2.503848741960    -0.577227789420    -0.000589985765    12.000000000000
         H           -1.734357258040     1.271048210580    -0.000617985765     1.007825032230
         H           -3.364790258040    -0.069428789420     1.304338014235     1.007825032230
         H           -2.260539258040    -1.450687789420     1.319288014235     1.007825032230
         H           -1.812266258040     0.052207210580     2.154281014235     1.007825032230
         H           -1.857807258040     0.014558010580    -2.074753185765     1.007825032230
         H           -3.364796258040    -0.069467789420    -1.305518985765     1.007825032230
         H           -2.260558258040    -1.450735789420    -1.320418985765     1.007825032230
         H           -0.513960258040    -2.139419789420    -0.000582985765     1.007825032230
         H            2.735593741960     1.559086210580    -0.000601985765     1.007825032230
         H            1.910787741960    -2.688736789420    -0.000575985765     1.007825032230
         H            3.573175741960    -0.776988789420    -0.000586985765     1.007825032230

  Basis Set: AUG-CC-PVTZ
    Blend: AUG-CC-PVTZ
  Basis Set: (AUG-CC-PVTZ AUX)
    Blend: AUG-CC-PVTZ-JKFIT
	 Reference Energy          =    -438.8118894291343395 [Eh]
	 Singles Energy            =      -0.0000000000000000 [Eh]
	 Same-Spin Energy          =      -0.4679704507575736 [Eh]
	 Opposite-Spin Energy      =      -1.4967648040510806 [Eh]
	 Correlation Energy        =      -1.9647352548086543 [Eh]
	 Total Energy              =    -440.7766246839429982 [Eh]

	 ================> DF-SCS-MP2 Energies <==================
	-----------------------------------------------------------
	 SCS Same-Spin Scale       =       0.3333333333333333 [-]
	 SCS Opposite-Spin Scale   =       1.2000000000000000 [-]
	 SCS Same-Spin Energy      =      -0.1559901502525245 [Eh]
	 SCS Opposite-Spin Energy  =      -1.7961177648612967 [Eh]
	 SCS Correlation Energy    =      -1.9521079151138212 [Eh]
	 SCS Total Energy          =    -440.7639973442481391 [Eh]
	-----------------------------------------------------------

  Dipole Moment: [D]
     X:    -0.6558      Y:    -3.8632      Z:    -0.0407     Total:     3.9186

*** Psi4 exiting successfully. Buy a developer a beer!
