                               Psi4 1.4a3.dev225

  ==> Input File <==

--------------------------------------------------------------------------
#psi4
#
memory 32 gb

molecule  {
0 1
  O        0.2506850     2.2433030    -0.0000120
  N       -0.1535360    -0.0391100    -0.0000040
  C       -1.6091660     0.2193680    -0.0000060
  C       -2.2505560    -0.3204400     1.2726240
  C       -2.2505640    -0.3204870    -1.2726120
  C        0.7061140     1.0894960    -0.0000070
  C        0.3060350    -1.3272880     0.0000050
  C        2.1126960     0.7529310    -0.0000050
  C        1.6422530    -1.6174930     0.0000090
  C        2.5632190    -0.5392750     0.0000030
  H       -1.6761929     1.3289646    -0.0000253
  H       -3.3054200    -0.0314760     1.3049310
  H       -2.2011690    -1.4127350     1.3198810
  H       -1.7528960     0.0901600     2.1548740
  H       -1.7529050     0.0900740    -2.1548810
  H       -3.3054260    -0.0315150    -1.3049260
  H       -2.2011880    -1.4127830    -1.3198260
  H       -0.4545900    -2.1014670     0.0000100
  H        2.7949640     1.5970390    -0.0000090
  H        1.9701580    -2.6507840     0.0000170
  H        3.6325460    -0.7390360     0.0000060
units angstrom
no_reorient  #important for SAPT in psi4, default
symmetry c1  #important for SAPT in psi4, default
}

set PROPERTIES_ORIGIN ["COM"]
properties('MP2/aug-cc-pvtz', properties = ['dipole'])
--------------------------------------------------------------------------

    Molecular point group: c1
  Charge       = 0
  Multiplicity = 1
  Basis Set: AUG-CC-PVTZ
    Blend: AUG-CC-PVTZ
  Basis Set: (AUG-CC-PVTZ AUX)
    Blend: AUG-CC-PVTZ-JKFIT

    Orbital Energies [Eh]
    ---------------------

    Doubly Occupied:

       1A    -20.505466     2A    -15.621600     3A    -11.349992
       4A    -11.305701     5A    -11.276036     6A    -11.268970
       7A    -11.238371     8A    -11.235286     9A    -11.228751
      10A    -11.228736    11A     -1.367025    12A     -1.277592
      13A     -1.122259    14A     -1.050748    15A     -1.022567
      16A     -0.950592    17A     -0.892891    18A     -0.855932
      19A     -0.802457    20A     -0.710669    21A     -0.699498
      22A     -0.655306    23A     -0.640352    24A     -0.628155
      25A     -0.612521    26A     -0.604288    27A     -0.564456
      28A     -0.562042    29A     -0.547896    30A     -0.543802
      31A     -0.524116    32A     -0.504584    33A     -0.484602
      34A     -0.473833    35A     -0.417353    36A     -0.406663
      37A     -0.307199

  @DF-RHF Final Energy:  -438.81726801323890

   => Energetics <=

    Nuclear Repulsion Energy =            527.8223433926192456
    One-Electron Energy =               -1642.3026089281001987
    Two-Electron Energy =                 675.6629975222422217
    Total Energy =                       -438.8172680132388450
  Basis Set: (AUG-CC-PVTZ AUX)
    Blend: AUG-CC-PVTZ-RI
    Molecular point group: c1

    Geometry (in Angstrom), charge = 0, multiplicity = 1:

       Center              X                  Y                   Z               Mass
    ------------   -----------------  -----------------  -----------------  -----------------
         O            0.190988861972     2.204927280683    -0.000011534251    15.994914619570
         N           -0.213232138028    -0.077485719317    -0.000003534251    14.003074004430
         C           -1.668862138028     0.180992280683    -0.000005534251    12.000000000000
         C           -2.310252138028    -0.358815719317     1.272624465749    12.000000000000
         C           -2.310260138028    -0.358862719317    -1.272611534251    12.000000000000
         C            0.646417861972     1.051120280683    -0.000006534251    12.000000000000
         C            0.246338861972    -1.365663719317     0.000005465749    12.000000000000
         C            2.052999861972     0.714555280683    -0.000004534251    12.000000000000
         C            1.582556861972    -1.655868719317     0.000009465749    12.000000000000
         C            2.503522861972    -0.577650719317     0.000003465749    12.000000000000
         H           -1.735889038028     1.290588880683    -0.000024834251     1.007825032230
         H           -3.365116138028    -0.069851719317     1.304931465749     1.007825032230
         H           -2.260865138028    -1.451110719317     1.319881465749     1.007825032230
         H           -1.812592138028     0.051784280683     2.154874465749     1.007825032230
         H           -1.812601138028     0.051698280683    -2.154880534251     1.007825032230
         H           -3.365122138028    -0.069890719317    -1.304925534251     1.007825032230
         H           -2.260884138028    -1.451158719317    -1.319825534251     1.007825032230
         H           -0.514286138028    -2.139842719317     0.000010465749     1.007825032230
         H            2.735267861972     1.558663280683    -0.000008534251     1.007825032230
         H            1.910461861972    -2.689159719317     0.000017465749     1.007825032230
         H            3.572849861972    -0.777411719317     0.000006465749     1.007825032230

  Basis Set: AUG-CC-PVTZ
    Blend: AUG-CC-PVTZ
  Basis Set: (AUG-CC-PVTZ AUX)
    Blend: AUG-CC-PVTZ-JKFIT
	 Reference Energy          =    -438.8172680132389019 [Eh]
	 Singles Energy            =      -0.0000000000000000 [Eh]
	 Same-Spin Energy          =      -0.4680725417796956 [Eh]
	 Opposite-Spin Energy      =      -1.4975212382815366 [Eh]
	 Correlation Energy        =      -1.9655937800612322 [Eh]
	 Total Energy              =    -440.7828617933001283 [Eh]

	 ================> DF-SCS-MP2 Energies <==================
	-----------------------------------------------------------
	 SCS Same-Spin Scale       =       0.3333333333333333 [-]
	 SCS Opposite-Spin Scale   =       1.2000000000000000 [-]
	 SCS Same-Spin Energy      =      -0.1560241805932319 [Eh]
	 SCS Opposite-Spin Energy  =      -1.7970254859378438 [Eh]
	 SCS Correlation Energy    =      -1.9530496665310757 [Eh]
	 SCS Total Energy          =    -440.7703176797699598 [Eh]
	-----------------------------------------------------------

  Dipole Moment: [D]
     X:    -0.6566      Y:    -3.8637      Z:     0.0000     Total:     3.9191

*** Psi4 exiting successfully. Buy a developer a beer!
