                               Psi4 1.4a3.dev225

  ==> Input File <==

--------------------------------------------------------------------------
#psi4
#
memory 32 gb

molecule  {
0 1
  O        0.2506850     2.2433030    -0.0000120
  N       -0.1535360    -0.0391100    -0.0000040
  C       -1.6091660     0.2193680    -0.0000060
  C       -2.2505560    -0.3204400     1.2726240
  C       -2.2505640    -0.3204870    -1.2726120
  C        0.8273012     1.2485987    -0.0000074
  C        0.3060350    -1.3272880     0.0000050
  C        2.1126960     0.7529310    -0.0000050
  C        1.6422530    -1.6174930     0.0000090
  C        2.5632190    -0.5392750     0.0000030
  H       -1.6749870     1.3090010    -0.0000250
  H       -3.3054200    -0.0314760     1.3049310
  H       -2.2011690    -1.4127350     1.3198810
  H       -1.7528960     0.0901600     2.1548740
  H       -1.7529050     0.0900740    -2.1548810
  H       -3.3054260    -0.0315150    -1.3049260
  H       -2.2011880    -1.4127830    -1.3198260
  H       -0.4545900    -2.1014670     0.0000100
  H        2.7949640     1.5970390    -0.0000090
  H        1.9701580    -2.6507840     0.0000170
  H        3.6325460    -0.7390360     0.0000060
units angstrom
no_reorient  #important for SAPT in psi4, default
symmetry c1  #important for SAPT in psi4, default
}

set PROPERTIES_ORIGIN ["COM"]
properties('MP2/aug-cc-pvtz', properties = ['dipole'])
--------------------------------------------------------------------------

    Molecular point group: c1
  Charge       = 0
  Multiplicity = 1
  Basis Set: AUG-CC-PVTZ
    Blend: AUG-CC-PVTZ
  Basis Set: (AUG-CC-PVTZ AUX)
    Blend: AUG-CC-PVTZ-JKFIT

    Orbital Energies [Eh]
    ---------------------

    Doubly Occupied:

       1A    -20.536705     2A    -15.594543     3A    -11.358067
       4A    -11.300880     5A    -11.277751     6A    -11.265100
       7A    -11.224834     8A    -11.224402     9A    -11.222387
      10A    -11.222371    11A     -1.433572    12A     -1.251680
      13A     -1.118086    14A     -1.043829    15A     -1.014848
      16A     -0.943842    17A     -0.896395    18A     -0.829750
      19A     -0.793569    20A     -0.714882    21A     -0.691837
      22A     -0.662596    23A     -0.635435    24A     -0.630119
      25A     -0.616433    26A     -0.603106    27A     -0.570568
      28A     -0.566756    29A     -0.550681    30A     -0.538757
      31A     -0.525474    32A     -0.509459    33A     -0.481196
      34A     -0.477282    35A     -0.419402    36A     -0.395402
      37A     -0.301443

  @DF-RHF Final Energy:  -438.78560569691899

   => Energetics <=

    Nuclear Repulsion Energy =            526.2019325643614138
    One-Electron Energy =               -1639.0881987641737396
    Two-Electron Energy =                 674.1006605028933336
    Total Energy =                       -438.7856056969189922
  Basis Set: (AUG-CC-PVTZ AUX)
    Blend: AUG-CC-PVTZ-RI
    Molecular point group: c1

    Geometry (in Angstrom), charge = 0, multiplicity = 1:

       Center              X                  Y                   Z               Mass
    ------------   -----------------  -----------------  -----------------  -----------------
         O            0.180371568510     2.191146593641    -0.000011501442    15.994914619570
         N           -0.223849431490    -0.091266406359    -0.000003501442    14.003074004430
         C           -1.679479431490     0.167211593641    -0.000005501442    12.000000000000
         C           -2.320869431490    -0.372596406359     1.272624498558    12.000000000000
         C           -2.320877431490    -0.372643406359    -1.272611501442    12.000000000000
         C            0.756987768510     1.196442293641    -0.000006901442    12.000000000000
         C            0.235721568510    -1.379444406359     0.000005498558    12.000000000000
         C            2.042382568510     0.700774593641    -0.000004501442    12.000000000000
         C            1.571939568510    -1.669649406359     0.000009498558    12.000000000000
         C            2.492905568510    -0.591431406359     0.000003498558    12.000000000000
         H           -1.745300431490     1.256844593641    -0.000024501442     1.007825032230
         H           -3.375733431490    -0.083632406359     1.304931498558     1.007825032230
         H           -2.271482431490    -1.464891406359     1.319881498558     1.007825032230
         H           -1.823209431490     0.038003593641     2.154874498558     1.007825032230
         H           -1.823218431490     0.037917593641    -2.154880501442     1.007825032230
         H           -3.375739431490    -0.083671406359    -1.304925501442     1.007825032230
         H           -2.271501431490    -1.464939406359    -1.319825501442     1.007825032230
         H           -0.524903431490    -2.153623406359     0.000010498558     1.007825032230
         H            2.724650568510     1.544882593641    -0.000008501442     1.007825032230
         H            1.899844568510    -2.702940406359     0.000017498558     1.007825032230
         H            3.562232568510    -0.791192406359     0.000006498558     1.007825032230

  Basis Set: AUG-CC-PVTZ
    Blend: AUG-CC-PVTZ
  Basis Set: (AUG-CC-PVTZ AUX)
    Blend: AUG-CC-PVTZ-JKFIT
	 Reference Energy          =    -438.7856056969189922 [Eh]
	 Singles Energy            =      -0.0000000000000000 [Eh]
	 Same-Spin Energy          =      -0.4698589027143202 [Eh]
	 Opposite-Spin Energy      =      -1.4986618982725126 [Eh]
	 Correlation Energy        =      -1.9685208009868327 [Eh]
	 Total Energy              =    -440.7541264979058155 [Eh]

	 ================> DF-SCS-MP2 Energies <==================
	-----------------------------------------------------------
	 SCS Same-Spin Scale       =       0.3333333333333333 [-]
	 SCS Opposite-Spin Scale   =       1.2000000000000000 [-]
	 SCS Same-Spin Energy      =      -0.1566196342381067 [Eh]
	 SCS Opposite-Spin Energy  =      -1.7983942779270150 [Eh]
	 SCS Correlation Energy    =      -1.9550139121651218 [Eh]
	 SCS Total Energy          =    -440.7406196090840922 [Eh]
	-----------------------------------------------------------

  Dipole Moment: [D]
     X:    -0.5658      Y:    -2.7309      Z:     0.0000     Total:     2.7889

*** Psi4 exiting successfully. Buy a developer a beer!
