                               Psi4 1.4a3.dev225

  ==> Input File <==

--------------------------------------------------------------------------
#psi4
#
memory 32 gb

molecule  {
0 1
  O        0.2506850     2.2433030    -0.0000120
  N       -0.1535360    -0.0391100    -0.0000040
  C       -1.6091660     0.2193680    -0.0000060
  C       -2.2505560    -0.3204400     1.2726240
  C       -2.2505640    -0.3204870    -1.2726120
  C        0.7667076     1.1690473    -0.0000072
  C        0.3060350    -1.3272880     0.0000050
  C        2.1126960     0.7529310    -0.0000050
  C        1.6422530    -1.6174930     0.0000090
  C        2.5632190    -0.5392750     0.0000030
  H       -1.6749870     1.3090010    -0.0000250
  H       -3.3054200    -0.0314760     1.3049310
  H       -2.2011690    -1.4127350     1.3198810
  H       -1.7528960     0.0901600     2.1548740
  H       -1.7529050     0.0900740    -2.1548810
  H       -3.3054260    -0.0315150    -1.3049260
  H       -2.2011880    -1.4127830    -1.3198260
  H       -0.4545900    -2.1014670     0.0000100
  H        2.7949640     1.5970390    -0.0000090
  H        1.9701580    -2.6507840     0.0000170
  H        3.6325460    -0.7390360     0.0000060
units angstrom
no_reorient  #important for SAPT in psi4, default
symmetry c1  #important for SAPT in psi4, default
}

set PROPERTIES_ORIGIN ["COM"]
properties('MP2/aug-cc-pvtz', properties = ['dipole'])
--------------------------------------------------------------------------

    Molecular point group: c1
  Charge       = 0
  Multiplicity = 1
  Basis Set: AUG-CC-PVTZ
    Blend: AUG-CC-PVTZ
  Basis Set: (AUG-CC-PVTZ AUX)
    Blend: AUG-CC-PVTZ-JKFIT

    Orbital Energies [Eh]
    ---------------------

    Doubly Occupied:

       1A    -20.520582     2A    -15.609684     3A    -11.353512
       4A    -11.303978     5A    -11.273444     6A    -11.269849
       7A    -11.231023     8A    -11.228685     9A    -11.225657
      10A    -11.225641    11A     -1.396972    12A     -1.266527
      13A     -1.120019    14A     -1.046075    15A     -1.018599
      16A     -0.947348    17A     -0.894015    18A     -0.840632
      19A     -0.800523    20A     -0.712037    21A     -0.694564
      22A     -0.656942    23A     -0.637771    24A     -0.620716
      25A     -0.619708    26A     -0.607779    27A     -0.566740
      28A     -0.561848    29A     -0.550585    30A     -0.541002
      31A     -0.525182    32A     -0.508284    33A     -0.480654
      34A     -0.480414    35A     -0.424299    36A     -0.401062
      37A     -0.304366

  @DF-RHF Final Energy:  -438.80884397259729

   => Energetics <=

    Nuclear Repulsion Energy =            527.0308823662012401
    One-Electron Energy =               -1640.7460205033926286
    Two-Electron Energy =                 674.9062941645941009
    Total Energy =                       -438.8088439725972876
  Basis Set: (AUG-CC-PVTZ AUX)
    Blend: AUG-CC-PVTZ-RI
    Molecular point group: c1

    Geometry (in Angstrom), charge = 0, multiplicity = 1:

       Center              X                  Y                   Z               Mass
    ------------   -----------------  -----------------  -----------------  -----------------
         O            0.185675782427     2.198110326494    -0.000011518949    15.994914619570
         N           -0.218545217573    -0.084302673506    -0.000003518949    14.003074004430
         C           -1.674175217573     0.174175326494    -0.000005518949    12.000000000000
         C           -2.315565217573    -0.365632673506     1.272624481051    12.000000000000
         C           -2.315573217573    -0.365679673506    -1.272611518949    12.000000000000
         C            0.701698382427     1.123854626494    -0.000006718949    12.000000000000
         C            0.241025782427    -1.372480673506     0.000005481051    12.000000000000
         C            2.047686782427     0.707738326494    -0.000004518949    12.000000000000
         C            1.577243782427    -1.662685673506     0.000009481051    12.000000000000
         C            2.498209782427    -0.584467673506     0.000003481051    12.000000000000
         H           -1.739996217573     1.263808326494    -0.000024518949     1.007825032230
         H           -3.370429217573    -0.076668673506     1.304931481051     1.007825032230
         H           -2.266178217573    -1.457927673506     1.319881481051     1.007825032230
         H           -1.817905217573     0.044967326494     2.154874481051     1.007825032230
         H           -1.817914217573     0.044881326494    -2.154880518949     1.007825032230
         H           -3.370435217573    -0.076707673506    -1.304925518949     1.007825032230
         H           -2.266197217573    -1.457975673506    -1.319825518949     1.007825032230
         H           -0.519599217573    -2.146659673506     0.000010481051     1.007825032230
         H            2.729954782427     1.551846326494    -0.000008518949     1.007825032230
         H            1.905148782427    -2.695976673506     0.000017481051     1.007825032230
         H            3.567536782427    -0.784228673506     0.000006481051     1.007825032230

  Basis Set: AUG-CC-PVTZ
    Blend: AUG-CC-PVTZ
  Basis Set: (AUG-CC-PVTZ AUX)
    Blend: AUG-CC-PVTZ-JKFIT
	 Reference Energy          =    -438.8088439725972876 [Eh]
	 Singles Energy            =      -0.0000000000000000 [Eh]
	 Same-Spin Energy          =      -0.4686368894997360 [Eh]
	 Opposite-Spin Energy      =      -1.4975003286836768 [Eh]
	 Correlation Energy        =      -1.9661372181834127 [Eh]
	 Total Energy              =    -440.7749811907806929 [Eh]

	 ================> DF-SCS-MP2 Energies <==================
	-----------------------------------------------------------
	 SCS Same-Spin Scale       =       0.3333333333333333 [-]
	 SCS Opposite-Spin Scale   =       1.2000000000000000 [-]
	 SCS Same-Spin Energy      =      -0.1562122964999120 [Eh]
	 SCS Opposite-Spin Energy  =      -1.7970003944204120 [Eh]
	 SCS Correlation Energy    =      -1.9532126909203240 [Eh]
	 SCS Total Energy          =    -440.7620566635176260 [Eh]
	-----------------------------------------------------------

  Dipole Moment: [D]
     X:    -0.6135      Y:    -3.3104      Z:     0.0000     Total:     3.3668

*** Psi4 exiting successfully. Buy a developer a beer!
