                               Psi4 1.4a3.dev225

  ==> Input File <==

--------------------------------------------------------------------------
#psi4
#
memory 32 gb

molecule  {
0 1
  O        0.2506850     2.2433030    -0.0000120
  N       -0.1535360    -0.0391100    -0.0000040
  C       -1.6091660     0.2193680    -0.0000060
  C       -2.2505560    -0.3204400     1.2726240
  C       -2.2505640    -0.3204870    -1.2726120
  C        0.7061140     1.0894960    -0.0000070
  C        0.3060350    -1.3272880     0.0000050
  C        2.1126960     0.7529310    -0.0000050
  C        1.6422530    -1.6174930     0.0000090
  C        2.5632190    -0.5392750     0.0000030
  H       -1.6749870     1.3090010    -0.0000250
  H       -3.3054200    -0.0314760     1.3049310
  H       -2.2011690    -1.4127350     1.3198810
  H       -1.7528960     0.0901600     2.1548740
  H       -1.7202330     0.0744356    -2.1429042
  H       -3.3054260    -0.0315150    -1.3049260
  H       -2.2011880    -1.4127830    -1.3198260
  H       -0.4545900    -2.1014670     0.0000100
  H        2.7949640     1.5970390    -0.0000090
  H        1.9701580    -2.6507840     0.0000170
  H        3.6325460    -0.7390360     0.0000060
units angstrom
no_reorient  #important for SAPT in psi4, default
symmetry c1  #important for SAPT in psi4, default
}

set PROPERTIES_ORIGIN ["COM"]
properties('MP2/aug-cc-pvtz', properties = ['dipole'])
--------------------------------------------------------------------------

    Molecular point group: c1
  Charge       = 0
  Multiplicity = 1
  Basis Set: AUG-CC-PVTZ
    Blend: AUG-CC-PVTZ
  Basis Set: (AUG-CC-PVTZ AUX)
    Blend: AUG-CC-PVTZ-JKFIT

    Orbital Energies [Eh]
    ---------------------

    Doubly Occupied:

       1A    -20.505493     2A    -15.621547     3A    -11.350025
       4A    -11.305676     5A    -11.273957     6A    -11.268995
       7A    -11.238388     8A    -11.235309     9A    -11.228834
      10A    -11.228603    11A     -1.367063    12A     -1.277685
      13A     -1.122611    14A     -1.051310    15A     -1.022591
      16A     -0.950695    17A     -0.893258    18A     -0.855884
      19A     -0.803736    20A     -0.711563    21A     -0.699511
      22A     -0.655608    23A     -0.640815    24A     -0.628529
      25A     -0.612503    26A     -0.604316    27A     -0.564985
      28A     -0.561545    29A     -0.549073    30A     -0.544007
      31A     -0.524715    32A     -0.503701    33A     -0.486730
      34A     -0.473662    35A     -0.417795    36A     -0.406654
      37A     -0.307214

  @DF-RHF Final Energy:  -438.81780844276000

   => Energetics <=

    Nuclear Repulsion Energy =            527.9860034885819005
    One-Electron Energy =               -1642.6184549908525696
    Two-Electron Energy =                 675.8146430595106722
    Total Energy =                       -438.8178084427599970
  Basis Set: (AUG-CC-PVTZ AUX)
    Blend: AUG-CC-PVTZ-RI
    Molecular point group: c1

    Geometry (in Angstrom), charge = 0, multiplicity = 1:

       Center              X                  Y                   Z               Mass
    ------------   -----------------  -----------------  -----------------  -----------------
         O            0.190739795854     2.205189022170    -0.000099588405    15.994914619570
         N           -0.213481204146    -0.077223977830    -0.000091588405    14.003074004430
         C           -1.669111204146     0.181254022170    -0.000093588405    12.000000000000
         C           -2.310501204146    -0.358553977830     1.272536411595    12.000000000000
         C           -2.310509204146    -0.358600977830    -1.272699588405    12.000000000000
         C            0.646168795854     1.051382022170    -0.000094588405    12.000000000000
         C            0.246089795854    -1.365401977830    -0.000082588405    12.000000000000
         C            2.052750795854     0.714817022170    -0.000092588405    12.000000000000
         C            1.582307795854    -1.655606977830    -0.000078588405    12.000000000000
         C            2.503273795854    -0.577388977830    -0.000084588405    12.000000000000
         H           -1.734932204146     1.270887022170    -0.000112588405     1.007825032230
         H           -3.365365204146    -0.069589977830     1.304843411595     1.007825032230
         H           -2.261114204146    -1.450848977830     1.319793411595     1.007825032230
         H           -1.812841204146     0.052046022170     2.154786411595     1.007825032230
         H           -1.780178204146     0.036321622170    -2.142991788405     1.007825032230
         H           -3.365371204146    -0.069628977830    -1.305013588405     1.007825032230
         H           -2.261133204146    -1.450896977830    -1.319913588405     1.007825032230
         H           -0.514535204146    -2.139580977830    -0.000077588405     1.007825032230
         H            2.735018795854     1.558925022170    -0.000096588405     1.007825032230
         H            1.910212795854    -2.688897977830    -0.000070588405     1.007825032230
         H            3.572600795854    -0.777149977830    -0.000081588405     1.007825032230

  Basis Set: AUG-CC-PVTZ
    Blend: AUG-CC-PVTZ
  Basis Set: (AUG-CC-PVTZ AUX)
    Blend: AUG-CC-PVTZ-JKFIT
	 Reference Energy          =    -438.8178084427599970 [Eh]
	 Singles Energy            =      -0.0000000000000000 [Eh]
	 Same-Spin Energy          =      -0.4679873544005488 [Eh]
	 Opposite-Spin Energy      =      -1.4973253937973210 [Eh]
	 Correlation Energy        =      -1.9653127481978698 [Eh]
	 Total Energy              =    -440.7831211909578428 [Eh]

	 ================> DF-SCS-MP2 Energies <==================
	-----------------------------------------------------------
	 SCS Same-Spin Scale       =       0.3333333333333333 [-]
	 SCS Opposite-Spin Scale   =       1.2000000000000000 [-]
	 SCS Same-Spin Energy      =      -0.1559957848001829 [Eh]
	 SCS Opposite-Spin Energy  =      -1.7967904725567851 [Eh]
	 SCS Correlation Energy    =      -1.9527862573569681 [Eh]
	 SCS Total Energy          =    -440.7705947001169875 [Eh]
	-----------------------------------------------------------

  Dipole Moment: [D]
     X:    -0.6550      Y:    -3.8766      Z:     0.0055     Total:     3.9316

*** Psi4 exiting successfully. Buy a developer a beer!
