                               Psi4 1.4a3.dev225

  ==> Input File <==

--------------------------------------------------------------------------
#psi4
#
memory 32 gb

molecule  {
0 1
  O        0.2506850     2.2433030    -0.0000120
  N       -0.1737045    -0.1063686    -0.1379031
  C       -1.6091660     0.2193680    -0.0000060
  C       -2.2505560    -0.3204400     1.2726240
  C       -2.2505640    -0.3204870    -1.2726120
  C        0.7061140     1.0894960    -0.0000070
  C        0.3060350    -1.3272880     0.0000050
  C        2.1126960     0.7529310    -0.0000050
  C        1.6422530    -1.6174930     0.0000090
  C        2.5632190    -0.5392750     0.0000030
  H       -1.6749870     1.3090010    -0.0000250
  H       -3.3054200    -0.0314760     1.3049310
  H       -2.2011690    -1.4127350     1.3198810
  H       -1.7528960     0.0901600     2.1548740
  H       -1.7529050     0.0900740    -2.1548810
  H       -3.3054260    -0.0315150    -1.3049260
  H       -2.2011880    -1.4127830    -1.3198260
  H       -0.4545900    -2.1014670     0.0000100
  H        2.7949640     1.5970390    -0.0000090
  H        1.9701580    -2.6507840     0.0000170
  H        3.6325460    -0.7390360     0.0000060
units angstrom
no_reorient  #important for SAPT in psi4, default
symmetry c1  #important for SAPT in psi4, default
}

set PROPERTIES_ORIGIN ["COM"]
properties('MP2/aug-cc-pvtz', properties = ['dipole'])
--------------------------------------------------------------------------

    Molecular point group: c1
  Charge       = 0
  Multiplicity = 1
  Basis Set: AUG-CC-PVTZ
    Blend: AUG-CC-PVTZ
  Basis Set: (AUG-CC-PVTZ AUX)
    Blend: AUG-CC-PVTZ-JKFIT

    Orbital Energies [Eh]
    ---------------------

    Doubly Occupied:

       1A    -20.516623     2A    -15.622214     3A    -11.358498
       4A    -11.302453     5A    -11.275417     6A    -11.269495
       7A    -11.232140     8A    -11.231898     9A    -11.231761
      10A    -11.225685    11A     -1.367885    12A     -1.287885
      13A     -1.121566    14A     -1.054141    15A     -1.015270
      16A     -0.951448    17A     -0.891482    18A     -0.852564
      19A     -0.803544    20A     -0.714162    21A     -0.693100
      22A     -0.657848    23A     -0.645140    24A     -0.626593
      25A     -0.610958    26A     -0.605619    27A     -0.566326
      28A     -0.562906    29A     -0.548518    30A     -0.541350
      31A     -0.528073    32A     -0.506574    33A     -0.483279
      34A     -0.478673    35A     -0.421084    36A     -0.408280
      37A     -0.301740

  @DF-RHF Final Energy:  -438.80517857598068

   => Energetics <=

    Nuclear Repulsion Energy =            527.5070731883869257
    One-Electron Energy =               -1641.6001174700147658
    Two-Electron Energy =                 675.2878657056472775
    Total Energy =                       -438.8051785759806762
  Basis Set: (AUG-CC-PVTZ AUX)
    Blend: AUG-CC-PVTZ-RI
    Molecular point group: c1

    Geometry (in Angstrom), charge = 0, multiplicity = 1:

       Center              X                  Y                   Z               Mass
    ------------   -----------------  -----------------  -----------------  -----------------
         O            0.193040199332     2.211944485609     0.014074793102    15.994914619570
         N           -0.231349300668    -0.137727114391    -0.123816306898    14.003074004430
         C           -1.666810800668     0.188009485609     0.014080793102    12.000000000000
         C           -2.308200800668    -0.351798514391     1.286710793102    12.000000000000
         C           -2.308208800668    -0.351845514391    -1.258525206898    12.000000000000
         C            0.648469199332     1.058137485609     0.014079793102    12.000000000000
         C            0.248390199332    -1.358646514391     0.014091793102    12.000000000000
         C            2.055051199332     0.721572485609     0.014081793102    12.000000000000
         C            1.584608199332    -1.648851514391     0.014095793102    12.000000000000
         C            2.505574199332    -0.570633514391     0.014089793102    12.000000000000
         H           -1.732631800668     1.277642485609     0.014061793102     1.007825032230
         H           -3.363064800668    -0.062834514391     1.319017793102     1.007825032230
         H           -2.258813800668    -1.444093514391     1.333967793102     1.007825032230
         H           -1.810540800668     0.058801485609     2.168960793102     1.007825032230
         H           -1.810549800668     0.058715485609    -2.140794206898     1.007825032230
         H           -3.363070800668    -0.062873514391    -1.290839206898     1.007825032230
         H           -2.258832800668    -1.444141514391    -1.305739206898     1.007825032230
         H           -0.512234800668    -2.132825514391     0.014096793102     1.007825032230
         H            2.737319199332     1.565680485609     0.014077793102     1.007825032230
         H            1.912513199332    -2.682142514391     0.014103793102     1.007825032230
         H            3.574901199332    -0.770394514391     0.014092793102     1.007825032230

  Basis Set: AUG-CC-PVTZ
    Blend: AUG-CC-PVTZ
  Basis Set: (AUG-CC-PVTZ AUX)
    Blend: AUG-CC-PVTZ-JKFIT
	 Reference Energy          =    -438.8051785759806762 [Eh]
	 Singles Energy            =      -0.0000000000000000 [Eh]
	 Same-Spin Energy          =      -0.4691520843106071 [Eh]
	 Opposite-Spin Energy      =      -1.4988325865632419 [Eh]
	 Correlation Energy        =      -1.9679846708738489 [Eh]
	 Total Energy              =    -440.7731632468545513 [Eh]

	 ================> DF-SCS-MP2 Energies <==================
	-----------------------------------------------------------
	 SCS Same-Spin Scale       =       0.3333333333333333 [-]
	 SCS Opposite-Spin Scale   =       1.2000000000000000 [-]
	 SCS Same-Spin Energy      =      -0.1563840281035357 [Eh]
	 SCS Opposite-Spin Energy  =      -1.7985991038758902 [Eh]
	 SCS Correlation Energy    =      -1.9549831319794257 [Eh]
	 SCS Total Energy          =    -440.7601617079600942 [Eh]
	-----------------------------------------------------------

  Dipole Moment: [D]
     X:    -0.7426      Y:    -3.5470      Z:     0.1232     Total:     3.6260

*** Psi4 exiting successfully. Buy a developer a beer!
