                               Psi4 1.4a3.dev225

  ==> Input File <==

--------------------------------------------------------------------------
#psi4
#
memory 32 gb

molecule  {
0 1
  O        0.2506850     2.2433030    -0.0000120
  N       -0.1535360    -0.0391100    -0.0000040
  C       -1.6091660     0.2193680    -0.0000060
  C       -2.2505560    -0.3204400     1.2726240
  C       -2.2505640    -0.3204870    -1.2726120
  C        0.7182327     1.1054063    -0.0000070
  C        0.3060350    -1.3272880     0.0000050
  C        2.1126960     0.7529310    -0.0000050
  C        1.6422530    -1.6174930     0.0000090
  C        2.5632190    -0.5392750     0.0000030
  H       -1.6749870     1.3090010    -0.0000250
  H       -3.3054200    -0.0314760     1.3049310
  H       -2.2011690    -1.4127350     1.3198810
  H       -1.7528960     0.0901600     2.1548740
  H       -1.7529050     0.0900740    -2.1548810
  H       -3.3054260    -0.0315150    -1.3049260
  H       -2.2011880    -1.4127830    -1.3198260
  H       -0.4545900    -2.1014670     0.0000100
  H        2.7949640     1.5970390    -0.0000090
  H        1.9701580    -2.6507840     0.0000170
  H        3.6325460    -0.7390360     0.0000060
units angstrom
no_reorient  #important for SAPT in psi4, default
symmetry c1  #important for SAPT in psi4, default
}

set PROPERTIES_ORIGIN ["COM"]
properties('MP2/aug-cc-pvtz', properties = ['dipole'])
--------------------------------------------------------------------------

    Molecular point group: c1
  Charge       = 0
  Multiplicity = 1
  Basis Set: AUG-CC-PVTZ
    Blend: AUG-CC-PVTZ
  Basis Set: (AUG-CC-PVTZ AUX)
    Blend: AUG-CC-PVTZ-JKFIT

    Orbital Energies [Eh]
    ---------------------

    Doubly Occupied:

       1A    -20.508460     2A    -15.619357     3A    -11.350654
       4A    -11.305389     5A    -11.273329     6A    -11.269827
       7A    -11.236773     8A    -11.233774     9A    -11.228145
      10A    -11.228130    11A     -1.371803    12A     -1.276222
      13A     -1.121974    14A     -1.049916    15A     -1.021755
      16A     -0.949999    17A     -0.893189    18A     -0.852601
      19A     -0.803487    20A     -0.711256    21A     -0.698692
      22A     -0.655582    23A     -0.640178    24A     -0.626166
      25A     -0.612144    26A     -0.607457    27A     -0.565115
      28A     -0.561688    29A     -0.548199    30A     -0.543320
      31A     -0.524625    32A     -0.505216    33A     -0.485416
      34A     -0.475858    35A     -0.419849    36A     -0.405536
      37A     -0.306587

  @DF-RHF Final Energy:  -438.81757897967270

   => Energetics <=

    Nuclear Repulsion Energy =            527.7327047004048381
    One-Electron Energy =               -1642.1252301432732565
    Two-Electron Energy =                 675.5749464631957153
    Total Energy =                       -438.8175789796727031
  Basis Set: (AUG-CC-PVTZ AUX)
    Blend: AUG-CC-PVTZ-RI
    Molecular point group: c1

    Geometry (in Angstrom), charge = 0, multiplicity = 1:

       Center              X                  Y                   Z               Mass
    ------------   -----------------  -----------------  -----------------  -----------------
         O            0.189919155312     2.203681302272    -0.000011536457    15.994914619570
         N           -0.214301844688    -0.078731697728    -0.000003536457    14.003074004430
         C           -1.669931844688     0.179746302272    -0.000005536457    12.000000000000
         C           -2.311321844688    -0.360061697728     1.272624463543    12.000000000000
         C           -2.311329844688    -0.360108697728    -1.272611536457    12.000000000000
         C            0.657466855312     1.065784602272    -0.000006536457    12.000000000000
         C            0.245269155312    -1.366909697728     0.000005463543    12.000000000000
         C            2.051930155312     0.713309302272    -0.000004536457    12.000000000000
         C            1.581487155312    -1.657114697728     0.000009463543    12.000000000000
         C            2.502453155312    -0.578896697728     0.000003463543    12.000000000000
         H           -1.735752844688     1.269379302272    -0.000024536457     1.007825032230
         H           -3.366185844688    -0.071097697728     1.304931463543     1.007825032230
         H           -2.261934844688    -1.452356697728     1.319881463543     1.007825032230
         H           -1.813661844688     0.050538302272     2.154874463543     1.007825032230
         H           -1.813670844688     0.050452302272    -2.154880536457     1.007825032230
         H           -3.366191844688    -0.071136697728    -1.304925536457     1.007825032230
         H           -2.261953844688    -1.452404697728    -1.319825536457     1.007825032230
         H           -0.515355844688    -2.141088697728     0.000010463543     1.007825032230
         H            2.734198155312     1.557417302272    -0.000008536457     1.007825032230
         H            1.909392155312    -2.690405697728     0.000017463543     1.007825032230
         H            3.571780155312    -0.778657697728     0.000006463543     1.007825032230

  Basis Set: AUG-CC-PVTZ
    Blend: AUG-CC-PVTZ
  Basis Set: (AUG-CC-PVTZ AUX)
    Blend: AUG-CC-PVTZ-JKFIT
	 Reference Energy          =    -438.8175789796727031 [Eh]
	 Singles Energy            =      -0.0000000000000000 [Eh]
	 Same-Spin Energy          =      -0.4680513851581873 [Eh]
	 Opposite-Spin Energy      =      -1.4972343554655312 [Eh]
	 Correlation Energy        =      -1.9652857406237185 [Eh]
	 Total Energy              =    -440.7828647202964021 [Eh]

	 ================> DF-SCS-MP2 Energies <==================
	-----------------------------------------------------------
	 SCS Same-Spin Scale       =       0.3333333333333333 [-]
	 SCS Opposite-Spin Scale   =       1.2000000000000000 [-]
	 SCS Same-Spin Energy      =      -0.1560171283860624 [Eh]
	 SCS Opposite-Spin Energy  =      -1.7966812265586374 [Eh]
	 SCS Correlation Energy    =      -1.9526983549446999 [Eh]
	 SCS Total Energy          =    -440.7702773346173899 [Eh]
	-----------------------------------------------------------

  Dipole Moment: [D]
     X:    -0.6546      Y:    -3.7587      Z:     0.0000     Total:     3.8153

*** Psi4 exiting successfully. Buy a developer a beer!
