                               Psi4 1.4a3.dev225

  ==> Input File <==

--------------------------------------------------------------------------
#psi4
#
memory 32 gb

molecule  {
0 1
  O        0.2506850     2.2433030    -0.0000120
  N       -0.1557937    -0.0505368    -0.0230281
  C       -1.6091660     0.2193680    -0.0000060
  C       -2.2505560    -0.3204400     1.2726240
  C       -2.2505640    -0.3204870    -1.2726120
  C        0.7061140     1.0894960    -0.0000070
  C        0.3060350    -1.3272880     0.0000050
  C        2.1126960     0.7529310    -0.0000050
  C        1.6422530    -1.6174930     0.0000090
  C        2.5632190    -0.5392750     0.0000030
  H       -1.6749870     1.3090010    -0.0000250
  H       -3.3054200    -0.0314760     1.3049310
  H       -2.2011690    -1.4127350     1.3198810
  H       -1.7528960     0.0901600     2.1548740
  H       -1.7529050     0.0900740    -2.1548810
  H       -3.3054260    -0.0315150    -1.3049260
  H       -2.2011880    -1.4127830    -1.3198260
  H       -0.4545900    -2.1014670     0.0000100
  H        2.7949640     1.5970390    -0.0000090
  H        1.9701580    -2.6507840     0.0000170
  H        3.6325460    -0.7390360     0.0000060
units angstrom
no_reorient  #important for SAPT in psi4, default
symmetry c1  #important for SAPT in psi4, default
}

set PROPERTIES_ORIGIN ["COM"]
properties('MP2/aug-cc-pvtz', properties = ['dipole'])
--------------------------------------------------------------------------

    Molecular point group: c1
  Charge       = 0
  Multiplicity = 1
  Basis Set: AUG-CC-PVTZ
    Blend: AUG-CC-PVTZ
  Basis Set: (AUG-CC-PVTZ AUX)
    Blend: AUG-CC-PVTZ-JKFIT

    Orbital Energies [Eh]
    ---------------------

    Doubly Occupied:

       1A    -20.507073     2A    -15.621810     3A    -11.351318
       4A    -11.305094     5A    -11.274487     6A    -11.268896
       7A    -11.237115     8A    -11.234593     9A    -11.229348
      10A    -11.228312    11A     -1.367035    12A     -1.279627
      13A     -1.122324    14A     -1.051640    15A     -1.021621
      16A     -0.950826    17A     -0.893067    18A     -0.855646
      19A     -0.804133    20A     -0.711913    21A     -0.698689
      22A     -0.655522    23A     -0.641691    24A     -0.628198
      25A     -0.612712    26A     -0.604532    27A     -0.564734
      28A     -0.562298    29A     -0.547954    30A     -0.543437
      31A     -0.525116    32A     -0.504975    33A     -0.486528
      34A     -0.474792    35A     -0.418291    36A     -0.406944
      37A     -0.306098

  @DF-RHF Final Energy:  -438.81739659595553

   => Energetics <=

    Nuclear Repulsion Energy =            527.8890722098201422
    One-Electron Energy =               -1642.4161608995884762
    Two-Electron Energy =                 675.7096920938128051
    Total Energy =                       -438.8173965959555289
  Basis Set: (AUG-CC-PVTZ AUX)
    Blend: AUG-CC-PVTZ-RI
    Molecular point group: c1

    Geometry (in Angstrom), charge = 0, multiplicity = 1:

       Center              X                  Y                   Z               Mass
    ------------   -----------------  -----------------  -----------------  -----------------
         O            0.191210619360     2.206241292951     0.002340364755    15.994914619570
         N           -0.215268080640    -0.087598507049    -0.020675735245    14.003074004430
         C           -1.668640380640     0.182306292951     0.002346364755    12.000000000000
         C           -2.310030380640    -0.357501707049     1.274976364755    12.000000000000
         C           -2.310038380640    -0.357548707049    -1.270259635245    12.000000000000
         C            0.646639619360     1.052434292951     0.002345364755    12.000000000000
         C            0.246560619360    -1.364349707049     0.002357364755    12.000000000000
         C            2.053221619360     0.715869292951     0.002347364755    12.000000000000
         C            1.582778619360    -1.654554707049     0.002361364755    12.000000000000
         C            2.503744619360    -0.576336707049     0.002355364755    12.000000000000
         H           -1.734461380640     1.271939292951     0.002327364755     1.007825032230
         H           -3.364894380640    -0.068537707049     1.307283364755     1.007825032230
         H           -2.260643380640    -1.449796707049     1.322233364755     1.007825032230
         H           -1.812370380640     0.053098292951     2.157226364755     1.007825032230
         H           -1.812379380640     0.053012292951    -2.152528635245     1.007825032230
         H           -3.364900380640    -0.068576707049    -1.302573635245     1.007825032230
         H           -2.260662380640    -1.449844707049    -1.317473635245     1.007825032230
         H           -0.514064380640    -2.138528707049     0.002362364755     1.007825032230
         H            2.735489619360     1.559977292951     0.002343364755     1.007825032230
         H            1.910683619360    -2.687845707049     0.002369364755     1.007825032230
         H            3.573071619360    -0.776097707049     0.002358364755     1.007825032230

  Basis Set: AUG-CC-PVTZ
    Blend: AUG-CC-PVTZ
  Basis Set: (AUG-CC-PVTZ AUX)
    Blend: AUG-CC-PVTZ-JKFIT
	 Reference Energy          =    -438.8173965959555289 [Eh]
	 Singles Energy            =      -0.0000000000000000 [Eh]
	 Same-Spin Energy          =      -0.4681420164635354 [Eh]
	 Opposite-Spin Energy      =      -1.4973979402179971 [Eh]
	 Correlation Energy        =      -1.9655399566815326 [Eh]
	 Total Energy              =    -440.7829365526370680 [Eh]

	 ================> DF-SCS-MP2 Energies <==================
	-----------------------------------------------------------
	 SCS Same-Spin Scale       =       0.3333333333333333 [-]
	 SCS Opposite-Spin Scale   =       1.2000000000000000 [-]
	 SCS Same-Spin Energy      =      -0.1560473388211785 [Eh]
	 SCS Opposite-Spin Energy  =      -1.7968775282615965 [Eh]
	 SCS Correlation Energy    =      -1.9529248670827750 [Eh]
	 SCS Total Energy          =    -440.7703214630383286 [Eh]
	-----------------------------------------------------------

  Dipole Moment: [D]
     X:    -0.6896      Y:    -3.8214      Z:     0.0209     Total:     3.8832

*** Psi4 exiting successfully. Buy a developer a beer!
