                               Psi4 1.4a3.dev225

  ==> Input File <==

--------------------------------------------------------------------------
#psi4
#
memory 32 gb

molecule  {
0 1
  O        0.2506850     2.2433030    -0.0000120
  N       -0.1535360    -0.0391100    -0.0000040
  C       -1.6091660     0.2193680    -0.0000060
  C       -2.2505560    -0.3204400     1.2726240
  C       -2.2505640    -0.3204870    -1.2726120
  C        0.7061140     1.0894960    -0.0000070
  C        0.3060350    -1.3272880     0.0000050
  C        2.1126960     0.7529310    -0.0000050
  C        1.6422530    -1.6174930     0.0000090
  C        2.5632190    -0.5392750     0.0000030
  H       -1.6749870     1.3090010    -0.0000250
  H       -3.3054200    -0.0314760     1.3049310
  H       -2.2011690    -1.4127350     1.3198810
  H       -1.8439601     0.0150265     1.9934358
  H       -1.7529050     0.0900740    -2.1548810
  H       -3.3054260    -0.0315150    -1.3049260
  H       -2.2011880    -1.4127830    -1.3198260
  H       -0.4545900    -2.1014670     0.0000100
  H        2.7949640     1.5970390    -0.0000090
  H        1.9701580    -2.6507840     0.0000170
  H        3.6325460    -0.7390360     0.0000060
units angstrom
no_reorient  #important for SAPT in psi4, default
symmetry c1  #important for SAPT in psi4, default
}

set PROPERTIES_ORIGIN ["COM"]
properties('MP2/aug-cc-pvtz', properties = ['dipole'])
--------------------------------------------------------------------------

    Molecular point group: c1
  Charge       = 0
  Multiplicity = 1
  Basis Set: AUG-CC-PVTZ
    Blend: AUG-CC-PVTZ
  Basis Set: (AUG-CC-PVTZ AUX)
    Blend: AUG-CC-PVTZ-JKFIT

    Orbital Energies [Eh]
    ---------------------

    Doubly Occupied:

       1A    -20.505508     2A    -15.621585     3A    -11.350028
       4A    -11.305602     5A    -11.272793     6A    -11.269004
       7A    -11.238378     8A    -11.235313     9A    -11.227385
      10A    -11.204430    11A     -1.367103    12A     -1.277757
      13A     -1.123478    14A     -1.056165    15A     -1.022725
      16A     -0.967857    17A     -0.894552    18A     -0.856721
      19A     -0.807191    20A     -0.711878    21A     -0.700339
      22A     -0.662137    23A     -0.640512    24A     -0.631703
      25A     -0.627237    26A     -0.604505    27A     -0.567889
      28A     -0.563210    29A     -0.549107    30A     -0.544428
      31A     -0.524483    32A     -0.513184    33A     -0.486734
      34A     -0.474005    35A     -0.417764    36A     -0.406442
      37A     -0.307211

  @DF-RHF Final Energy:  -438.78374960648807

   => Energetics <=

    Nuclear Repulsion Energy =            528.8798845442073571
    One-Electron Energy =               -1644.2545841995247429
    Two-Electron Energy =                 676.5909500488291997
    Total Energy =                       -438.7837496064880725
  Basis Set: (AUG-CC-PVTZ AUX)
    Blend: AUG-CC-PVTZ-RI
    Molecular point group: c1

    Geometry (in Angstrom), charge = 0, multiplicity = 1:

       Center              X                  Y                   Z               Mass
    ------------   -----------------  -----------------  -----------------  -----------------
         O            0.191649488311     2.205626422765     0.001175337162    15.994914619570
         N           -0.212571511689    -0.076786577235     0.001183337162    14.003074004430
         C           -1.668201511689     0.181691422765     0.001181337162    12.000000000000
         C           -2.309591511689    -0.358116577235     1.273811337162    12.000000000000
         C           -2.309599511689    -0.358163577235    -1.271424662838    12.000000000000
         C            0.647078488311     1.051819422765     0.001180337162    12.000000000000
         C            0.246999488311    -1.364964577235     0.001192337162    12.000000000000
         C            2.053660488311     0.715254422765     0.001182337162    12.000000000000
         C            1.583217488311    -1.655169577235     0.001196337162    12.000000000000
         C            2.504183488311    -0.576951577235     0.001190337162    12.000000000000
         H           -1.734022511689     1.271324422765     0.001162337162     1.007825032230
         H           -3.364455511689    -0.069152577235     1.306118337162     1.007825032230
         H           -2.260204511689    -1.450411577235     1.321068337162     1.007825032230
         H           -1.902995611689    -0.022650077235     1.994623137162     1.007825032230
         H           -1.811940511689     0.052397422765    -2.153693662838     1.007825032230
         H           -3.364461511689    -0.069191577235    -1.303738662838     1.007825032230
         H           -2.260223511689    -1.450459577235    -1.318638662838     1.007825032230
         H           -0.513625511689    -2.139143577235     0.001197337162     1.007825032230
         H            2.735928488311     1.559362422765     0.001178337162     1.007825032230
         H            1.911122488311    -2.688460577235     0.001204337162     1.007825032230
         H            3.573510488311    -0.776712577235     0.001193337162     1.007825032230

  Basis Set: AUG-CC-PVTZ
    Blend: AUG-CC-PVTZ
  Basis Set: (AUG-CC-PVTZ AUX)
    Blend: AUG-CC-PVTZ-JKFIT
	 Reference Energy          =    -438.7837496064880725 [Eh]
	 Singles Energy            =      -0.0000000000000000 [Eh]
	 Same-Spin Energy          =      -0.4680361302869174 [Eh]
	 Opposite-Spin Energy      =      -1.4966106541995015 [Eh]
	 Correlation Energy        =      -1.9646467844864188 [Eh]
	 Total Energy              =    -440.7483963909745057 [Eh]

	 ================> DF-SCS-MP2 Energies <==================
	-----------------------------------------------------------
	 SCS Same-Spin Scale       =       0.3333333333333333 [-]
	 SCS Opposite-Spin Scale   =       1.2000000000000000 [-]
	 SCS Same-Spin Energy      =      -0.1560120434289725 [Eh]
	 SCS Opposite-Spin Energy  =      -1.7959327850394018 [Eh]
	 SCS Correlation Energy    =      -1.9519448284683742 [Eh]
	 SCS Total Energy          =    -440.7356944349564287 [Eh]
	-----------------------------------------------------------

  Dipole Moment: [D]
     X:    -0.6497      Y:    -3.8603      Z:     0.0681     Total:     3.9152

*** Psi4 exiting successfully. Buy a developer a beer!
