                               Psi4 1.4a3.dev225

  ==> Input File <==

--------------------------------------------------------------------------
#psi4
#
memory 32 gb

molecule  {
0 1
  O        0.2506850     2.2433030    -0.0000120
  N       -0.1535360    -0.0391100    -0.0000040
  C       -1.6091660     0.2193680    -0.0000060
  C       -2.2505560    -0.3204400     1.2726240
  C       -2.2266698    -0.4184205    -1.2386648
  C        0.7061140     1.0894960    -0.0000070
  C        0.3060350    -1.3272880     0.0000050
  C        2.1126960     0.7529310    -0.0000050
  C        1.6422530    -1.6174930     0.0000090
  C        2.5632190    -0.5392750     0.0000030
  H       -1.6749870     1.3090010    -0.0000250
  H       -3.3054200    -0.0314760     1.3049310
  H       -2.2011690    -1.4127350     1.3198810
  H       -1.7528960     0.0901600     2.1548740
  H       -1.7529050     0.0900740    -2.1548810
  H       -3.3054260    -0.0315150    -1.3049260
  H       -2.2011880    -1.4127830    -1.3198260
  H       -0.4545900    -2.1014670     0.0000100
  H        2.7949640     1.5970390    -0.0000090
  H        1.9701580    -2.6507840     0.0000170
  H        3.6325460    -0.7390360     0.0000060
units angstrom
no_reorient  #important for SAPT in psi4, default
symmetry c1  #important for SAPT in psi4, default
}

set PROPERTIES_ORIGIN ["COM"]
properties('MP2/aug-cc-pvtz', properties = ['dipole'])
--------------------------------------------------------------------------

    Molecular point group: c1
  Charge       = 0
  Multiplicity = 1
  Basis Set: AUG-CC-PVTZ
    Blend: AUG-CC-PVTZ
  Basis Set: (AUG-CC-PVTZ AUX)
    Blend: AUG-CC-PVTZ-JKFIT

    Orbital Energies [Eh]
    ---------------------

    Doubly Occupied:

       1A    -20.505558     2A    -15.620831     3A    -11.349928
       4A    -11.305837     5A    -11.275998     6A    -11.268915
       7A    -11.238657     8A    -11.235348     9A    -11.230199
      10A    -11.227949    11A     -1.367183    12A     -1.278017
      13A     -1.123071    14A     -1.051969    15A     -1.022837
      16A     -0.950441    17A     -0.894634    18A     -0.855655
      19A     -0.806127    20A     -0.713619    21A     -0.699875
      22A     -0.655936    23A     -0.643879    24A     -0.628185
      25A     -0.609189    26A     -0.604561    27A     -0.580471
      28A     -0.562158    29A     -0.546139    30A     -0.538011
      31A     -0.518175    32A     -0.500022    33A     -0.488894
      34A     -0.472678    35A     -0.418128    36A     -0.405261
      37A     -0.307220

  @DF-RHF Final Energy:  -438.80416570041376

   => Energetics <=

    Nuclear Repulsion Energy =            528.3125038259713619
    One-Electron Energy =               -1643.2302314224639304
    Two-Electron Energy =                 676.1135618960788634
    Total Energy =                       -438.8041657004137051
  Basis Set: (AUG-CC-PVTZ AUX)
    Blend: AUG-CC-PVTZ-RI
    Molecular point group: c1

    Geometry (in Angstrom), charge = 0, multiplicity = 1:

       Center              X                  Y                   Z               Mass
    ------------   -----------------  -----------------  -----------------  -----------------
         O            0.188888357159     2.213646907029    -0.002983190405    15.994914619570
         N           -0.215332642841    -0.068766092971    -0.002975190405    14.003074004430
         C           -1.670962642841     0.189711907029    -0.002977190405    12.000000000000
         C           -2.312352642841    -0.350096092971     1.269652809595    12.000000000000
         C           -2.288466442841    -0.448076592971    -1.241635990405    12.000000000000
         C            0.644317357159     1.059839907029    -0.002978190405    12.000000000000
         C            0.244238357159    -1.356944092971    -0.002966190405    12.000000000000
         C            2.050899357159     0.723274907029    -0.002976190405    12.000000000000
         C            1.580456357159    -1.647149092971    -0.002962190405    12.000000000000
         C            2.501422357159    -0.568931092971    -0.002968190405    12.000000000000
         H           -1.736783642841     1.279344907029    -0.002996190405     1.007825032230
         H           -3.367216642841    -0.061132092971     1.301959809595     1.007825032230
         H           -2.262965642841    -1.442391092971     1.316909809595     1.007825032230
         H           -1.814692642841     0.060503907029     2.151902809595     1.007825032230
         H           -1.814701642841     0.060417907029    -2.157852190405     1.007825032230
         H           -3.367222642841    -0.061171092971    -1.307897190405     1.007825032230
         H           -2.262984642841    -1.442439092971    -1.322797190405     1.007825032230
         H           -0.516386642841    -2.131123092971    -0.002961190405     1.007825032230
         H            2.733167357159     1.567382907029    -0.002980190405     1.007825032230
         H            1.908361357159    -2.680440092971    -0.002954190405     1.007825032230
         H            3.570749357159    -0.768692092971    -0.002965190405     1.007825032230

  Basis Set: AUG-CC-PVTZ
    Blend: AUG-CC-PVTZ
  Basis Set: (AUG-CC-PVTZ AUX)
    Blend: AUG-CC-PVTZ-JKFIT
	 Reference Energy          =    -438.8041657004137619 [Eh]
	 Singles Energy            =      -0.0000000000000000 [Eh]
	 Same-Spin Energy          =      -0.4683185670463667 [Eh]
	 Opposite-Spin Energy      =      -1.4980878529817421 [Eh]
	 Correlation Energy        =      -1.9664064200281088 [Eh]
	 Total Energy              =    -440.7705721204418978 [Eh]

	 ================> DF-SCS-MP2 Energies <==================
	-----------------------------------------------------------
	 SCS Same-Spin Scale       =       0.3333333333333333 [-]
	 SCS Opposite-Spin Scale   =       1.2000000000000000 [-]
	 SCS Same-Spin Energy      =      -0.1561061890154556 [Eh]
	 SCS Opposite-Spin Energy  =      -1.7977054235780905 [Eh]
	 SCS Correlation Energy    =      -1.9538116125935461 [Eh]
	 SCS Total Energy          =    -440.7579773130073022 [Eh]
	-----------------------------------------------------------

  Dipole Moment: [D]
     X:    -0.6592      Y:    -3.9099      Z:     0.0137     Total:     3.9651

*** Psi4 exiting successfully. Buy a developer a beer!
