                               Psi4 1.4a3.dev225

  ==> Input File <==

--------------------------------------------------------------------------
#psi4
#
memory 32 gb

molecule  {
0 1
  O        0.2506850     2.2433030    -0.0000120
  N       -0.1535360    -0.0391100    -0.0000040
  C       -1.6091660     0.2193680    -0.0000060
  C       -2.2295120    -0.3027289     1.2308691
  C       -2.2505640    -0.3204870    -1.2726120
  C        0.7061140     1.0894960    -0.0000070
  C        0.3060350    -1.3272880     0.0000050
  C        2.1126960     0.7529310    -0.0000050
  C        1.6422530    -1.6174930     0.0000090
  C        2.5632190    -0.5392750     0.0000030
  H       -1.6749870     1.3090010    -0.0000250
  H       -3.3054200    -0.0314760     1.3049310
  H       -2.2011690    -1.4127350     1.3198810
  H       -1.7528960     0.0901600     2.1548740
  H       -1.7529050     0.0900740    -2.1548810
  H       -3.3054260    -0.0315150    -1.3049260
  H       -2.2011880    -1.4127830    -1.3198260
  H       -0.4545900    -2.1014670     0.0000100
  H        2.7949640     1.5970390    -0.0000090
  H        1.9701580    -2.6507840     0.0000170
  H        3.6325460    -0.7390360     0.0000060
units angstrom
no_reorient  #important for SAPT in psi4, default
symmetry c1  #important for SAPT in psi4, default
}

set PROPERTIES_ORIGIN ["COM"]
properties('MP2/aug-cc-pvtz', properties = ['dipole'])
--------------------------------------------------------------------------

    Molecular point group: c1
  Charge       = 0
  Multiplicity = 1
  Basis Set: AUG-CC-PVTZ
    Blend: AUG-CC-PVTZ
  Basis Set: (AUG-CC-PVTZ AUX)
    Blend: AUG-CC-PVTZ-JKFIT

    Orbital Energies [Eh]
    ---------------------

    Doubly Occupied:

       1A    -20.505572     2A    -15.621368     3A    -11.350074
       4A    -11.305624     5A    -11.272082     6A    -11.268972
       7A    -11.238295     8A    -11.235244     9A    -11.231183
      10A    -11.228847    11A     -1.367253    12A     -1.278451
      13A     -1.124740    14A     -1.055955    15A     -1.022602
      16A     -0.950582    17A     -0.892814    18A     -0.855860
      19A     -0.803541    20A     -0.712561    21A     -0.700217
      22A     -0.656829    23A     -0.641380    24A     -0.630254
      25A     -0.614573    26A     -0.604548    27A     -0.564140
      28A     -0.560107    29A     -0.544641    30A     -0.543877
      31A     -0.522369    32A     -0.506241    33A     -0.484672
      34A     -0.473904    35A     -0.417614    36A     -0.407698
      37A     -0.307280

  @DF-RHF Final Energy:  -438.81489162874317

   => Energetics <=

    Nuclear Repulsion Energy =            528.8344857245866706
    One-Electron Energy =               -1644.2948188055252103
    Two-Electron Energy =                 676.6454414521954277
    Total Energy =                       -438.8148916287432257
  Basis Set: (AUG-CC-PVTZ AUX)
    Blend: AUG-CC-PVTZ-RI
    Molecular point group: c1

    Geometry (in Angstrom), charge = 0, multiplicity = 1:

       Center              X                  Y                   Z               Mass
    ------------   -----------------  -----------------  -----------------  -----------------
         O            0.189137856619     2.203523664693     0.003643584244    15.994914619570
         N           -0.215083143381    -0.078889335307     0.003651584244    14.003074004430
         C           -1.670713143381     0.179588664693     0.003649584244    12.000000000000
         C           -2.291059143381    -0.342508235307     1.234524684244    12.000000000000
         C           -2.312111143381    -0.360266335307    -1.268956415756    12.000000000000
         C            0.644566856619     1.049716664693     0.003648584244    12.000000000000
         C            0.244487856619    -1.367067335307     0.003660584244    12.000000000000
         C            2.051148856619     0.713151664693     0.003650584244    12.000000000000
         C            1.580705856619    -1.657272335307     0.003664584244    12.000000000000
         C            2.501671856619    -0.579054335307     0.003658584244    12.000000000000
         H           -1.736534143381     1.269221664693     0.003630584244     1.007825032230
         H           -3.366967143381    -0.071255335307     1.308586584244     1.007825032230
         H           -2.262716143381    -1.452514335307     1.323536584244     1.007825032230
         H           -1.814443143381     0.050380664693     2.158529584244     1.007825032230
         H           -1.814452143381     0.050294664693    -2.151225415756     1.007825032230
         H           -3.366973143381    -0.071294335307    -1.301270415756     1.007825032230
         H           -2.262735143381    -1.452562335307    -1.316170415756     1.007825032230
         H           -0.516137143381    -2.141246335307     0.003665584244     1.007825032230
         H            2.733416856619     1.557259664693     0.003646584244     1.007825032230
         H            1.908610856619    -2.690563335307     0.003672584244     1.007825032230
         H            3.570998856619    -0.778815335307     0.003661584244     1.007825032230

  Basis Set: AUG-CC-PVTZ
    Blend: AUG-CC-PVTZ
  Basis Set: (AUG-CC-PVTZ AUX)
    Blend: AUG-CC-PVTZ-JKFIT
	 Reference Energy          =    -438.8148916287431689 [Eh]
	 Singles Energy            =      -0.0000000000000000 [Eh]
	 Same-Spin Energy          =      -0.4684174310149513 [Eh]
	 Opposite-Spin Energy      =      -1.4977325364346525 [Eh]
	 Correlation Energy        =      -1.9661499674496037 [Eh]
	 Total Energy              =    -440.7810415961927788 [Eh]

	 ================> DF-SCS-MP2 Energies <==================
	-----------------------------------------------------------
	 SCS Same-Spin Scale       =       0.3333333333333333 [-]
	 SCS Opposite-Spin Scale   =       1.2000000000000000 [-]
	 SCS Same-Spin Energy      =      -0.1561391436716504 [Eh]
	 SCS Opposite-Spin Energy  =      -1.7972790437215831 [Eh]
	 SCS Correlation Energy    =      -1.9534181873932335 [Eh]
	 SCS Total Energy          =    -440.7683098161364228 [Eh]
	-----------------------------------------------------------

  Dipole Moment: [D]
     X:    -0.6690      Y:    -3.8665      Z:     0.0095     Total:     3.9239

*** Psi4 exiting successfully. Buy a developer a beer!
