                               Psi4 1.4a3.dev225

  ==> Input File <==

--------------------------------------------------------------------------
#psi4
#
memory 32 gb

molecule  {
0 1
  O        0.2506850     2.2433030    -0.0000120
  N       -0.1535360    -0.0391100    -0.0000040
  C       -1.6091660     0.2193680    -0.0000060
  C       -2.2505560    -0.3204400     1.2726240
  C       -2.2505640    -0.3204870    -1.2726120
  C        0.7061140     1.0894960    -0.0000070
  C        0.3060350    -1.3272880     0.0000050
  C        2.1126960     0.7529310    -0.0000050
  C        1.6422530    -1.6174930     0.0000090
  C        2.5632190    -0.5392750     0.0000030
  H       -1.6749870     1.3090010    -0.0000250
  H       -3.3054200    -0.0314760     1.3049310
  H       -2.2011690    -1.4127350     1.3198810
  H       -1.7437896     0.0976733     2.1710178
  H       -1.7529050     0.0900740    -2.1548810
  H       -3.3054260    -0.0315150    -1.3049260
  H       -2.2011880    -1.4127830    -1.3198260
  H       -0.4545900    -2.1014670     0.0000100
  H        2.7949640     1.5970390    -0.0000090
  H        1.9701580    -2.6507840     0.0000170
  H        3.6325460    -0.7390360     0.0000060
units angstrom
no_reorient  #important for SAPT in psi4, default
symmetry c1  #important for SAPT in psi4, default
}

set PROPERTIES_ORIGIN ["COM"]
properties('MP2/aug-cc-pvtz', properties = ['dipole'])
--------------------------------------------------------------------------

    Molecular point group: c1
  Charge       = 0
  Multiplicity = 1
  Basis Set: AUG-CC-PVTZ
    Blend: AUG-CC-PVTZ
  Basis Set: (AUG-CC-PVTZ AUX)
    Blend: AUG-CC-PVTZ-JKFIT

    Orbital Energies [Eh]
    ---------------------

    Doubly Occupied:

       1A    -20.505424     2A    -15.621474     3A    -11.349950
       4A    -11.305636     5A    -11.274369     6A    -11.268923
       7A    -11.238321     8A    -11.235236     9A    -11.231135
      10A    -11.228943    11A     -1.366985    12A     -1.277600
      13A     -1.122496    14A     -1.051061    15A     -1.022517
      16A     -0.949487    17A     -0.893160    18A     -0.855829
      19A     -0.803649    20A     -0.711475    21A     -0.699497
      22A     -0.655224    23A     -0.640907    24A     -0.628198
      25A     -0.611435    26A     -0.604269    27A     -0.564432
      28A     -0.561777    29A     -0.547815    30A     -0.543673
      31A     -0.524361    32A     -0.503324    33A     -0.486729
      34A     -0.473732    35A     -0.417750    36A     -0.406656
      37A     -0.307142

  @DF-RHF Final Energy:  -438.81745718340824

   => Energetics <=

    Nuclear Repulsion Energy =            527.8352794337004070
    One-Electron Energy =               -1642.3242916556503133
    Two-Electron Energy =                 675.6715550385416691
    Total Energy =                       -438.8174571834082371
  Basis Set: (AUG-CC-PVTZ AUX)
    Blend: AUG-CC-PVTZ-RI
    Molecular point group: c1

    Geometry (in Angstrom), charge = 0, multiplicity = 1:

       Center              X                  Y                   Z               Mass
    ------------   -----------------  -----------------  -----------------  -----------------
         O            0.190913047222     2.205018813744    -0.000130223672    15.994914619570
         N           -0.213307952778    -0.077394186256    -0.000122223672    14.003074004430
         C           -1.668937952778     0.181083813744    -0.000124223672    12.000000000000
         C           -2.310327952778    -0.358724186256     1.272505776328    12.000000000000
         C           -2.310335952778    -0.358771186256    -1.272730223672    12.000000000000
         C            0.646342047222     1.051211813744    -0.000125223672    12.000000000000
         C            0.246263047222    -1.365572186256    -0.000113223672    12.000000000000
         C            2.052924047222     0.714646813744    -0.000123223672    12.000000000000
         C            1.582481047222    -1.655777186256    -0.000109223672    12.000000000000
         C            2.503447047222    -0.577559186256    -0.000115223672    12.000000000000
         H           -1.734758952778     1.270716813744    -0.000143223672     1.007825032230
         H           -3.365191952778    -0.069760186256     1.304812776328     1.007825032230
         H           -2.260940952778    -1.451019186256     1.319762776328     1.007825032230
         H           -1.803561552778     0.059389113744     2.170899576328     1.007825032230
         H           -1.812676952778     0.051789813744    -2.154999223672     1.007825032230
         H           -3.365197952778    -0.069799186256    -1.305044223672     1.007825032230
         H           -2.260959952778    -1.451067186256    -1.319944223672     1.007825032230
         H           -0.514361952778    -2.139751186256    -0.000108223672     1.007825032230
         H            2.735192047222     1.558754813744    -0.000127223672     1.007825032230
         H            1.910386047222    -2.689068186256    -0.000101223672     1.007825032230
         H            3.572774047222    -0.777320186256    -0.000112223672     1.007825032230

  Basis Set: AUG-CC-PVTZ
    Blend: AUG-CC-PVTZ
  Basis Set: (AUG-CC-PVTZ AUX)
    Blend: AUG-CC-PVTZ-JKFIT
	 Reference Energy          =    -438.8174571834082371 [Eh]
	 Singles Energy            =      -0.0000000000000000 [Eh]
	 Same-Spin Energy          =      -0.4679704735710351 [Eh]
	 Opposite-Spin Energy      =      -1.4974118602161854 [Eh]
	 Correlation Energy        =      -1.9653823337872205 [Eh]
	 Total Energy              =    -440.7828395171954412 [Eh]

	 ================> DF-SCS-MP2 Energies <==================
	-----------------------------------------------------------
	 SCS Same-Spin Scale       =       0.3333333333333333 [-]
	 SCS Opposite-Spin Scale   =       1.2000000000000000 [-]
	 SCS Same-Spin Energy      =      -0.1559901578570117 [Eh]
	 SCS Opposite-Spin Energy  =      -1.7968942322594226 [Eh]
	 SCS Correlation Energy    =      -1.9528843901164343 [Eh]
	 SCS Total Energy          =    -440.7703415735246608 [Eh]
	-----------------------------------------------------------

  Dipole Moment: [D]
     X:    -0.6678      Y:    -3.8714      Z:    -0.0097     Total:     3.9285

*** Psi4 exiting successfully. Buy a developer a beer!
