                               Psi4 1.4a3.dev225

  ==> Input File <==

--------------------------------------------------------------------------
#psi4
#
memory 32 gb

molecule  {
0 1
  O        0.2506850     2.2433030    -0.0000120
  N       -0.1535360    -0.0391100    -0.0000040
  C       -1.6091660     0.2193680    -0.0000060
  C       -2.2505560    -0.3204400     1.2726240
  C       -2.2505640    -0.3204870    -1.2726120
  C        0.7061140     1.0894960    -0.0000070
  C        0.3060350    -1.3272880     0.0000050
  C        2.1126960     0.7529310    -0.0000050
  C        1.6422530    -1.6174930     0.0000090
  C        2.5632190    -0.5392750     0.0000030
  H       -1.6749870     1.3090010    -0.0000250
  H       -3.3054200    -0.0314760     1.3049310
  H       -2.2011690    -1.4127350     1.3198810
  H       -1.7528960     0.0901600     2.1548740
  H       -1.7437986     0.0975866    -2.1710252
  H       -3.3054260    -0.0315150    -1.3049260
  H       -2.2011880    -1.4127830    -1.3198260
  H       -0.4545900    -2.1014670     0.0000100
  H        2.7949640     1.5970390    -0.0000090
  H        1.9701580    -2.6507840     0.0000170
  H        3.6325460    -0.7390360     0.0000060
units angstrom
no_reorient  #important for SAPT in psi4, default
symmetry c1  #important for SAPT in psi4, default
}

set PROPERTIES_ORIGIN ["COM"]
properties('MP2/aug-cc-pvtz', properties = ['dipole'])
--------------------------------------------------------------------------

    Molecular point group: c1
  Charge       = 0
  Multiplicity = 1
  Basis Set: AUG-CC-PVTZ
    Blend: AUG-CC-PVTZ
  Basis Set: (AUG-CC-PVTZ AUX)
    Blend: AUG-CC-PVTZ-JKFIT

    Orbital Energies [Eh]
    ---------------------

    Doubly Occupied:

       1A    -20.505424     2A    -15.621474     3A    -11.349950
       4A    -11.305636     5A    -11.274369     6A    -11.268923
       7A    -11.238321     8A    -11.235236     9A    -11.231135
      10A    -11.228943    11A     -1.366985    12A     -1.277600
      13A     -1.122496    14A     -1.051061    15A     -1.022517
      16A     -0.949487    17A     -0.893160    18A     -0.855829
      19A     -0.803649    20A     -0.711475    21A     -0.699497
      22A     -0.655224    23A     -0.640907    24A     -0.628198
      25A     -0.611435    26A     -0.604269    27A     -0.564432
      28A     -0.561777    29A     -0.547815    30A     -0.543673
      31A     -0.524361    32A     -0.503324    33A     -0.486729
      34A     -0.473732    35A     -0.417750    36A     -0.406656
      37A     -0.307142

  @DF-RHF Final Energy:  -438.81745718000565

   => Energetics <=

    Nuclear Repulsion Energy =            527.8352790581827776
    One-Electron Energy =               -1642.3242908569898191
    Two-Electron Energy =                 675.6715546188013377
    Total Energy =                       -438.8174571800057038
  Basis Set: (AUG-CC-PVTZ AUX)
    Blend: AUG-CC-PVTZ-RI
    Molecular point group: c1

    Geometry (in Angstrom), charge = 0, multiplicity = 1:

       Center              X                  Y                   Z               Mass
    ------------   -----------------  -----------------  -----------------  -----------------
         O            0.190913047222     2.205018818890     0.000107153699    15.994914619570
         N           -0.213307952778    -0.077394181110     0.000115153699    14.003074004430
         C           -1.668937952778     0.181083818890     0.000113153699    12.000000000000
         C           -2.310327952778    -0.358724181110     1.272743153699    12.000000000000
         C           -2.310335952778    -0.358771181110    -1.272492846301    12.000000000000
         C            0.646342047222     1.051211818890     0.000112153699    12.000000000000
         C            0.246263047222    -1.365572181110     0.000124153699    12.000000000000
         C            2.052924047222     0.714646818890     0.000114153699    12.000000000000
         C            1.582481047222    -1.655777181110     0.000128153699    12.000000000000
         C            2.503447047222    -0.577559181110     0.000122153699    12.000000000000
         H           -1.734758952778     1.270716818890     0.000094153699     1.007825032230
         H           -3.365191952778    -0.069760181110     1.305050153699     1.007825032230
         H           -2.260940952778    -1.451019181110     1.320000153699     1.007825032230
         H           -1.812667952778     0.051875818890     2.154993153699     1.007825032230
         H           -1.803570552778     0.059302418890    -2.170906046301     1.007825032230
         H           -3.365197952778    -0.069799181110    -1.304806846301     1.007825032230
         H           -2.260959952778    -1.451067181110    -1.319706846301     1.007825032230
         H           -0.514361952778    -2.139751181110     0.000129153699     1.007825032230
         H            2.735192047222     1.558754818890     0.000110153699     1.007825032230
         H            1.910386047222    -2.689068181110     0.000136153699     1.007825032230
         H            3.572774047222    -0.777320181110     0.000125153699     1.007825032230

  Basis Set: AUG-CC-PVTZ
    Blend: AUG-CC-PVTZ
  Basis Set: (AUG-CC-PVTZ AUX)
    Blend: AUG-CC-PVTZ-JKFIT
	 Reference Energy          =    -438.8174571800056469 [Eh]
	 Singles Energy            =      -0.0000000000000000 [Eh]
	 Same-Spin Energy          =      -0.4679704730368466 [Eh]
	 Opposite-Spin Energy      =      -1.4974118598340986 [Eh]
	 Correlation Energy        =      -1.9653823328709452 [Eh]
	 Total Energy              =    -440.7828395128765919 [Eh]

	 ================> DF-SCS-MP2 Energies <==================
	-----------------------------------------------------------
	 SCS Same-Spin Scale       =       0.3333333333333333 [-]
	 SCS Opposite-Spin Scale   =       1.2000000000000000 [-]
	 SCS Same-Spin Energy      =      -0.1559901576789489 [Eh]
	 SCS Opposite-Spin Energy  =      -1.7968942318009182 [Eh]
	 SCS Correlation Energy    =      -1.9528843894798671 [Eh]
	 SCS Total Energy          =    -440.7703415694855380 [Eh]
	-----------------------------------------------------------

  Dipole Moment: [D]
     X:    -0.6678      Y:    -3.8714      Z:     0.0097     Total:     3.9285

*** Psi4 exiting successfully. Buy a developer a beer!
