                               Psi4 1.4a3.dev225

  ==> Input File <==

--------------------------------------------------------------------------
#psi4
#
memory 32 gb

molecule  {
0 1
  O        0.2506850     2.2433030    -0.0000120
  N       -0.1535360    -0.0391100    -0.0000040
  C       -1.6091660     0.2193680    -0.0000060
  C       -2.2505560    -0.3204400     1.2726240
  C       -2.2505640    -0.3204870    -1.2726120
  C        0.7061140     1.0894960    -0.0000070
  C        0.3060350    -1.3272880     0.0000050
  C        2.1126960     0.7529310    -0.0000050
  C        1.6422530    -1.6174930     0.0000090
  C        2.6281671    -0.4632372     0.0000026
  H       -1.6749870     1.3090010    -0.0000250
  H       -3.3054200    -0.0314760     1.3049310
  H       -2.2011690    -1.4127350     1.3198810
  H       -1.7528960     0.0901600     2.1548740
  H       -1.7529050     0.0900740    -2.1548810
  H       -3.3054260    -0.0315150    -1.3049260
  H       -2.2011880    -1.4127830    -1.3198260
  H       -0.4545900    -2.1014670     0.0000100
  H        2.7949640     1.5970390    -0.0000090
  H        1.9701580    -2.6507840     0.0000170
  H        3.6325460    -0.7390360     0.0000060
units angstrom
no_reorient  #important for SAPT in psi4, default
symmetry c1  #important for SAPT in psi4, default
}

set PROPERTIES_ORIGIN ["COM"]
properties('MP2/aug-cc-pvtz', properties = ['dipole'])
--------------------------------------------------------------------------

    Molecular point group: c1
  Charge       = 0
  Multiplicity = 1
  Basis Set: AUG-CC-PVTZ
    Blend: AUG-CC-PVTZ
  Basis Set: (AUG-CC-PVTZ AUX)
    Blend: AUG-CC-PVTZ-JKFIT

    Orbital Energies [Eh]
    ---------------------

    Doubly Occupied:

       1A    -20.512625     2A    -15.615914     3A    -11.355890
       4A    -11.299136     5A    -11.272657     6A    -11.267605
       7A    -11.242378     8A    -11.235047     9A    -11.227257
      10A    -11.227242    11A     -1.370590    12A     -1.275628
      13A     -1.118204    14A     -1.052789    15A     -1.019750
      16A     -0.949193    17A     -0.888286    18A     -0.858829
      19A     -0.803219    20A     -0.711169    21A     -0.694636
      22A     -0.664303    23A     -0.642730    24A     -0.627020
      25A     -0.611010    26A     -0.606341    27A     -0.576973
      28A     -0.560848    29A     -0.547520    30A     -0.530780
      31A     -0.517760    32A     -0.504237    33A     -0.482021
      34A     -0.469775    35A     -0.423536    36A     -0.409171
      37A     -0.311209

  @DF-RHF Final Energy:  -438.80945431964318

   => Energetics <=

    Nuclear Repulsion Energy =            527.0516034946368791
    One-Electron Energy =               -1640.7555625745928864
    Two-Electron Energy =                 674.8945047603127705
    Total Energy =                       -438.8094543196431232
  Basis Set: (AUG-CC-PVTZ AUX)
    Blend: AUG-CC-PVTZ-RI
    Molecular point group: c1

    Geometry (in Angstrom), charge = 0, multiplicity = 1:

       Center              X                  Y                   Z               Mass
    ------------   -----------------  -----------------  -----------------  -----------------
         O            0.185294600265     2.198417889596    -0.000011501442    15.994914619570
         N           -0.218926399735    -0.083995110404    -0.000003501442    14.003074004430
         C           -1.674556399735     0.174482889596    -0.000005501442    12.000000000000
         C           -2.315946399735    -0.365325110404     1.272624498558    12.000000000000
         C           -2.315954399735    -0.365372110404    -1.272611501442    12.000000000000
         C            0.640723600265     1.044610889596    -0.000006501442    12.000000000000
         C            0.240644600265    -1.372173110404     0.000005498558    12.000000000000
         C            2.047305600265     0.708045889596    -0.000004501442    12.000000000000
         C            1.576862600265    -1.662378110404     0.000009498558    12.000000000000
         C            2.562776700265    -0.508122310404     0.000003098558    12.000000000000
         H           -1.740377399735     1.264115889596    -0.000024501442     1.007825032230
         H           -3.370810399735    -0.076361110404     1.304931498558     1.007825032230
         H           -2.266559399735    -1.457620110404     1.319881498558     1.007825032230
         H           -1.818286399735     0.045274889596     2.154874498558     1.007825032230
         H           -1.818295399735     0.045188889596    -2.154880501442     1.007825032230
         H           -3.370816399735    -0.076400110404    -1.304925501442     1.007825032230
         H           -2.266578399735    -1.457668110404    -1.319825501442     1.007825032230
         H           -0.519980399735    -2.146352110404     0.000010498558     1.007825032230
         H            2.729573600265     1.552153889596    -0.000008501442     1.007825032230
         H            1.904767600265    -2.695669110404     0.000017498558     1.007825032230
         H            3.567155600265    -0.783921110404     0.000006498558     1.007825032230

  Basis Set: AUG-CC-PVTZ
    Blend: AUG-CC-PVTZ
  Basis Set: (AUG-CC-PVTZ AUX)
    Blend: AUG-CC-PVTZ-JKFIT
	 Reference Energy          =    -438.8094543196431800 [Eh]
	 Singles Energy            =      -0.0000000000000000 [Eh]
	 Same-Spin Energy          =      -0.4661785453021559 [Eh]
	 Opposite-Spin Energy      =      -1.4965823933547378 [Eh]
	 Correlation Energy        =      -1.9627609386568936 [Eh]
	 Total Energy              =    -440.7722152583000934 [Eh]

	 ================> DF-SCS-MP2 Energies <==================
	-----------------------------------------------------------
	 SCS Same-Spin Scale       =       0.3333333333333333 [-]
	 SCS Opposite-Spin Scale   =       1.2000000000000000 [-]
	 SCS Same-Spin Energy      =      -0.1553928484340519 [Eh]
	 SCS Opposite-Spin Energy  =      -1.7958988720256852 [Eh]
	 SCS Correlation Energy    =      -1.9512917204597371 [Eh]
	 SCS Total Energy          =    -440.7607460401029016 [Eh]
	-----------------------------------------------------------

  Dipole Moment: [D]
     X:    -0.5293      Y:    -3.6760      Z:     0.0000     Total:     3.7139

*** Psi4 exiting successfully. Buy a developer a beer!
