                               Psi4 1.4a3.dev225

  ==> Input File <==

--------------------------------------------------------------------------
#psi4
#
memory 32 gb

molecule  {
0 1
  O        0.2506850     2.2433030    -0.0000120
  N       -0.1535360    -0.0391100    -0.0000040
  C       -1.6091660     0.2193680    -0.0000060
  C       -2.2505560    -0.3204400     1.2726240
  C       -2.2505640    -0.3204870    -1.2726120
  C        0.7061140     1.0894960    -0.0000070
  C        0.3060350    -1.3272880     0.0000050
  C        2.1126960     0.7529310    -0.0000050
  C        1.6617974    -1.6217377     0.0000091
  C        2.5632190    -0.5392750     0.0000030
  H       -1.6749870     1.3090010    -0.0000250
  H       -3.3054200    -0.0314760     1.3049310
  H       -2.2011690    -1.4127350     1.3198810
  H       -1.7528960     0.0901600     2.1548740
  H       -1.7529050     0.0900740    -2.1548810
  H       -3.3054260    -0.0315150    -1.3049260
  H       -2.2011880    -1.4127830    -1.3198260
  H       -0.4545900    -2.1014670     0.0000100
  H        2.7949640     1.5970390    -0.0000090
  H        1.9701580    -2.6507840     0.0000170
  H        3.6325460    -0.7390360     0.0000060
units angstrom
no_reorient  #important for SAPT in psi4, default
symmetry c1  #important for SAPT in psi4, default
}

set PROPERTIES_ORIGIN ["COM"]
properties('MP2/aug-cc-pvtz', properties = ['dipole'])
--------------------------------------------------------------------------

    Molecular point group: c1
  Charge       = 0
  Multiplicity = 1
  Basis Set: AUG-CC-PVTZ
    Blend: AUG-CC-PVTZ
  Basis Set: (AUG-CC-PVTZ AUX)
    Blend: AUG-CC-PVTZ-JKFIT

    Orbital Energies [Eh]
    ---------------------

    Doubly Occupied:

       1A    -20.504787     2A    -15.623642     3A    -11.349562
       4A    -11.309631     5A    -11.274906     6A    -11.267790
       7A    -11.239000     8A    -11.234078     9A    -11.229361
      10A    -11.229345    11A     -1.366862    12A     -1.277939
      13A     -1.122385    14A     -1.052188    15A     -1.020223
      16A     -0.951245    17A     -0.894505    18A     -0.856141
      19A     -0.803750    20A     -0.711717    21A     -0.699556
      22A     -0.656278    23A     -0.641844    24A     -0.628401
      25A     -0.614065    26A     -0.602764    27A     -0.562914
      28A     -0.562510    29A     -0.548275    30A     -0.547212
      31A     -0.523767    32A     -0.505050    33A     -0.487665
      34A     -0.472757    35A     -0.417257    36A     -0.407667
      37A     -0.304653

  @DF-RHF Final Energy:  -438.81665895805071

   => Energetics <=

    Nuclear Repulsion Energy =            527.6387654288768090
    One-Electron Energy =               -1641.9074682483021661
    Two-Electron Energy =                 675.4520438613748183
    Total Energy =                       -438.8166589580506525
  Basis Set: (AUG-CC-PVTZ AUX)
    Blend: AUG-CC-PVTZ-RI
    Molecular point group: c1

    Geometry (in Angstrom), charge = 0, multiplicity = 1:

       Center              X                  Y                   Z               Mass
    ------------   -----------------  -----------------  -----------------  -----------------
         O            0.189269127895     2.205445621136    -0.000011545211    15.994914619570
         N           -0.214951872105    -0.076967378864    -0.000003545211    14.003074004430
         C           -1.670581872105     0.181510621136    -0.000005545211    12.000000000000
         C           -2.311971872105    -0.358297378864     1.272624454789    12.000000000000
         C           -2.311979872105    -0.358344378864    -1.272611545211    12.000000000000
         C            0.644698127895     1.051638621136    -0.000006545211    12.000000000000
         C            0.244619127895    -1.365145378864     0.000005454789    12.000000000000
         C            2.051280127895     0.715073621136    -0.000004545211    12.000000000000
         C            1.600381527895    -1.659595078864     0.000009554789    12.000000000000
         C            2.501803127895    -0.577132378864     0.000003454789    12.000000000000
         H           -1.736402872105     1.271143621136    -0.000024545211     1.007825032230
         H           -3.366835872105    -0.069333378864     1.304931454789     1.007825032230
         H           -2.262584872105    -1.450592378864     1.319881454789     1.007825032230
         H           -1.814311872105     0.052302621136     2.154874454789     1.007825032230
         H           -1.814320872105     0.052216621136    -2.154880545211     1.007825032230
         H           -3.366841872105    -0.069372378864    -1.304925545211     1.007825032230
         H           -2.262603872105    -1.450640378864    -1.319825545211     1.007825032230
         H           -0.516005872105    -2.139324378864     0.000010454789     1.007825032230
         H            2.733548127895     1.559181621136    -0.000008545211     1.007825032230
         H            1.908742127895    -2.688641378864     0.000017454789     1.007825032230
         H            3.571130127895    -0.776893378864     0.000006454789     1.007825032230

  Basis Set: AUG-CC-PVTZ
    Blend: AUG-CC-PVTZ
  Basis Set: (AUG-CC-PVTZ AUX)
    Blend: AUG-CC-PVTZ-JKFIT
	 Reference Energy          =    -438.8166589580507093 [Eh]
	 Singles Energy            =      -0.0000000000000000 [Eh]
	 Same-Spin Energy          =      -0.4683445627944511 [Eh]
	 Opposite-Spin Energy      =      -1.4976808990459149 [Eh]
	 Correlation Energy        =      -1.9660254618403661 [Eh]
	 Total Energy              =    -440.7826844198910976 [Eh]

	 ================> DF-SCS-MP2 Energies <==================
	-----------------------------------------------------------
	 SCS Same-Spin Scale       =       0.3333333333333333 [-]
	 SCS Opposite-Spin Scale   =       1.2000000000000000 [-]
	 SCS Same-Spin Energy      =      -0.1561148542648170 [Eh]
	 SCS Opposite-Spin Energy  =      -1.7972170788550978 [Eh]
	 SCS Correlation Energy    =      -1.9533319331199148 [Eh]
	 SCS Total Energy          =    -440.7699908911706075 [Eh]
	-----------------------------------------------------------

  Dipole Moment: [D]
     X:    -0.7065      Y:    -3.8893      Z:     0.0000     Total:     3.9530

*** Psi4 exiting successfully. Buy a developer a beer!
