                               Psi4 1.4a3.dev225

  ==> Input File <==

--------------------------------------------------------------------------
#psi4
#
memory 32 gb

molecule  {
0 1
  O        0.2506850     2.2433030    -0.0000120
  N       -0.1535360    -0.0391100    -0.0000040
  C       -1.6091660     0.2193680    -0.0000060
  C       -2.2505560    -0.3204400     1.2726240
  C       -2.2505640    -0.3204870    -1.2726120
  C        0.7061140     1.0894960    -0.0000070
  C        0.3060350    -1.3272880     0.0000050
  C        2.1126960     0.7529310    -0.0000050
  C        1.6422530    -1.6174930     0.0000090
  C        2.5632190    -0.5392750     0.0000030
  H       -1.6749870     1.3090010    -0.0000250
  H       -3.3054200    -0.0314760     1.3049310
  H       -2.2011690    -1.4127350     1.3198810
  H       -1.7528960     0.0901600     2.1548740
  H       -1.7529050     0.0900740    -2.1548810
  H       -3.3054260    -0.0315150    -1.3049260
  H       -2.2011880    -1.4127830    -1.3198260
  H       -0.4545900    -2.1014670     0.0000100
  H        2.7949640     1.5970390    -0.0000090
  H        1.9701580    -2.6507840     0.0000170
  H        3.6128861    -0.7353633     0.0000059
units angstrom
no_reorient  #important for SAPT in psi4, default
symmetry c1  #important for SAPT in psi4, default
}

set PROPERTIES_ORIGIN ["COM"]
properties('MP2/aug-cc-pvtz', properties = ['dipole'])
--------------------------------------------------------------------------

    Molecular point group: c1
  Charge       = 0
  Multiplicity = 1
  Basis Set: AUG-CC-PVTZ
    Blend: AUG-CC-PVTZ
  Basis Set: (AUG-CC-PVTZ AUX)
    Blend: AUG-CC-PVTZ-JKFIT

    Orbital Energies [Eh]
    ---------------------

    Doubly Occupied:

       1A    -20.505353     2A    -15.621409     3A    -11.349833
       4A    -11.305503     5A    -11.274132     6A    -11.266643
       7A    -11.238142     8A    -11.235127     9A    -11.228728
      10A    -11.228712    11A     -1.366917    12A     -1.277524
      13A     -1.122776    14A     -1.051530    15A     -1.022438
      16A     -0.950619    17A     -0.894009    18A     -0.856396
      19A     -0.804367    20A     -0.712126    21A     -0.699713
      22A     -0.656486    23A     -0.641759    24A     -0.628083
      25A     -0.612921    26A     -0.604295    27A     -0.565891
      28A     -0.562077    29A     -0.547884    30A     -0.543758
      31A     -0.524564    32A     -0.504549    33A     -0.486812
      34A     -0.473689    35A     -0.417767    36A     -0.406555
      37A     -0.307051

  @DF-RHF Final Energy:  -438.81811131653927

   => Energetics <=

    Nuclear Repulsion Energy =            528.0243714943878786
    One-Electron Energy =               -1642.6926866338696982
    Two-Electron Energy =                 675.8502038229426034
    Total Energy =                       -438.8181113165392162
  Basis Set: (AUG-CC-PVTZ AUX)
    Blend: AUG-CC-PVTZ-RI
    Molecular point group: c1

    Geometry (in Angstrom), charge = 0, multiplicity = 1:

       Center              X                  Y                   Z               Mass
    ------------   -----------------  -----------------  -----------------  -----------------
         O            0.191124533491     2.205047049359    -0.000011535722    15.994914619570
         N           -0.213096466509    -0.077365950641    -0.000003535722    14.003074004430
         C           -1.668726466509     0.181112049359    -0.000005535722    12.000000000000
         C           -2.310116466509    -0.358695950641     1.272624464278    12.000000000000
         C           -2.310124466509    -0.358742950641    -1.272611535722    12.000000000000
         C            0.646553533491     1.051240049359    -0.000006535722    12.000000000000
         C            0.246474533491    -1.365543950641     0.000005464278    12.000000000000
         C            2.053135533491     0.714675049359    -0.000004535722    12.000000000000
         C            1.582692533491    -1.655748950641     0.000009464278    12.000000000000
         C            2.503658533491    -0.577530950641     0.000003464278    12.000000000000
         H           -1.734547466509     1.270745049359    -0.000024535722     1.007825032230
         H           -3.364980466509    -0.069731950641     1.304931464278     1.007825032230
         H           -2.260729466509    -1.450990950641     1.319881464278     1.007825032230
         H           -1.812456466509     0.051904049359     2.154874464278     1.007825032230
         H           -1.812465466509     0.051818049359    -2.154880535722     1.007825032230
         H           -3.364986466509    -0.069770950641    -1.304925535722     1.007825032230
         H           -2.260748466509    -1.451038950641    -1.319825535722     1.007825032230
         H           -0.514150466509    -2.139722950641     0.000010464278     1.007825032230
         H            2.735403533491     1.558783049359    -0.000008535722     1.007825032230
         H            1.910597533491    -2.689039950641     0.000017464278     1.007825032230
         H            3.553325633491    -0.773619250641     0.000006364278     1.007825032230

  Basis Set: AUG-CC-PVTZ
    Blend: AUG-CC-PVTZ
  Basis Set: (AUG-CC-PVTZ AUX)
    Blend: AUG-CC-PVTZ-JKFIT
	 Reference Energy          =    -438.8181113165392730 [Eh]
	 Singles Energy            =      -0.0000000000000000 [Eh]
	 Same-Spin Energy          =      -0.4679286210835385 [Eh]
	 Opposite-Spin Energy      =      -1.4971342405273640 [Eh]
	 Correlation Energy        =      -1.9650628616109025 [Eh]
	 Total Energy              =    -440.7831741781501478 [Eh]

	 ================> DF-SCS-MP2 Energies <==================
	-----------------------------------------------------------
	 SCS Same-Spin Scale       =       0.3333333333333333 [-]
	 SCS Opposite-Spin Scale   =       1.2000000000000000 [-]
	 SCS Same-Spin Energy      =      -0.1559762070278461 [Eh]
	 SCS Opposite-Spin Energy  =      -1.7965610886328367 [Eh]
	 SCS Correlation Energy    =      -1.9525372956606828 [Eh]
	 SCS Total Energy          =    -440.7706486121999774 [Eh]
	-----------------------------------------------------------

  Dipole Moment: [D]
     X:    -0.6581      Y:    -3.8707      Z:     0.0000     Total:     3.9262

*** Psi4 exiting successfully. Buy a developer a beer!
