                               Psi4 1.4a3.dev225

  ==> Input File <==

--------------------------------------------------------------------------
#psi4
#
memory 32 gb

molecule  {
0 1
  O        0.2506850     2.2433030    -0.0000120
  N       -0.1535360    -0.0391100    -0.0000040
  C       -1.6091660     0.2193680    -0.0000060
  C       -2.2505560    -0.3204400     1.2726240
  C       -2.2805140    -0.1688080    -1.3118643
  C        0.7061140     1.0894960    -0.0000070
  C        0.3060350    -1.3272880     0.0000050
  C        2.1126960     0.7529310    -0.0000050
  C        1.6422530    -1.6174930     0.0000090
  C        2.5632190    -0.5392750     0.0000030
  H       -1.6749870     1.3090010    -0.0000250
  H       -3.3054200    -0.0314760     1.3049310
  H       -2.2011690    -1.4127350     1.3198810
  H       -1.7528960     0.0901600     2.1548740
  H       -1.7529050     0.0900740    -2.1548810
  H       -3.3054260    -0.0315150    -1.3049260
  H       -2.2011880    -1.4127830    -1.3198260
  H       -0.4545900    -2.1014670     0.0000100
  H        2.7949640     1.5970390    -0.0000090
  H        1.9701580    -2.6507840     0.0000170
  H        3.6325460    -0.7390360     0.0000060
units angstrom
no_reorient  #important for SAPT in psi4, default
symmetry c1  #important for SAPT in psi4, default
}

set PROPERTIES_ORIGIN ["COM"]
properties('MP2/aug-cc-pvtz', properties = ['dipole'])
--------------------------------------------------------------------------

    Molecular point group: c1
  Charge       = 0
  Multiplicity = 1
  Basis Set: AUG-CC-PVTZ
    Blend: AUG-CC-PVTZ
  Basis Set: (AUG-CC-PVTZ AUX)
    Blend: AUG-CC-PVTZ-JKFIT

    Orbital Energies [Eh]
    ---------------------

    Doubly Occupied:

       1A    -20.505867     2A    -15.623031     3A    -11.350515
       4A    -11.305552     5A    -11.274972     6A    -11.269276
       7A    -11.238133     8A    -11.235405     9A    -11.233847
      10A    -11.230760    11A     -1.367376    12A     -1.277778
      13A     -1.122617    14A     -1.052179    15A     -1.022496
      16A     -0.954781    17A     -0.892908    18A     -0.856765
      19A     -0.804546    20A     -0.711108    21A     -0.699566
      22A     -0.659353    23A     -0.642201    24A     -0.632165
      25A     -0.619079    26A     -0.604314    27A     -0.576426
      28A     -0.558628    29A     -0.547328    30A     -0.536340
      31A     -0.524954    32A     -0.516094    33A     -0.474932
      34A     -0.457640    35A     -0.416879    36A     -0.408352
      37A     -0.307445

  @DF-RHF Final Energy:  -438.79507774154200

   => Energetics <=

    Nuclear Repulsion Energy =            527.4361391752706822
    One-Electron Energy =               -1641.4392132743075763
    Two-Electron Energy =                 675.2079963574949488
    Total Energy =                       -438.7950777415419452
  Basis Set: (AUG-CC-PVTZ AUX)
    Blend: AUG-CC-PVTZ-RI
    Molecular point group: c1

    Geometry (in Angstrom), charge = 0, multiplicity = 1:

       Center              X                  Y                   Z               Mass
    ------------   -----------------  -----------------  -----------------  -----------------
         O            0.193601745289     2.191796445982     0.003424512828    15.994914619570
         N           -0.210619254711    -0.090616554018     0.003432512828    14.003074004430
         C           -1.666249254711     0.167861445982     0.003430512828    12.000000000000
         C           -2.307639254711    -0.371946554018     1.276060512828    12.000000000000
         C           -2.337597254711    -0.220314554018    -1.308427787172    12.000000000000
         C            0.649030745289     1.037989445982     0.003429512828    12.000000000000
         C            0.248951745289    -1.378794554018     0.003441512828    12.000000000000
         C            2.055612745289     0.701424445982     0.003431512828    12.000000000000
         C            1.585169745289    -1.668999554018     0.003445512828    12.000000000000
         C            2.506135745289    -0.590781554018     0.003439512828    12.000000000000
         H           -1.732070254711     1.257494445982     0.003411512828     1.007825032230
         H           -3.362503254711    -0.082982554018     1.308367512828     1.007825032230
         H           -2.258252254711    -1.464241554018     1.323317512828     1.007825032230
         H           -1.809979254711     0.038653445982     2.158310512828     1.007825032230
         H           -1.809988254711     0.038567445982    -2.151444487172     1.007825032230
         H           -3.362509254711    -0.083021554018    -1.301489487172     1.007825032230
         H           -2.258271254711    -1.464289554018    -1.316389487172     1.007825032230
         H           -0.511673254711    -2.152973554018     0.003446512828     1.007825032230
         H            2.737880745289     1.545532445982     0.003427512828     1.007825032230
         H            1.913074745289    -2.702290554018     0.003453512828     1.007825032230
         H            3.575462745289    -0.790542554018     0.003442512828     1.007825032230

  Basis Set: AUG-CC-PVTZ
    Blend: AUG-CC-PVTZ
  Basis Set: (AUG-CC-PVTZ AUX)
    Blend: AUG-CC-PVTZ-JKFIT
	 Reference Energy          =    -438.7950777415420021 [Eh]
	 Singles Energy            =      -0.0000000000000000 [Eh]
	 Same-Spin Energy          =      -0.4681673265758501 [Eh]
	 Opposite-Spin Energy      =      -1.4981078920410691 [Eh]
	 Correlation Energy        =      -1.9662752186169192 [Eh]
	 Total Energy              =    -440.7613529601589448 [Eh]

	 ================> DF-SCS-MP2 Energies <==================
	-----------------------------------------------------------
	 SCS Same-Spin Scale       =       0.3333333333333333 [-]
	 SCS Opposite-Spin Scale   =       1.2000000000000000 [-]
	 SCS Same-Spin Energy      =      -0.1560557755252834 [Eh]
	 SCS Opposite-Spin Energy  =      -1.7977294704492828 [Eh]
	 SCS Correlation Energy    =      -1.9537852459745662 [Eh]
	 SCS Total Energy          =    -440.7488629875165884 [Eh]
	-----------------------------------------------------------

  Dipole Moment: [D]
     X:    -0.6402      Y:    -3.7475      Z:     0.0263     Total:     3.8019

*** Psi4 exiting successfully. Buy a developer a beer!
