                               Psi4 1.4a3.dev225

  ==> Input File <==

--------------------------------------------------------------------------
#psi4
#
memory 32 gb

molecule  {
0 1
  O        0.2506850     2.2433030    -0.0000120
  N       -0.1535360    -0.0391100    -0.0000040
  C       -1.6091660     0.2193680    -0.0000060
  C       -2.2421384    -0.3133556     1.2559220
  C       -2.2505640    -0.3204870    -1.2726120
  C        0.7061140     1.0894960    -0.0000070
  C        0.3060350    -1.3272880     0.0000050
  C        2.1126960     0.7529310    -0.0000050
  C        1.6422530    -1.6174930     0.0000090
  C        2.5632190    -0.5392750     0.0000030
  H       -1.6749870     1.3090010    -0.0000250
  H       -3.3054200    -0.0314760     1.3049310
  H       -2.2011690    -1.4127350     1.3198810
  H       -1.7528960     0.0901600     2.1548740
  H       -1.7529050     0.0900740    -2.1548810
  H       -3.3054260    -0.0315150    -1.3049260
  H       -2.2011880    -1.4127830    -1.3198260
  H       -0.4545900    -2.1014670     0.0000100
  H        2.7949640     1.5970390    -0.0000090
  H        1.9701580    -2.6507840     0.0000170
  H        3.6325460    -0.7390360     0.0000060
units angstrom
no_reorient  #important for SAPT in psi4, default
symmetry c1  #important for SAPT in psi4, default
}

set PROPERTIES_ORIGIN ["COM"]
properties('MP2/aug-cc-pvtz', properties = ['dipole'])
--------------------------------------------------------------------------

    Molecular point group: c1
  Charge       = 0
  Multiplicity = 1
  Basis Set: AUG-CC-PVTZ
    Blend: AUG-CC-PVTZ
  Basis Set: (AUG-CC-PVTZ AUX)
    Blend: AUG-CC-PVTZ-JKFIT

    Orbital Energies [Eh]
    ---------------------

    Doubly Occupied:

       1A    -20.505481     2A    -15.621424     3A    -11.349998
       4A    -11.305624     5A    -11.273369     6A    -11.268944
       7A    -11.238310     8A    -11.235240     9A    -11.229647
      10A    -11.228782    11A     -1.367089    12A     -1.277919
      13A     -1.123338    14A     -1.053076    15A     -1.022555
      16A     -0.950583    17A     -0.893091    18A     -0.855874
      19A     -0.803765    20A     -0.711882    21A     -0.699789
      22A     -0.655997    23A     -0.641032    24A     -0.628917
      25A     -0.613541    26A     -0.604407    27A     -0.564183
      28A     -0.561199    29A     -0.546526    30A     -0.543806
      31A     -0.523511    32A     -0.505414    33A     -0.486335
      34A     -0.473983    35A     -0.417700    36A     -0.407097
      37A     -0.307198

  @DF-RHF Final Energy:  -438.81736407406936

   => Energetics <=

    Nuclear Repulsion Energy =            528.2813867805556356
    One-Electron Energy =               -1643.2042542409210455
    Two-Electron Energy =                 676.1055033862961636
    Total Energy =                       -438.8173640740693600
  Basis Set: (AUG-CC-PVTZ AUX)
    Blend: AUG-CC-PVTZ-RI
    Molecular point group: c1

    Geometry (in Angstrom), charge = 0, multiplicity = 1:

       Center              X                  Y                   Z               Mass
    ------------   -----------------  -----------------  -----------------  -----------------
         O            0.190243140455     2.204453899735     0.001450515325    15.994914619570
         N           -0.213977859545    -0.077959100265     0.001458515325    14.003074004430
         C           -1.669607859545     0.180518899735     0.001456515325    12.000000000000
         C           -2.302580259545    -0.352204700265     1.257384515325    12.000000000000
         C           -2.311005859545    -0.359336100265    -1.271149484675    12.000000000000
         C            0.645672140455     1.050646899735     0.001455515325    12.000000000000
         C            0.245593140455    -1.366137100265     0.001467515325    12.000000000000
         C            2.052254140455     0.714081899735     0.001457515325    12.000000000000
         C            1.581811140455    -1.656342100265     0.001471515325    12.000000000000
         C            2.502777140455    -0.578124100265     0.001465515325    12.000000000000
         H           -1.735428859545     1.270151899735     0.001437515325     1.007825032230
         H           -3.365861859545    -0.070325100265     1.306393515325     1.007825032230
         H           -2.261610859545    -1.451584100265     1.321343515325     1.007825032230
         H           -1.813337859545     0.051310899735     2.156336515325     1.007825032230
         H           -1.813346859545     0.051224899735    -2.153418484675     1.007825032230
         H           -3.365867859545    -0.070364100265    -1.303463484675     1.007825032230
         H           -2.261629859545    -1.451632100265    -1.318363484675     1.007825032230
         H           -0.515031859545    -2.140316100265     0.001472515325     1.007825032230
         H            2.734522140455     1.558189899735     0.001453515325     1.007825032230
         H            1.909716140455    -2.689633100265     0.001479515325     1.007825032230
         H            3.572104140455    -0.777885100265     0.001468515325     1.007825032230

  Basis Set: AUG-CC-PVTZ
    Blend: AUG-CC-PVTZ
  Basis Set: (AUG-CC-PVTZ AUX)
    Blend: AUG-CC-PVTZ-JKFIT
	 Reference Energy          =    -438.8173640740693600 [Eh]
	 Singles Energy            =      -0.0000000000000000 [Eh]
	 Same-Spin Energy          =      -0.4681219499659910 [Eh]
	 Opposite-Spin Energy      =      -1.4974164927718243 [Eh]
	 Correlation Energy        =      -1.9655384427378153 [Eh]
	 Total Energy              =    -440.7829025168071553 [Eh]

	 ================> DF-SCS-MP2 Energies <==================
	-----------------------------------------------------------
	 SCS Same-Spin Scale       =       0.3333333333333333 [-]
	 SCS Opposite-Spin Scale   =       1.2000000000000000 [-]
	 SCS Same-Spin Energy      =      -0.1560406499886637 [Eh]
	 SCS Opposite-Spin Energy  =      -1.7968997913261890 [Eh]
	 SCS Correlation Energy    =      -1.9529404413148528 [Eh]
	 SCS Total Energy          =    -440.7703045153842254 [Eh]
	-----------------------------------------------------------

  Dipole Moment: [D]
     X:    -0.6673      Y:    -3.8687      Z:     0.0044     Total:     3.9259

*** Psi4 exiting successfully. Buy a developer a beer!
