                               Psi4 1.4a3.dev225

  ==> Input File <==

--------------------------------------------------------------------------
#psi4
#
memory 32 gb

molecule  {
0 1
  O        0.2506850     2.2433030    -0.0000120
  N       -0.1535360    -0.0391100    -0.0000040
  C       -1.6091660     0.2193680    -0.0000060
  C       -2.2505560    -0.3204400     1.2726240
  C       -2.2505640    -0.3204870    -1.2726120
  C        0.7061140     1.0894960    -0.0000070
  C        0.3060350    -1.3272880     0.0000050
  C        2.1126960     0.7529310    -0.0000050
  C        1.6422530    -1.6174930     0.0000090
  C        2.6290613    -0.7281262     0.0000042
  H       -1.6749870     1.3090010    -0.0000250
  H       -3.3054200    -0.0314760     1.3049310
  H       -2.2011690    -1.4127350     1.3198810
  H       -1.7528960     0.0901600     2.1548740
  H       -1.7529050     0.0900740    -2.1548810
  H       -3.3054260    -0.0315150    -1.3049260
  H       -2.2011880    -1.4127830    -1.3198260
  H       -0.4545900    -2.1014670     0.0000100
  H        2.7949640     1.5970390    -0.0000090
  H        1.9701580    -2.6507840     0.0000170
  H        3.6325460    -0.7390360     0.0000060
units angstrom
no_reorient  #important for SAPT in psi4, default
symmetry c1  #important for SAPT in psi4, default
}

set PROPERTIES_ORIGIN ["COM"]
properties('MP2/aug-cc-pvtz', properties = ['dipole'])
--------------------------------------------------------------------------

    Molecular point group: c1
  Charge       = 0
  Multiplicity = 1
  Basis Set: AUG-CC-PVTZ
    Blend: AUG-CC-PVTZ
  Basis Set: (AUG-CC-PVTZ AUX)
    Blend: AUG-CC-PVTZ-JKFIT

    Orbital Energies [Eh]
    ---------------------

    Doubly Occupied:

       1A    -20.491902     2A    -15.634357     3A    -11.341511
       4A    -11.318669     5A    -11.279081     6A    -11.277255
       7A    -11.244285     8A    -11.239481     9A    -11.231811
      10A    -11.231795    11A     -1.360634    12A     -1.279113
      13A     -1.124789    14A     -1.056678    15A     -1.007264
      16A     -0.953542    17A     -0.910128    18A     -0.851476
      19A     -0.810646    20A     -0.722066    21A     -0.708418
      22A     -0.655809    23A     -0.639568    24A     -0.629125
      25A     -0.616822    26A     -0.601280    27A     -0.582414
      28A     -0.564206    29A     -0.547936    30A     -0.530676
      31A     -0.507951    32A     -0.505140    33A     -0.488837
      34A     -0.477972    35A     -0.407998    36A     -0.399752
      37A     -0.290018

  @DF-RHF Final Energy:  -438.76464392243412

   => Energetics <=

    Nuclear Repulsion Energy =            525.8354944269356110
    One-Electron Energy =               -1638.1594669160128888
    Two-Electron Energy =                 673.5593285666432166
    Total Energy =                       -438.7646439224340611
  Basis Set: (AUG-CC-PVTZ AUX)
    Blend: AUG-CC-PVTZ-RI
    Molecular point group: c1

    Geometry (in Angstrom), charge = 0, multiplicity = 1:

       Center              X                  Y                   Z               Mass
    ------------   -----------------  -----------------  -----------------  -----------------
         O            0.185216324208     2.221605617679    -0.000011641502    15.994914619570
         N           -0.219004675792    -0.060807382321    -0.000003641502    14.003074004430
         C           -1.674634675792     0.197670617679    -0.000005641502    12.000000000000
         C           -2.316024675792    -0.342137382321     1.272624358498    12.000000000000
         C           -2.316032675792    -0.342184382321    -1.272611641502    12.000000000000
         C            0.640645324208     1.067798617679    -0.000006641502    12.000000000000
         C            0.240566324208    -1.348985382321     0.000005358498    12.000000000000
         C            2.047227324208     0.731233617679    -0.000004641502    12.000000000000
         C            1.576784324208    -1.639190382321     0.000009358498    12.000000000000
         C            2.563592624208    -0.749823582321     0.000004558498    12.000000000000
         H           -1.740455675792     1.287303617679    -0.000024641502     1.007825032230
         H           -3.370888675792    -0.053173382321     1.304931358498     1.007825032230
         H           -2.266637675792    -1.434432382321     1.319881358498     1.007825032230
         H           -1.818364675792     0.068462617679     2.154874358498     1.007825032230
         H           -1.818373675792     0.068376617679    -2.154880641502     1.007825032230
         H           -3.370894675792    -0.053212382321    -1.304925641502     1.007825032230
         H           -2.266656675792    -1.434480382321    -1.319825641502     1.007825032230
         H           -0.520058675792    -2.123164382321     0.000010358498     1.007825032230
         H            2.729495324208     1.575341617679    -0.000008641502     1.007825032230
         H            1.904689324208    -2.672481382321     0.000017358498     1.007825032230
         H            3.567077324208    -0.760733382321     0.000006358498     1.007825032230

  Basis Set: AUG-CC-PVTZ
    Blend: AUG-CC-PVTZ
  Basis Set: (AUG-CC-PVTZ AUX)
    Blend: AUG-CC-PVTZ-JKFIT
	 Reference Energy          =    -438.7646439224341179 [Eh]
	 Singles Energy            =      -0.0000000000000000 [Eh]
	 Same-Spin Energy          =      -0.4729638556197228 [Eh]
	 Opposite-Spin Energy      =      -1.5045339584400643 [Eh]
	 Correlation Energy        =      -1.9774978140597872 [Eh]
	 Total Energy              =    -440.7421417364939202 [Eh]

	 ================> DF-SCS-MP2 Energies <==================
	-----------------------------------------------------------
	 SCS Same-Spin Scale       =       0.3333333333333333 [-]
	 SCS Opposite-Spin Scale   =       1.2000000000000000 [-]
	 SCS Same-Spin Energy      =      -0.1576546185399076 [Eh]
	 SCS Opposite-Spin Energy  =      -1.8054407501280771 [Eh]
	 SCS Correlation Energy    =      -1.9630953686679848 [Eh]
	 SCS Total Energy          =    -440.7277392911021252 [Eh]
	-----------------------------------------------------------

  Dipole Moment: [D]
     X:    -0.7586      Y:    -4.0537      Z:     0.0000     Total:     4.1241

*** Psi4 exiting successfully. Buy a developer a beer!
