                               Psi4 1.4a3.dev225

  ==> Input File <==

--------------------------------------------------------------------------
#psi4
#
memory 32 gb

molecule  {
0 1
  O        0.2506850     2.2433030    -0.0000120
  N       -0.1535360    -0.0391100    -0.0000040
  C       -1.6091660     0.2193680    -0.0000060
  C       -2.2505560    -0.3204400     1.2726240
  C       -2.2505640    -0.3204870    -1.2726120
  C        0.7061140     1.0894960    -0.0000070
  C        0.3060350    -1.3272880     0.0000050
  C        2.1126960     0.7529310    -0.0000050
  C        1.6422530    -1.6174930     0.0000090
  C        2.5632190    -0.5392750     0.0000030
  H       -1.6749870     1.3090010    -0.0000250
  H       -3.3054200    -0.0314760     1.3049310
  H       -2.2011690    -1.4127350     1.3198810
  H       -1.7528960     0.0901600     2.1548740
  H       -1.7608810     0.1251688    -2.1422239
  H       -3.3054260    -0.0315150    -1.3049260
  H       -2.2011880    -1.4127830    -1.3198260
  H       -0.4545900    -2.1014670     0.0000100
  H        2.7949640     1.5970390    -0.0000090
  H        1.9701580    -2.6507840     0.0000170
  H        3.6325460    -0.7390360     0.0000060
units angstrom
no_reorient  #important for SAPT in psi4, default
symmetry c1  #important for SAPT in psi4, default
}

set PROPERTIES_ORIGIN ["COM"]
properties('MP2/aug-cc-pvtz', properties = ['dipole'])
--------------------------------------------------------------------------

    Molecular point group: c1
  Charge       = 0
  Multiplicity = 1
  Basis Set: AUG-CC-PVTZ
    Blend: AUG-CC-PVTZ
  Basis Set: (AUG-CC-PVTZ AUX)
    Blend: AUG-CC-PVTZ-JKFIT

    Orbital Energies [Eh]
    ---------------------

    Doubly Occupied:

       1A    -20.505462     2A    -15.621468     3A    -11.349978
       4A    -11.305647     5A    -11.273933     6A    -11.268935
       7A    -11.238323     8A    -11.235242     9A    -11.228774
      10A    -11.228546    11A     -1.367024    12A     -1.277610
      13A     -1.122546    14A     -1.051314    15A     -1.022530
      16A     -0.950635    17A     -0.893194    18A     -0.855902
      19A     -0.803617    20A     -0.711346    21A     -0.699553
      22A     -0.655215    23A     -0.640943    24A     -0.628232
      25A     -0.613313    26A     -0.604373    27A     -0.564211
      28A     -0.563621    29A     -0.547245    30A     -0.543896
      31A     -0.524145    32A     -0.503432    33A     -0.487387
      34A     -0.473737    35A     -0.417777    36A     -0.406577
      37A     -0.307153

  @DF-RHF Final Energy:  -438.81780912846449

   => Energetics <=

    Nuclear Repulsion Energy =            527.9371523341219472
    One-Electron Energy =               -1642.5242542352609689
    Two-Electron Energy =                 675.7692927726745893
    Total Energy =                       -438.8178091284644324
  Basis Set: (AUG-CC-PVTZ AUX)
    Blend: AUG-CC-PVTZ-RI
    Molecular point group: c1

    Geometry (in Angstrom), charge = 0, multiplicity = 1:

       Center              X                  Y                   Z               Mass
    ------------   -----------------  -----------------  -----------------  -----------------
         O            0.191038634907     2.204816037978    -0.000104589886    15.994914619570
         N           -0.213182365093    -0.077596962022    -0.000096589886    14.003074004430
         C           -1.668812365093     0.180881037978    -0.000098589886    12.000000000000
         C           -2.310202365093    -0.358926962022     1.272531410114    12.000000000000
         C           -2.310210365093    -0.358973962022    -1.272704589886    12.000000000000
         C            0.646467634907     1.051009037978    -0.000099589886    12.000000000000
         C            0.246388634907    -1.365774962022    -0.000087589886    12.000000000000
         C            2.053049634907     0.714444037978    -0.000097589886    12.000000000000
         C            1.582606634907    -1.655979962022    -0.000083589886    12.000000000000
         C            2.503572634907    -0.577761962022    -0.000089589886    12.000000000000
         H           -1.734633365093     1.270514037978    -0.000117589886     1.007825032230
         H           -3.365066365093    -0.069962962022     1.304838410114     1.007825032230
         H           -2.260815365093    -1.451221962022     1.319788410114     1.007825032230
         H           -1.812542365093     0.051673037978     2.154781410114     1.007825032230
         H           -1.820527365093     0.086681837978    -2.142316489886     1.007825032230
         H           -3.365072365093    -0.070001962022    -1.305018589886     1.007825032230
         H           -2.260834365093    -1.451269962022    -1.319918589886     1.007825032230
         H           -0.514236365093    -2.139953962022    -0.000082589886     1.007825032230
         H            2.735317634907     1.558552037978    -0.000101589886     1.007825032230
         H            1.910511634907    -2.689270962022    -0.000075589886     1.007825032230
         H            3.572899634907    -0.777522962022    -0.000086589886     1.007825032230

  Basis Set: AUG-CC-PVTZ
    Blend: AUG-CC-PVTZ
  Basis Set: (AUG-CC-PVTZ AUX)
    Blend: AUG-CC-PVTZ-JKFIT
	 Reference Energy          =    -438.8178091284644893 [Eh]
	 Singles Energy            =      -0.0000000000000000 [Eh]
	 Same-Spin Energy          =      -0.4679838210899709 [Eh]
	 Opposite-Spin Energy      =      -1.4973140415182660 [Eh]
	 Correlation Energy        =      -1.9652978626082369 [Eh]
	 Total Energy              =    -440.7831069910727138 [Eh]

	 ================> DF-SCS-MP2 Energies <==================
	-----------------------------------------------------------
	 SCS Same-Spin Scale       =       0.3333333333333333 [-]
	 SCS Opposite-Spin Scale   =       1.2000000000000000 [-]
	 SCS Same-Spin Energy      =      -0.1559946070299903 [Eh]
	 SCS Opposite-Spin Energy  =      -1.7967768498219192 [Eh]
	 SCS Correlation Energy    =      -1.9527714568519094 [Eh]
	 SCS Total Energy          =    -440.7705805853163952 [Eh]
	-----------------------------------------------------------

  Dipole Moment: [D]
     X:    -0.6695      Y:    -3.8616      Z:     0.0007     Total:     3.9192

*** Psi4 exiting successfully. Buy a developer a beer!
