                               Psi4 1.4a3.dev225

  ==> Input File <==

--------------------------------------------------------------------------
#psi4
#
memory 32 gb

molecule  {
0 1
  O        0.2506850     2.2433030    -0.0000120
  N       -0.1535360    -0.0391100    -0.0000040
  C       -1.6091660     0.2193680    -0.0000060
  C       -2.2505560    -0.3204400     1.2726240
  C       -2.2505640    -0.3204870    -1.2726120
  C        0.5849268     0.9303933    -0.0000066
  C        0.3060350    -1.3272880     0.0000050
  C        2.1126960     0.7529310    -0.0000050
  C        1.6422530    -1.6174930     0.0000090
  C        2.5632190    -0.5392750     0.0000030
  H       -1.6749870     1.3090010    -0.0000250
  H       -3.3054200    -0.0314760     1.3049310
  H       -2.2011690    -1.4127350     1.3198810
  H       -1.7528960     0.0901600     2.1548740
  H       -1.7529050     0.0900740    -2.1548810
  H       -3.3054260    -0.0315150    -1.3049260
  H       -2.2011880    -1.4127830    -1.3198260
  H       -0.4545900    -2.1014670     0.0000100
  H        2.7949640     1.5970390    -0.0000090
  H        1.9701580    -2.6507840     0.0000170
  H        3.6325460    -0.7390360     0.0000060
units angstrom
no_reorient  #important for SAPT in psi4, default
symmetry c1  #important for SAPT in psi4, default
}

set PROPERTIES_ORIGIN ["COM"]
properties('MP2/aug-cc-pvtz', properties = ['dipole'])
--------------------------------------------------------------------------

    Molecular point group: c1
  Charge       = 0
  Multiplicity = 1
  Basis Set: AUG-CC-PVTZ
    Blend: AUG-CC-PVTZ
  Basis Set: (AUG-CC-PVTZ AUX)
    Blend: AUG-CC-PVTZ-JKFIT

    Orbital Energies [Eh]
    ---------------------

    Doubly Occupied:

       1A    -20.473383     2A    -15.637373     3A    -11.338474
       4A    -11.306189     5A    -11.282895     6A    -11.260407
       7A    -11.256045     8A    -11.252180     9A    -11.235332
      10A    -11.235317    11A     -1.386340    12A     -1.239747
      13A     -1.129817    14A     -1.074594    15A     -1.028462
      16A     -0.957567    17A     -0.906163    18A     -0.883329
      19A     -0.802836    20A     -0.724190    21A     -0.699040
      22A     -0.657129    23A     -0.655255    24A     -0.649317
      25A     -0.621451    26A     -0.584613    27A     -0.569432
      28A     -0.562334    29A     -0.552944    30A     -0.545382
      31A     -0.505751    32A     -0.504289    33A     -0.492744
      34A     -0.448364    35A     -0.410815    36A     -0.384353
      37A     -0.312902

  @DF-RHF Final Energy:  -438.76688709429163

   => Energetics <=

    Nuclear Repulsion Energy =            530.1616244391062764
    One-Electron Energy =               -1646.7235162253684848
    Two-Electron Energy =                 677.7950046919704619
    Total Energy =                       -438.7668870942916328
  Basis Set: (AUG-CC-PVTZ AUX)
    Blend: AUG-CC-PVTZ-RI
    Molecular point group: c1

    Geometry (in Angstrom), charge = 0, multiplicity = 1:

       Center              X                  Y                   Z               Mass
    ------------   -----------------  -----------------  -----------------  -----------------
         O            0.201588424179     2.219001507547    -0.000011571472    15.994914619570
         N           -0.202632575821    -0.063411492453    -0.000003571472    14.003074004430
         C           -1.658262575821     0.195066507547    -0.000005571472    12.000000000000
         C           -2.299652575821    -0.344741492453     1.272624428528    12.000000000000
         C           -2.299660575821    -0.344788492453    -1.272611571472    12.000000000000
         C            0.535830224179     0.906091807547    -0.000006171472    12.000000000000
         C            0.256938424179    -1.351589492453     0.000005428528    12.000000000000
         C            2.063599424179     0.728629507547    -0.000004571472    12.000000000000
         C            1.593156424179    -1.641794492453     0.000009428528    12.000000000000
         C            2.514122424179    -0.563576492453     0.000003428528    12.000000000000
         H           -1.724083575821     1.284699507547    -0.000024571472     1.007825032230
         H           -3.354516575821    -0.055777492453     1.304931428528     1.007825032230
         H           -2.250265575821    -1.437036492453     1.319881428528     1.007825032230
         H           -1.801992575821     0.065858507547     2.154874428528     1.007825032230
         H           -1.802001575821     0.065772507547    -2.154880571472     1.007825032230
         H           -3.354522575821    -0.055816492453    -1.304925571472     1.007825032230
         H           -2.250284575821    -1.437084492453    -1.319825571472     1.007825032230
         H           -0.503686575821    -2.125768492453     0.000010428528     1.007825032230
         H            2.745867424179     1.572737507547    -0.000008571472     1.007825032230
         H            1.921061424179    -2.675085492453     0.000017428528     1.007825032230
         H            3.583449424179    -0.763337492453     0.000006428528     1.007825032230

  Basis Set: AUG-CC-PVTZ
    Blend: AUG-CC-PVTZ
  Basis Set: (AUG-CC-PVTZ AUX)
    Blend: AUG-CC-PVTZ-JKFIT
	 Reference Energy          =    -438.7668870942916328 [Eh]
	 Singles Energy            =      -0.0000000000000000 [Eh]
	 Same-Spin Energy          =      -0.4677892907738883 [Eh]
	 Opposite-Spin Energy      =      -1.4992509806964367 [Eh]
	 Correlation Energy        =      -1.9670402714703250 [Eh]
	 Total Energy              =    -440.7339273657619856 [Eh]

	 ================> DF-SCS-MP2 Energies <==================
	-----------------------------------------------------------
	 SCS Same-Spin Scale       =       0.3333333333333333 [-]
	 SCS Opposite-Spin Scale   =       1.2000000000000000 [-]
	 SCS Same-Spin Energy      =      -0.1559297635912961 [Eh]
	 SCS Opposite-Spin Energy  =      -1.7991011768357239 [Eh]
	 SCS Correlation Energy    =      -1.9550309404270201 [Eh]
	 SCS Total Energy          =    -440.7219180347186693 [Eh]
	-----------------------------------------------------------

  Dipole Moment: [D]
     X:    -0.7910      Y:    -5.0271      Z:     0.0000     Total:     5.0889

*** Psi4 exiting successfully. Buy a developer a beer!
