                               Psi4 1.4a3.dev225

  ==> Input File <==

--------------------------------------------------------------------------
#psi4
#
memory 32 gb

molecule  {
0 1
  O        0.2506850     2.2433030    -0.0000120
  N       -0.1535360    -0.0391100    -0.0000040
  C       -1.6091660     0.2193680    -0.0000060
  C       -2.2505560    -0.3204400     1.2726240
  C       -2.2505640    -0.3204870    -1.2726120
  C        0.7061140     1.0894960    -0.0000070
  C        0.3060350    -1.3272880     0.0000050
  C        2.1126960     0.7529310    -0.0000050
  C        1.6422530    -1.6174930     0.0000090
  C        2.5632190    -0.5392750     0.0000030
  H       -1.6749870     1.3090010    -0.0000250
  H       -3.3054200    -0.0314760     1.3049310
  H       -2.2011690    -1.4127350     1.3198810
  H       -1.7528960     0.0901600     2.1548740
  H       -1.7694536     0.1597207    -2.1285073
  H       -3.3054260    -0.0315150    -1.3049260
  H       -2.2011880    -1.4127830    -1.3198260
  H       -0.4545900    -2.1014670     0.0000100
  H        2.7949640     1.5970390    -0.0000090
  H        1.9701580    -2.6507840     0.0000170
  H        3.6325460    -0.7390360     0.0000060
units angstrom
no_reorient  #important for SAPT in psi4, default
symmetry c1  #important for SAPT in psi4, default
}

set PROPERTIES_ORIGIN ["COM"]
properties('MP2/aug-cc-pvtz', properties = ['dipole'])
--------------------------------------------------------------------------

    Molecular point group: c1
  Charge       = 0
  Multiplicity = 1
  Basis Set: AUG-CC-PVTZ
    Blend: AUG-CC-PVTZ
  Basis Set: (AUG-CC-PVTZ AUX)
    Blend: AUG-CC-PVTZ-JKFIT

    Orbital Energies [Eh]
    ---------------------

    Doubly Occupied:

       1A    -20.505499     2A    -15.621466     3A    -11.350005
       4A    -11.305671     5A    -11.273703     6A    -11.268944
       7A    -11.238329     8A    -11.235247     9A    -11.228794
      10A    -11.228326    11A     -1.367059    12A     -1.277623
      13A     -1.122569    14A     -1.051376    15A     -1.022539
      16A     -0.950640    17A     -0.893133    18A     -0.855922
      19A     -0.803376    20A     -0.711243    21A     -0.699573
      22A     -0.654937    23A     -0.641103    24A     -0.628335
      25A     -0.613651    26A     -0.604436    27A     -0.565119
      28A     -0.563988    29A     -0.546632    30A     -0.543891
      31A     -0.523984    32A     -0.502095    33A     -0.487874
      34A     -0.473679    35A     -0.417810    36A     -0.406527
      37A     -0.307164

  @DF-RHF Final Energy:  -438.81735634655513

   => Energetics <=

    Nuclear Repulsion Energy =            527.9569760969491199
    One-Electron Energy =               -1642.5641397283482092
    Two-Electron Energy =                 675.7898072848439597
    Total Energy =                       -438.8173563465551297
  Basis Set: (AUG-CC-PVTZ AUX)
    Blend: AUG-CC-PVTZ-RI
    Molecular point group: c1

    Geometry (in Angstrom), charge = 0, multiplicity = 1:

       Center              X                  Y                   Z               Mass
    ------------   -----------------  -----------------  -----------------  -----------------
         O            0.191101659599     2.204562016695    -0.000205432627    15.994914619570
         N           -0.213119340401    -0.077850983305    -0.000197432627    14.003074004430
         C           -1.668749340401     0.180627016695    -0.000199432627    12.000000000000
         C           -2.310139340401    -0.359180983305     1.272430567373    12.000000000000
         C           -2.310147340401    -0.359227983305    -1.272805432627    12.000000000000
         C            0.646530659599     1.050755016695    -0.000200432627    12.000000000000
         C            0.246451659599    -1.366028983305    -0.000188432627    12.000000000000
         C            2.053112659599     0.714190016695    -0.000198432627    12.000000000000
         C            1.582669659599    -1.656233983305    -0.000184432627    12.000000000000
         C            2.503635659599    -0.578015983305    -0.000190432627    12.000000000000
         H           -1.734570340401     1.270260016695    -0.000218432627     1.007825032230
         H           -3.365003340401    -0.070216983305     1.304737567373     1.007825032230
         H           -2.260752340401    -1.451475983305     1.319687567373     1.007825032230
         H           -1.812479340401     0.051419016695     2.154680567373     1.007825032230
         H           -1.829036940401     0.120979716695    -2.128700732627     1.007825032230
         H           -3.365009340401    -0.070255983305    -1.305119432627     1.007825032230
         H           -2.260771340401    -1.451523983305    -1.320019432627     1.007825032230
         H           -0.514173340401    -2.140207983305    -0.000183432627     1.007825032230
         H            2.735380659599     1.558298016695    -0.000202432627     1.007825032230
         H            1.910574659599    -2.689524983305    -0.000176432627     1.007825032230
         H            3.572962659599    -0.777776983305    -0.000187432627     1.007825032230

  Basis Set: AUG-CC-PVTZ
    Blend: AUG-CC-PVTZ
  Basis Set: (AUG-CC-PVTZ AUX)
    Blend: AUG-CC-PVTZ-JKFIT
	 Reference Energy          =    -438.8173563465551297 [Eh]
	 Singles Energy            =      -0.0000000000000000 [Eh]
	 Same-Spin Energy          =      -0.4680137523897817 [Eh]
	 Opposite-Spin Energy      =      -1.4973695872834454 [Eh]
	 Correlation Energy        =      -1.9653833396732270 [Eh]
	 Total Energy              =    -440.7827396862283535 [Eh]

	 ================> DF-SCS-MP2 Energies <==================
	-----------------------------------------------------------
	 SCS Same-Spin Scale       =       0.3333333333333333 [-]
	 SCS Opposite-Spin Scale   =       1.2000000000000000 [-]
	 SCS Same-Spin Energy      =      -0.1560045841299272 [Eh]
	 SCS Opposite-Spin Energy  =      -1.7968435047401343 [Eh]
	 SCS Correlation Energy    =      -1.9528480888700614 [Eh]
	 SCS Total Energy          =    -440.7702044354251711 [Eh]
	-----------------------------------------------------------

  Dipole Moment: [D]
     X:    -0.6733      Y:    -3.8540      Z:     0.0018     Total:     3.9123

*** Psi4 exiting successfully. Buy a developer a beer!
