                               Psi4 1.4a3.dev225

  ==> Input File <==

--------------------------------------------------------------------------
#psi4
#
memory 32 gb

molecule  {
0 1
  O        0.2506850     2.2433030    -0.0000120
  N       -0.1535360    -0.0391100    -0.0000040
  C       -1.6091660     0.2193680    -0.0000060
  C       -2.2505560    -0.3204400     1.2726240
  C       -2.2505640    -0.3204870    -1.2726120
  C        0.7061140     1.0894960    -0.0000070
  C        0.3060350    -1.3272880     0.0000050
  C        2.1126960     0.7529310    -0.0000050
  C        1.7399748    -1.6387166     0.0000093
  C        2.5632190    -0.5392750     0.0000030
  H       -1.6749870     1.3090010    -0.0000250
  H       -3.3054200    -0.0314760     1.3049310
  H       -2.2011690    -1.4127350     1.3198810
  H       -1.7528960     0.0901600     2.1548740
  H       -1.7529050     0.0900740    -2.1548810
  H       -3.3054260    -0.0315150    -1.3049260
  H       -2.2011880    -1.4127830    -1.3198260
  H       -0.4545900    -2.1014670     0.0000100
  H        2.7949640     1.5970390    -0.0000090
  H        1.9701580    -2.6507840     0.0000170
  H        3.6325460    -0.7390360     0.0000060
units angstrom
no_reorient  #important for SAPT in psi4, default
symmetry c1  #important for SAPT in psi4, default
}

set PROPERTIES_ORIGIN ["COM"]
properties('MP2/aug-cc-pvtz', properties = ['dipole'])
--------------------------------------------------------------------------

    Molecular point group: c1
  Charge       = 0
  Multiplicity = 1
  Basis Set: AUG-CC-PVTZ
    Blend: AUG-CC-PVTZ
  Basis Set: (AUG-CC-PVTZ AUX)
    Blend: AUG-CC-PVTZ-JKFIT

    Orbital Energies [Eh]
    ---------------------

    Doubly Occupied:

       1A    -20.502242     2A    -15.632398     3A    -11.347866
       4A    -11.324530     5A    -11.277838     6A    -11.263142
       7A    -11.241553     8A    -11.231804     9A    -11.231789
      10A    -11.228947    11A     -1.366446    12A     -1.279614
      13A     -1.122121    14A     -1.056028    15A     -1.012403
      16A     -0.953658    17A     -0.899846    18A     -0.856615
      19A     -0.803518    20A     -0.712730    21A     -0.699844
      22A     -0.660971    23A     -0.645382    24A     -0.629611
      25A     -0.618546    26A     -0.596656    27A     -0.564205
      28A     -0.560507    29A     -0.554809    30A     -0.549629
      31A     -0.519026    32A     -0.506933    33A     -0.490445
      34A     -0.469461    35A     -0.415066    36A     -0.412110
      37A     -0.295566

  @DF-RHF Final Energy:  -438.80221169264667

   => Energetics <=

    Nuclear Repulsion Energy =            526.5726484920332950
    One-Electron Energy =               -1639.6820031279683008
    Two-Electron Energy =                 674.3071429432883406
    Total Energy =                       -438.8022116926466651
  Basis Set: (AUG-CC-PVTZ AUX)
    Blend: AUG-CC-PVTZ-RI
    Molecular point group: c1

    Geometry (in Angstrom), charge = 0, multiplicity = 1:

       Center              X                  Y                   Z               Mass
    ------------   -----------------  -----------------  -----------------  -----------------
         O            0.182425671604     2.206931912059    -0.000011562718    15.994914619570
         N           -0.221795328396    -0.075481087941    -0.000003562718    14.003074004430
         C           -1.677425328396     0.182996912059    -0.000005562718    12.000000000000
         C           -2.318815328396    -0.356811087941     1.272624437282    12.000000000000
         C           -2.318823328396    -0.356858087941    -1.272611562718    12.000000000000
         C            0.637854671604     1.053124912059    -0.000006562718    12.000000000000
         C            0.237775671604    -1.363659087941     0.000005437282    12.000000000000
         C            2.044436671604     0.716559912059    -0.000004562718    12.000000000000
         C            1.671715471604    -1.675087687941     0.000009737282    12.000000000000
         C            2.494959671604    -0.575646087941     0.000003437282    12.000000000000
         H           -1.743246328396     1.272629912059    -0.000024562718     1.007825032230
         H           -3.373679328396    -0.067847087941     1.304931437282     1.007825032230
         H           -2.269428328396    -1.449106087941     1.319881437282     1.007825032230
         H           -1.821155328396     0.053788912059     2.154874437282     1.007825032230
         H           -1.821164328396     0.053702912059    -2.154880562718     1.007825032230
         H           -3.373685328396    -0.067886087941    -1.304925562718     1.007825032230
         H           -2.269447328396    -1.449154087941    -1.319825562718     1.007825032230
         H           -0.522849328396    -2.137838087941     0.000010437282     1.007825032230
         H            2.726704671604     1.560667912059    -0.000008562718     1.007825032230
         H            1.901898671604    -2.687155087941     0.000017437282     1.007825032230
         H            3.564286671604    -0.775407087941     0.000006437282     1.007825032230

  Basis Set: AUG-CC-PVTZ
    Blend: AUG-CC-PVTZ
  Basis Set: (AUG-CC-PVTZ AUX)
    Blend: AUG-CC-PVTZ-JKFIT
	 Reference Energy          =    -438.8022116926466651 [Eh]
	 Singles Energy            =      -0.0000000000000000 [Eh]
	 Same-Spin Energy          =      -0.4697996684367945 [Eh]
	 Opposite-Spin Energy      =      -1.4994623682029760 [Eh]
	 Correlation Energy        =      -1.9692620366397704 [Eh]
	 Total Energy              =    -440.7714737292864129 [Eh]

	 ================> DF-SCS-MP2 Energies <==================
	-----------------------------------------------------------
	 SCS Same-Spin Scale       =       0.3333333333333333 [-]
	 SCS Opposite-Spin Scale   =       1.2000000000000000 [-]
	 SCS Same-Spin Energy      =      -0.1565998894789315 [Eh]
	 SCS Opposite-Spin Energy  =      -1.7993548418435712 [Eh]
	 SCS Correlation Energy    =      -1.9559547313225027 [Eh]
	 SCS Total Energy          =    -440.7581664239691577 [Eh]
	-----------------------------------------------------------

  Dipole Moment: [D]
     X:    -0.8527      Y:    -3.9617      Z:     0.0000     Total:     4.0524

*** Psi4 exiting successfully. Buy a developer a beer!
