                               Psi4 1.4a3.dev225

  ==> Input File <==

--------------------------------------------------------------------------
#psi4
#
memory 32 gb

molecule  {
0 1
  O        0.2506850     2.2433030    -0.0000120
  N       -0.1535360    -0.0391100    -0.0000040
  C       -1.6091660     0.2193680    -0.0000060
  C       -2.2589736    -0.3275244     1.2893260
  C       -2.2505640    -0.3204870    -1.2726120
  C        0.7061140     1.0894960    -0.0000070
  C        0.3060350    -1.3272880     0.0000050
  C        2.1126960     0.7529310    -0.0000050
  C        1.6422530    -1.6174930     0.0000090
  C        2.5632190    -0.5392750     0.0000030
  H       -1.6749870     1.3090010    -0.0000250
  H       -3.3054200    -0.0314760     1.3049310
  H       -2.2011690    -1.4127350     1.3198810
  H       -1.7528960     0.0901600     2.1548740
  H       -1.7529050     0.0900740    -2.1548810
  H       -3.3054260    -0.0315150    -1.3049260
  H       -2.2011880    -1.4127830    -1.3198260
  H       -0.4545900    -2.1014670     0.0000100
  H        2.7949640     1.5970390    -0.0000090
  H        1.9701580    -2.6507840     0.0000170
  H        3.6325460    -0.7390360     0.0000060
units angstrom
no_reorient  #important for SAPT in psi4, default
symmetry c1  #important for SAPT in psi4, default
}

set PROPERTIES_ORIGIN ["COM"]
properties('MP2/aug-cc-pvtz', properties = ['dipole'])
--------------------------------------------------------------------------

    Molecular point group: c1
  Charge       = 0
  Multiplicity = 1
  Basis Set: AUG-CC-PVTZ
    Blend: AUG-CC-PVTZ
  Basis Set: (AUG-CC-PVTZ AUX)
    Blend: AUG-CC-PVTZ-JKFIT

    Orbital Energies [Eh]
    ---------------------

    Doubly Occupied:

       1A    -20.505384     2A    -15.621536     3A    -11.349914
       4A    -11.305629     5A    -11.274946     6A    -11.268915
       7A    -11.238337     8A    -11.235243     9A    -11.228748
      10A    -11.227982    11A     -1.366906    12A     -1.277314
      13A     -1.121811    14A     -1.049552    15A     -1.022496
      16A     -0.950784    17A     -0.893422    18A     -0.855903
      19A     -0.803954    20A     -0.711094    21A     -0.699308
      22A     -0.655069    23A     -0.640689    24A     -0.627483
      25A     -0.612513    26A     -0.604223    27A     -0.565108
      28A     -0.562996    29A     -0.549375    30A     -0.543908
      31A     -0.525083    32A     -0.503888    33A     -0.486664
      34A     -0.473355    35A     -0.417786    36A     -0.406090
      37A     -0.307091

  @DF-RHF Final Energy:  -438.81783100944853

   => Energetics <=

    Nuclear Repulsion Energy =            527.5594838867377803
    One-Electron Energy =               -1641.7736359574960261
    Two-Electron Energy =                 675.3963210613097772
    Total Energy =                       -438.8178310094484686
  Basis Set: (AUG-CC-PVTZ AUX)
    Blend: AUG-CC-PVTZ-RI
    Molecular point group: c1

    Geometry (in Angstrom), charge = 0, multiplicity = 1:

       Center              X                  Y                   Z               Mass
    ------------   -----------------  -----------------  -----------------  -----------------
         O            0.191716852235     2.205694201452    -0.001473588239    15.994914619570
         N           -0.212504147765    -0.076718798548    -0.001465588239    14.003074004430
         C           -1.668134147765     0.181759201452    -0.001467588239    12.000000000000
         C           -2.317941747765    -0.365133198548     1.287864411761    12.000000000000
         C           -2.309532147765    -0.358095798548    -1.274073588239    12.000000000000
         C            0.647145852235     1.051887201452    -0.001468588239    12.000000000000
         C            0.247066852235    -1.364896798548    -0.001456588239    12.000000000000
         C            2.053727852235     0.715322201452    -0.001466588239    12.000000000000
         C            1.583284852235    -1.655101798548    -0.001452588239    12.000000000000
         C            2.504250852235    -0.576883798548    -0.001458588239    12.000000000000
         H           -1.733955147765     1.271392201452    -0.001486588239     1.007825032230
         H           -3.364388147765    -0.069084798548     1.303469411761     1.007825032230
         H           -2.260137147765    -1.450343798548     1.318419411761     1.007825032230
         H           -1.811864147765     0.052551201452     2.153412411761     1.007825032230
         H           -1.811873147765     0.052465201452    -2.156342588239     1.007825032230
         H           -3.364394147765    -0.069123798548    -1.306387588239     1.007825032230
         H           -2.260156147765    -1.450391798548    -1.321287588239     1.007825032230
         H           -0.513558147765    -2.139075798548    -0.001451588239     1.007825032230
         H            2.735995852235     1.559430201452    -0.001470588239     1.007825032230
         H            1.911189852235    -2.688392798548    -0.001444588239     1.007825032230
         H            3.573577852235    -0.776644798548    -0.001455588239     1.007825032230

  Basis Set: AUG-CC-PVTZ
    Blend: AUG-CC-PVTZ
  Basis Set: (AUG-CC-PVTZ AUX)
    Blend: AUG-CC-PVTZ-JKFIT
	 Reference Energy          =    -438.8178310094485255 [Eh]
	 Singles Energy            =      -0.0000000000000000 [Eh]
	 Same-Spin Energy          =      -0.4678441055636423 [Eh]
	 Opposite-Spin Energy      =      -1.4971923784544290 [Eh]
	 Correlation Energy        =      -1.9650364840180714 [Eh]
	 Total Energy              =    -440.7828674934665969 [Eh]

	 ================> DF-SCS-MP2 Energies <==================
	-----------------------------------------------------------
	 SCS Same-Spin Scale       =       0.3333333333333333 [-]
	 SCS Opposite-Spin Scale   =       1.2000000000000000 [-]
	 SCS Same-Spin Energy      =      -0.1559480351878808 [Eh]
	 SCS Opposite-Spin Energy  =      -1.7966308541453146 [Eh]
	 SCS Correlation Energy    =      -1.9525788893331955 [Eh]
	 SCS Total Energy          =    -440.7704098987817360 [Eh]
	-----------------------------------------------------------

  Dipole Moment: [D]
     X:    -0.6633      Y:    -3.8701      Z:    -0.0051     Total:     3.9266

*** Psi4 exiting successfully. Buy a developer a beer!
