                               Psi4 1.4a3.dev225

  ==> Input File <==

--------------------------------------------------------------------------
#psi4
#
memory 32 gb

molecule  {
0 1
  O        0.2506850     2.2433030    -0.0000120
  N       -0.1535360    -0.0391100    -0.0000040
  C       -1.6091660     0.2193680    -0.0000060
  C       -2.2505560    -0.3204400     1.2726240
  C       -2.2505640    -0.3204870    -1.2726120
  C        0.7061140     1.0894960    -0.0000070
  C        0.2892342    -1.2801952     0.0000047
  C        2.1126960     0.7529310    -0.0000050
  C        1.6422530    -1.6174930     0.0000090
  C        2.5632190    -0.5392750     0.0000030
  H       -1.6749870     1.3090010    -0.0000250
  H       -3.3054200    -0.0314760     1.3049310
  H       -2.2011690    -1.4127350     1.3198810
  H       -1.7528960     0.0901600     2.1548740
  H       -1.7529050     0.0900740    -2.1548810
  H       -3.3054260    -0.0315150    -1.3049260
  H       -2.2011880    -1.4127830    -1.3198260
  H       -0.4545900    -2.1014670     0.0000100
  H        2.7949640     1.5970390    -0.0000090
  H        1.9701580    -2.6507840     0.0000170
  H        3.6325460    -0.7390360     0.0000060
units angstrom
no_reorient  #important for SAPT in psi4, default
symmetry c1  #important for SAPT in psi4, default
}

set PROPERTIES_ORIGIN ["COM"]
properties('MP2/aug-cc-pvtz', properties = ['dipole'])
--------------------------------------------------------------------------

    Molecular point group: c1
  Charge       = 0
  Multiplicity = 1
  Basis Set: AUG-CC-PVTZ
    Blend: AUG-CC-PVTZ
  Basis Set: (AUG-CC-PVTZ AUX)
    Blend: AUG-CC-PVTZ-JKFIT

    Orbital Energies [Eh]
    ---------------------

    Doubly Occupied:

       1A    -20.505418     2A    -15.626945     3A    -11.350208
       4A    -11.308743     5A    -11.277512     6A    -11.267062
       7A    -11.236852     8A    -11.231131     9A    -11.231115
      10A    -11.230824    11A     -1.371411    12A     -1.291906
      13A     -1.120956    14A     -1.055940    15A     -1.017160
      16A     -0.953170    17A     -0.894389    18A     -0.861373
      19A     -0.805924    20A     -0.712311    21A     -0.700334
      22A     -0.652008    23A     -0.644634    24A     -0.635024
      25A     -0.614682    26A     -0.598858    27A     -0.564663
      28A     -0.564351    29A     -0.550075    30A     -0.543740
      31A     -0.524322    32A     -0.507021    33A     -0.488714
      34A     -0.474886    35A     -0.417515    36A     -0.410059
      37A     -0.300245

  @DF-RHF Final Energy:  -438.81486019746308

   => Energetics <=

    Nuclear Repulsion Energy =            528.7870827560500402
    One-Electron Energy =               -1644.1209281941478366
    Two-Electron Energy =                 676.5189852406347200
    Total Energy =                       -438.8148601974630765
  Basis Set: (AUG-CC-PVTZ AUX)
    Blend: AUG-CC-PVTZ-RI
    Molecular point group: c1

    Geometry (in Angstrom), charge = 0, multiplicity = 1:

       Center              X                  Y                   Z               Mass
    ------------   -----------------  -----------------  -----------------  -----------------
         O            0.192450696834     2.200951663326    -0.000011510196    15.994914619570
         N           -0.211770303166    -0.081461336674    -0.000003510196    14.003074004430
         C           -1.667400303166     0.177016663326    -0.000005510196    12.000000000000
         C           -2.308790303166    -0.362791336674     1.272624489804    12.000000000000
         C           -2.308798303166    -0.362838336674    -1.272611510196    12.000000000000
         C            0.647879696834     1.047144663326    -0.000006510196    12.000000000000
         C            0.230999896834    -1.322546536674     0.000005189804    12.000000000000
         C            2.054461696834     0.710579663326    -0.000004510196    12.000000000000
         C            1.584018696834    -1.659844336674     0.000009489804    12.000000000000
         C            2.504984696834    -0.581626336674     0.000003489804    12.000000000000
         H           -1.733221303166     1.266649663326    -0.000024510196     1.007825032230
         H           -3.363654303166    -0.073827336674     1.304931489804     1.007825032230
         H           -2.259403303166    -1.455086336674     1.319881489804     1.007825032230
         H           -1.811130303166     0.047808663326     2.154874489804     1.007825032230
         H           -1.811139303166     0.047722663326    -2.154880510196     1.007825032230
         H           -3.363660303166    -0.073866336674    -1.304925510196     1.007825032230
         H           -2.259422303166    -1.455134336674    -1.319825510196     1.007825032230
         H           -0.512824303166    -2.143818336674     0.000010489804     1.007825032230
         H            2.736729696834     1.554687663326    -0.000008510196     1.007825032230
         H            1.911923696834    -2.693135336674     0.000017489804     1.007825032230
         H            3.574311696834    -0.781387336674     0.000006489804     1.007825032230

  Basis Set: AUG-CC-PVTZ
    Blend: AUG-CC-PVTZ
  Basis Set: (AUG-CC-PVTZ AUX)
    Blend: AUG-CC-PVTZ-JKFIT
	 Reference Energy          =    -438.8148601974630765 [Eh]
	 Singles Energy            =      -0.0000000000000000 [Eh]
	 Same-Spin Energy          =      -0.4686333786297375 [Eh]
	 Opposite-Spin Energy      =      -1.4971990094651642 [Eh]
	 Correlation Energy        =      -1.9658323880949018 [Eh]
	 Total Energy              =    -440.7806925855579721 [Eh]

	 ================> DF-SCS-MP2 Energies <==================
	-----------------------------------------------------------
	 SCS Same-Spin Scale       =       0.3333333333333333 [-]
	 SCS Opposite-Spin Scale   =       1.2000000000000000 [-]
	 SCS Same-Spin Energy      =      -0.1562111262099125 [Eh]
	 SCS Opposite-Spin Energy  =      -1.7966388113581970 [Eh]
	 SCS Correlation Energy    =      -1.9528499375681094 [Eh]
	 SCS Total Energy          =    -440.7677101350311659 [Eh]
	-----------------------------------------------------------

  Dipole Moment: [D]
     X:    -0.8463      Y:    -3.8252      Z:     0.0000     Total:     3.9177

*** Psi4 exiting successfully. Buy a developer a beer!
