                               Psi4 1.4a3.dev225

  ==> Input File <==

--------------------------------------------------------------------------
#psi4
#
memory 32 gb

molecule  {
0 1
  O        0.2506850     2.2433030    -0.0000120
  N       -0.1535360    -0.0391100    -0.0000040
  C       -1.6091660     0.2193680    -0.0000060
  C       -2.2505560    -0.3204400     1.2726240
  C       -2.2505640    -0.3204870    -1.2726120
  C        0.7061140     1.0894960    -0.0000070
  C        0.3060350    -1.3272880     0.0000050
  C        2.1126960     0.7529310    -0.0000050
  C        1.6422530    -1.6174930     0.0000090
  C        2.5302978    -0.4448494     0.0000024
  H       -1.6749870     1.3090010    -0.0000250
  H       -3.3054200    -0.0314760     1.3049310
  H       -2.2011690    -1.4127350     1.3198810
  H       -1.7528960     0.0901600     2.1548740
  H       -1.7529050     0.0900740    -2.1548810
  H       -3.3054260    -0.0315150    -1.3049260
  H       -2.2011880    -1.4127830    -1.3198260
  H       -0.4545900    -2.1014670     0.0000100
  H        2.7949640     1.5970390    -0.0000090
  H        1.9701580    -2.6507840     0.0000170
  H        3.6325460    -0.7390360     0.0000060
units angstrom
no_reorient  #important for SAPT in psi4, default
symmetry c1  #important for SAPT in psi4, default
}

set PROPERTIES_ORIGIN ["COM"]
properties('MP2/aug-cc-pvtz', properties = ['dipole'])
--------------------------------------------------------------------------

    Molecular point group: c1
  Charge       = 0
  Multiplicity = 1
  Basis Set: AUG-CC-PVTZ
    Blend: AUG-CC-PVTZ
  Basis Set: (AUG-CC-PVTZ AUX)
    Blend: AUG-CC-PVTZ-JKFIT

    Orbital Energies [Eh]
    ---------------------

    Doubly Occupied:

       1A    -20.511921     2A    -15.616478     3A    -11.353762
       4A    -11.300227     5A    -11.273153     6A    -11.261801
       7A    -11.239093     8A    -11.227656     9A    -11.227641
      10A    -11.226043    11A     -1.370577    12A     -1.277210
      13A     -1.129450    14A     -1.055757    15A     -1.024457
      16A     -0.949618    17A     -0.883077    18A     -0.861079
      19A     -0.799841    20A     -0.710299    21A     -0.700225
      22A     -0.653495    23A     -0.641221    24A     -0.628380
      25A     -0.612907    26A     -0.606182    27A     -0.569909
      28A     -0.561912    29A     -0.548572    30A     -0.536861
      31A     -0.516011    32A     -0.504834    33A     -0.482867
      34A     -0.472688    35A     -0.419866    36A     -0.418284
      37A     -0.313445

  @DF-RHF Final Energy:  -438.80722771348724

   => Energetics <=

    Nuclear Repulsion Energy =            529.1431351564400529
    One-Electron Energy =               -1644.9271296843030541
    Two-Electron Energy =                 676.9767668143756509
    Total Energy =                       -438.8072277134872365
  Basis Set: (AUG-CC-PVTZ AUX)
    Blend: AUG-CC-PVTZ-RI
    Molecular point group: c1

    Geometry (in Angstrom), charge = 0, multiplicity = 1:

       Center              X                  Y                   Z               Mass
    ------------   -----------------  -----------------  -----------------  -----------------
         O            0.193861836790     2.196808267051    -0.000011483934    15.994914619570
         N           -0.210359163210    -0.085604732949    -0.000003483934    14.003074004430
         C           -1.665989163210     0.172873267051    -0.000005483934    12.000000000000
         C           -2.307379163210    -0.366934732949     1.272624516066    12.000000000000
         C           -2.307387163210    -0.366981732949    -1.272611483934    12.000000000000
         C            0.649290836790     1.043001267051    -0.000006483934    12.000000000000
         C            0.249211836790    -1.373782732949     0.000005516066    12.000000000000
         C            2.055872836790     0.706436267051    -0.000004483934    12.000000000000
         C            1.585429836790    -1.663987732949     0.000009516066    12.000000000000
         C            2.473474636790    -0.491344132949     0.000002916066    12.000000000000
         H           -1.731810163210     1.262506267051    -0.000024483934     1.007825032230
         H           -3.362243163210    -0.077970732949     1.304931516066     1.007825032230
         H           -2.257992163210    -1.459229732949     1.319881516066     1.007825032230
         H           -1.809719163210     0.043665267051     2.154874516066     1.007825032230
         H           -1.809728163210     0.043579267051    -2.154880483934     1.007825032230
         H           -3.362249163210    -0.078009732949    -1.304925483934     1.007825032230
         H           -2.258011163210    -1.459277732949    -1.319825483934     1.007825032230
         H           -0.511413163210    -2.147961732949     0.000010516066     1.007825032230
         H            2.738140836790     1.550544267051    -0.000008483934     1.007825032230
         H            1.913334836790    -2.697278732949     0.000017516066     1.007825032230
         H            3.575722836790    -0.785530732949     0.000006516066     1.007825032230

  Basis Set: AUG-CC-PVTZ
    Blend: AUG-CC-PVTZ
  Basis Set: (AUG-CC-PVTZ AUX)
    Blend: AUG-CC-PVTZ-JKFIT
	 Reference Energy          =    -438.8072277134872365 [Eh]
	 Singles Energy            =      -0.0000000000000000 [Eh]
	 Same-Spin Energy          =      -0.4660957794425450 [Eh]
	 Opposite-Spin Energy      =      -1.4954922280016985 [Eh]
	 Correlation Energy        =      -1.9615880074442433 [Eh]
	 Total Energy              =    -440.7688157209314568 [Eh]

	 ================> DF-SCS-MP2 Energies <==================
	-----------------------------------------------------------
	 SCS Same-Spin Scale       =       0.3333333333333333 [-]
	 SCS Opposite-Spin Scale   =       1.2000000000000000 [-]
	 SCS Same-Spin Energy      =      -0.1553652598141816 [Eh]
	 SCS Opposite-Spin Energy  =      -1.7945906736020381 [Eh]
	 SCS Correlation Energy    =      -1.9499559334162198 [Eh]
	 SCS Total Energy          =    -440.7571836469034565 [Eh]
	-----------------------------------------------------------

  Dipole Moment: [D]
     X:    -0.6276      Y:    -3.6941      Z:     0.0000     Total:     3.7471

*** Psi4 exiting successfully. Buy a developer a beer!
