                               Psi4 1.4a3.dev225

  ==> Input File <==

--------------------------------------------------------------------------
#psi4
#
memory 32 gb

molecule  {
0 1
  O        0.2506850     2.2433030    -0.0000120
  N       -0.1535360    -0.0391100    -0.0000040
  C       -1.6091660     0.2193680    -0.0000060
  C       -2.2505560    -0.3204400     1.2726240
  C       -2.2505640    -0.3204870    -1.2726120
  C        0.7061140     1.0894960    -0.0000070
  C        0.3060350    -1.3272880     0.0000050
  C        2.1126960     0.7529310    -0.0000050
  C        1.6422530    -1.6174930     0.0000090
  C        2.5632190    -0.5392750     0.0000030
  H       -1.6749870     1.3090010    -0.0000250
  H       -3.3054200    -0.0314760     1.3049310
  H       -2.2011690    -1.4127350     1.3198810
  H       -1.7528960     0.0901600     2.1548740
  H       -1.8439689     0.0149477    -1.9934394
  H       -3.3054260    -0.0315150    -1.3049260
  H       -2.2011880    -1.4127830    -1.3198260
  H       -0.4545900    -2.1014670     0.0000100
  H        2.7949640     1.5970390    -0.0000090
  H        1.9701580    -2.6507840     0.0000170
  H        3.6325460    -0.7390360     0.0000060
units angstrom
no_reorient  #important for SAPT in psi4, default
symmetry c1  #important for SAPT in psi4, default
}

set PROPERTIES_ORIGIN ["COM"]
properties('MP2/aug-cc-pvtz', properties = ['dipole'])
--------------------------------------------------------------------------

    Molecular point group: c1
  Charge       = 0
  Multiplicity = 1
  Basis Set: AUG-CC-PVTZ
    Blend: AUG-CC-PVTZ
  Basis Set: (AUG-CC-PVTZ AUX)
    Blend: AUG-CC-PVTZ-JKFIT

    Orbital Energies [Eh]
    ---------------------

    Doubly Occupied:

       1A    -20.505508     2A    -15.621585     3A    -11.350028
       4A    -11.305602     5A    -11.272793     6A    -11.269004
       7A    -11.238378     8A    -11.235313     9A    -11.227385
      10A    -11.204430    11A     -1.367103    12A     -1.277757
      13A     -1.123478    14A     -1.056165    15A     -1.022725
      16A     -0.967857    17A     -0.894552    18A     -0.856721
      19A     -0.807191    20A     -0.711878    21A     -0.700339
      22A     -0.662137    23A     -0.640512    24A     -0.631704
      25A     -0.627237    26A     -0.604505    27A     -0.567889
      28A     -0.563210    29A     -0.549107    30A     -0.544428
      31A     -0.524483    32A     -0.513184    33A     -0.486734
      34A     -0.474005    35A     -0.417764    36A     -0.406442
      37A     -0.307211

  @DF-RHF Final Energy:  -438.78374971120718

   => Energetics <=

    Nuclear Repulsion Energy =            528.8798852287507088
    One-Electron Energy =               -1644.2545862406409469
    Two-Electron Energy =                 676.5909513006830593
    Total Energy =                       -438.7837497112071787
  Basis Set: (AUG-CC-PVTZ AUX)
    Blend: AUG-CC-PVTZ-RI
    Molecular point group: c1

    Geometry (in Angstrom), charge = 0, multiplicity = 1:

       Center              X                  Y                   Z               Mass
    ------------   -----------------  -----------------  -----------------  -----------------
         O            0.191649486841     2.205626369831    -0.001198435072    15.994914619570
         N           -0.212571513159    -0.076786630169    -0.001190435072    14.003074004430
         C           -1.668201513159     0.181691369831    -0.001192435072    12.000000000000
         C           -2.309591513159    -0.358116630169     1.271437564928    12.000000000000
         C           -2.309599513159    -0.358163630169    -1.273798435072    12.000000000000
         C            0.647078486841     1.051819369831    -0.001193435072    12.000000000000
         C            0.246999486841    -1.364964630169    -0.001181435072    12.000000000000
         C            2.053660486841     0.715254369831    -0.001191435072    12.000000000000
         C            1.583217486841    -1.655169630169    -0.001177435072    12.000000000000
         C            2.504183486841    -0.576951630169    -0.001183435072    12.000000000000
         H           -1.734022513159     1.271324369831    -0.001211435072     1.007825032230
         H           -3.364455513159    -0.069152630169     1.303744564928     1.007825032230
         H           -2.260204513159    -1.450411630169     1.318694564928     1.007825032230
         H           -1.811931513159     0.052483369831     2.153687564928     1.007825032230
         H           -1.903004413159    -0.022728930169    -1.994625835072     1.007825032230
         H           -3.364461513159    -0.069191630169    -1.306112435072     1.007825032230
         H           -2.260223513159    -1.450459630169    -1.321012435072     1.007825032230
         H           -0.513625513159    -2.139143630169    -0.001176435072     1.007825032230
         H            2.735928486841     1.559362369831    -0.001195435072     1.007825032230
         H            1.911122486841    -2.688460630169    -0.001169435072     1.007825032230
         H            3.573510486841    -0.776712630169    -0.001180435072     1.007825032230

  Basis Set: AUG-CC-PVTZ
    Blend: AUG-CC-PVTZ
  Basis Set: (AUG-CC-PVTZ AUX)
    Blend: AUG-CC-PVTZ-JKFIT
	 Reference Energy          =    -438.7837497112071787 [Eh]
	 Singles Energy            =      -0.0000000000000000 [Eh]
	 Same-Spin Energy          =      -0.4680361342428460 [Eh]
	 Opposite-Spin Energy      =      -1.4966106568312414 [Eh]
	 Correlation Energy        =      -1.9646467910740872 [Eh]
	 Total Energy              =    -440.7483965022812527 [Eh]

	 ================> DF-SCS-MP2 Energies <==================
	-----------------------------------------------------------
	 SCS Same-Spin Scale       =       0.3333333333333333 [-]
	 SCS Opposite-Spin Scale   =       1.2000000000000000 [-]
	 SCS Same-Spin Energy      =      -0.1560120447476153 [Eh]
	 SCS Opposite-Spin Energy  =      -1.7959327881974896 [Eh]
	 SCS Correlation Energy    =      -1.9519448329451048 [Eh]
	 SCS Total Energy          =    -440.7356945441522953 [Eh]
	-----------------------------------------------------------

  Dipole Moment: [D]
     X:    -0.6497      Y:    -3.8603      Z:    -0.0681     Total:     3.9152

*** Psi4 exiting successfully. Buy a developer a beer!
