                               Psi4 1.4a3.dev225

  ==> Input File <==

--------------------------------------------------------------------------
#psi4
#
memory 32 gb

molecule  {
0 1
  O        0.2506850     2.2433030    -0.0000120
  N       -0.1517217    -0.0276045     0.0230201
  C       -1.6091660     0.2193680    -0.0000060
  C       -2.2505560    -0.3204400     1.2726240
  C       -2.2505640    -0.3204870    -1.2726120
  C        0.7061140     1.0894960    -0.0000070
  C        0.3060350    -1.3272880     0.0000050
  C        2.1126960     0.7529310    -0.0000050
  C        1.6422530    -1.6174930     0.0000090
  C        2.5632190    -0.5392750     0.0000030
  H       -1.6749870     1.3090010    -0.0000250
  H       -3.3054200    -0.0314760     1.3049310
  H       -2.2011690    -1.4127350     1.3198810
  H       -1.7528960     0.0901600     2.1548740
  H       -1.7529050     0.0900740    -2.1548810
  H       -3.3054260    -0.0315150    -1.3049260
  H       -2.2011880    -1.4127830    -1.3198260
  H       -0.4545900    -2.1014670     0.0000100
  H        2.7949640     1.5970390    -0.0000090
  H        1.9701580    -2.6507840     0.0000170
  H        3.6325460    -0.7390360     0.0000060
units angstrom
no_reorient  #important for SAPT in psi4, default
symmetry c1  #important for SAPT in psi4, default
}

set PROPERTIES_ORIGIN ["COM"]
properties('MP2/aug-cc-pvtz', properties = ['dipole'])
--------------------------------------------------------------------------

    Molecular point group: c1
  Charge       = 0
  Multiplicity = 1
  Basis Set: AUG-CC-PVTZ
    Blend: AUG-CC-PVTZ
  Basis Set: (AUG-CC-PVTZ AUX)
    Blend: AUG-CC-PVTZ-JKFIT

    Orbital Energies [Eh]
    ---------------------

    Doubly Occupied:

       1A    -20.503898     2A    -15.621065     3A    -11.348631
       4A    -11.306145     5A    -11.273837     6A    -11.269008
       7A    -11.239561     8A    -11.235923     9A    -11.229180
      10A    -11.228136    11A     -1.366995    12A     -1.275493
      13A     -1.122754    14A     -1.050975    15A     -1.023255
      16A     -0.950479    17A     -0.893427    18A     -0.855979
      19A     -0.803498    20A     -0.711039    21A     -0.700291
      22A     -0.655639    23A     -0.639937    24A     -0.627980
      25A     -0.613205    26A     -0.604111    27A     -0.564165
      28A     -0.561940    29A     -0.547924    30A     -0.544221
      31A     -0.523514    32A     -0.504156    33A     -0.486963
      34A     -0.472714    35A     -0.417238    36A     -0.406299
      37A     -0.308233

  @DF-RHF Final Energy:  -438.81791503477075

   => Energetics <=

    Nuclear Repulsion Energy =            527.9317940925656103
    One-Electron Energy =               -1642.5238005840876667
    Two-Electron Energy =                 675.7740914567514210
    Total Energy =                       -438.8179150347707491
  Basis Set: (AUG-CC-PVTZ AUX)
    Blend: AUG-CC-PVTZ-RI
    Molecular point group: c1

    Geometry (in Angstrom), charge = 0, multiplicity = 1:

       Center              X                  Y                   Z               Mass
    ------------   -----------------  -----------------  -----------------  -----------------
         O            0.190794666435     2.203898769067    -0.002363437669    15.994914619570
         N           -0.211612033565    -0.067008730933     0.020668662331    14.003074004430
         C           -1.669056333565     0.179963769067    -0.002357437669    12.000000000000
         C           -2.310446333565    -0.359844230933     1.270272562331    12.000000000000
         C           -2.310454333565    -0.359891230933    -1.274963437669    12.000000000000
         C            0.646223666435     1.050091769067    -0.002358437669    12.000000000000
         C            0.246144666435    -1.366692230933    -0.002346437669    12.000000000000
         C            2.052805666435     0.713526769067    -0.002356437669    12.000000000000
         C            1.582362666435    -1.656897230933    -0.002342437669    12.000000000000
         C            2.503328666435    -0.578679230933    -0.002348437669    12.000000000000
         H           -1.734877333565     1.269596769067    -0.002376437669     1.007825032230
         H           -3.365310333565    -0.070880230933     1.302579562331     1.007825032230
         H           -2.261059333565    -1.452139230933     1.317529562331     1.007825032230
         H           -1.812786333565     0.050755769067     2.152522562331     1.007825032230
         H           -1.812795333565     0.050669769067    -2.157232437669     1.007825032230
         H           -3.365316333565    -0.070919230933    -1.307277437669     1.007825032230
         H           -2.261078333565    -1.452187230933    -1.322177437669     1.007825032230
         H           -0.514480333565    -2.140871230933    -0.002341437669     1.007825032230
         H            2.735073666435     1.557634769067    -0.002360437669     1.007825032230
         H            1.910267666435    -2.690188230933    -0.002334437669     1.007825032230
         H            3.572655666435    -0.778440230933    -0.002345437669     1.007825032230

  Basis Set: AUG-CC-PVTZ
    Blend: AUG-CC-PVTZ
  Basis Set: (AUG-CC-PVTZ AUX)
    Blend: AUG-CC-PVTZ-JKFIT
	 Reference Energy          =    -438.8179150347707491 [Eh]
	 Singles Energy            =      -0.0000000000000000 [Eh]
	 Same-Spin Energy          =      -0.4677983736841912 [Eh]
	 Opposite-Spin Energy      =      -1.4972043545716160 [Eh]
	 Correlation Energy        =      -1.9650027282558074 [Eh]
	 Total Energy              =    -440.7829177630265463 [Eh]

	 ================> DF-SCS-MP2 Energies <==================
	-----------------------------------------------------------
	 SCS Same-Spin Scale       =       0.3333333333333333 [-]
	 SCS Opposite-Spin Scale   =       1.2000000000000000 [-]
	 SCS Same-Spin Energy      =      -0.1559327912280637 [Eh]
	 SCS Opposite-Spin Energy  =      -1.7966452254859393 [Eh]
	 SCS Correlation Energy    =      -1.9525780167140030 [Eh]
	 SCS Total Energy          =    -440.7704930514847774 [Eh]
	-----------------------------------------------------------

  Dipole Moment: [D]
     X:    -0.6376      Y:    -3.9152      Z:    -0.0211     Total:     3.9668

*** Psi4 exiting successfully. Buy a developer a beer!
