                               Psi4 1.4a3.dev225

  ==> Input File <==

--------------------------------------------------------------------------
#psi4
#
memory 32 gb

molecule  {
0 1
  O        0.2506850     2.2433030    -0.0000120
  N       -0.1535360    -0.0391100    -0.0000040
  C       -1.6091660     0.2193680    -0.0000060
  C       -2.2505560    -0.3204400     1.2726240
  C       -2.2505640    -0.3204870    -1.2726120
  C        0.7364108     1.1292717    -0.0000071
  C        0.3060350    -1.3272880     0.0000050
  C        2.1126960     0.7529310    -0.0000050
  C        1.6422530    -1.6174930     0.0000090
  C        2.5632190    -0.5392750     0.0000030
  H       -1.6749870     1.3090010    -0.0000250
  H       -3.3054200    -0.0314760     1.3049310
  H       -2.2011690    -1.4127350     1.3198810
  H       -1.7528960     0.0901600     2.1548740
  H       -1.7529050     0.0900740    -2.1548810
  H       -3.3054260    -0.0315150    -1.3049260
  H       -2.2011880    -1.4127830    -1.3198260
  H       -0.4545900    -2.1014670     0.0000100
  H        2.7949640     1.5970390    -0.0000090
  H        1.9701580    -2.6507840     0.0000170
  H        3.6325460    -0.7390360     0.0000060
units angstrom
no_reorient  #important for SAPT in psi4, default
symmetry c1  #important for SAPT in psi4, default
}

set PROPERTIES_ORIGIN ["COM"]
properties('MP2/aug-cc-pvtz', properties = ['dipole'])
--------------------------------------------------------------------------

    Molecular point group: c1
  Charge       = 0
  Multiplicity = 1
  Basis Set: AUG-CC-PVTZ
    Blend: AUG-CC-PVTZ
  Basis Set: (AUG-CC-PVTZ AUX)
    Blend: AUG-CC-PVTZ-JKFIT

    Orbital Energies [Eh]
    ---------------------

    Doubly Occupied:

       1A    -20.512986     2A    -15.615965     3A    -11.351691
       4A    -11.304952     5A    -11.272044     6A    -11.271183
       7A    -11.234533     8A    -11.231712     9A    -11.227217
      10A    -11.227201    11A     -1.380391    12A     -1.273142
      13A     -1.121192    14A     -1.048202    15A     -1.020575
      16A     -0.949013    17A     -0.893319    18A     -0.847840
      19A     -0.802654    20A     -0.711303    21A     -0.697192
      22A     -0.655844    23A     -0.639230    24A     -0.623459
      25A     -0.613248    26A     -0.609886    27A     -0.565925
      28A     -0.561275    29A     -0.548932    30A     -0.542473
      31A     -0.524899    32A     -0.506354    33A     -0.483380
      34A     -0.478298    35A     -0.422319    36A     -0.403871
      37A     -0.305755

  @DF-RHF Final Energy:  -438.81556472641506

   => Energetics <=

    Nuclear Repulsion Energy =            527.4627924979524778
    One-Electron Energy =               -1641.5977997799795958
    Two-Electron Energy =                 675.3194425556121132
    Total Energy =                       -438.8155647264150048
  Basis Set: (AUG-CC-PVTZ AUX)
    Blend: AUG-CC-PVTZ-RI
    Molecular point group: c1

    Geometry (in Angstrom), charge = 0, multiplicity = 1:

       Center              X                  Y                   Z               Mass
    ------------   -----------------  -----------------  -----------------  -----------------
         O            0.188327889386     2.201592184167    -0.000011527703    15.994914619570
         N           -0.215893110614    -0.080820815833    -0.000003527703    14.003074004430
         C           -1.671523110614     0.177657184167    -0.000005527703    12.000000000000
         C           -2.312913110614    -0.362150815833     1.272624472297    12.000000000000
         C           -2.312921110614    -0.362197815833    -1.272611527703    12.000000000000
         C            0.674053689386     1.087560884167    -0.000006627703    12.000000000000
         C            0.243677889386    -1.368998815833     0.000005472297    12.000000000000
         C            2.050338889386     0.711220184167    -0.000004527703    12.000000000000
         C            1.579895889386    -1.659203815833     0.000009472297    12.000000000000
         C            2.500861889386    -0.580985815833     0.000003472297    12.000000000000
         H           -1.737344110614     1.267290184167    -0.000024527703     1.007825032230
         H           -3.367777110614    -0.073186815833     1.304931472297     1.007825032230
         H           -2.263526110614    -1.454445815833     1.319881472297     1.007825032230
         H           -1.815253110614     0.048449184167     2.154874472297     1.007825032230
         H           -1.815262110614     0.048363184167    -2.154880527703     1.007825032230
         H           -3.367783110614    -0.073225815833    -1.304925527703     1.007825032230
         H           -2.263545110614    -1.454493815833    -1.319825527703     1.007825032230
         H           -0.516947110614    -2.143177815833     0.000010472297     1.007825032230
         H            2.732606889386     1.555328184167    -0.000008527703     1.007825032230
         H            1.907800889386    -2.692494815833     0.000017472297     1.007825032230
         H            3.570188889386    -0.780746815833     0.000006472297     1.007825032230

  Basis Set: AUG-CC-PVTZ
    Blend: AUG-CC-PVTZ
  Basis Set: (AUG-CC-PVTZ AUX)
    Blend: AUG-CC-PVTZ-JKFIT
	 Reference Energy          =    -438.8155647264150616 [Eh]
	 Singles Energy            =      -0.0000000000000000 [Eh]
	 Same-Spin Energy          =      -0.4682232456055005 [Eh]
	 Opposite-Spin Energy      =      -1.4972517107974168 [Eh]
	 Correlation Energy        =      -1.9654749564029173 [Eh]
	 Total Energy              =    -440.7810396828180046 [Eh]

	 ================> DF-SCS-MP2 Energies <==================
	-----------------------------------------------------------
	 SCS Same-Spin Scale       =       0.3333333333333333 [-]
	 SCS Opposite-Spin Scale   =       1.2000000000000000 [-]
	 SCS Same-Spin Energy      =      -0.1560744152018335 [Eh]
	 SCS Opposite-Spin Energy  =      -1.7967020529569002 [Eh]
	 SCS Correlation Energy    =      -1.9527764681587336 [Eh]
	 SCS Total Energy          =    -440.7683411945737930 [Eh]
	-----------------------------------------------------------

  Dipole Moment: [D]
     X:    -0.6388      Y:    -3.5917      Z:     0.0000     Total:     3.6481

*** Psi4 exiting successfully. Buy a developer a beer!
