                               Psi4 1.4a3.dev225

  ==> Input File <==

--------------------------------------------------------------------------
#psi4
#
memory 32 gb

molecule  {
0 1
  O        0.2506850     2.2433030    -0.0000120
  N       -0.1535360    -0.0391100    -0.0000040
  C       -1.6091660     0.2193680    -0.0000060
  C       -2.2505560    -0.3204400     1.2726240
  C       -2.2505640    -0.3204870    -1.2726120
  C        0.7061140     1.0894960    -0.0000070
  C        0.2388316    -1.1389168     0.0000037
  C        2.1126960     0.7529310    -0.0000050
  C        1.6422530    -1.6174930     0.0000090
  C        2.5632190    -0.5392750     0.0000030
  H       -1.6749870     1.3090010    -0.0000250
  H       -3.3054200    -0.0314760     1.3049310
  H       -2.2011690    -1.4127350     1.3198810
  H       -1.7528960     0.0901600     2.1548740
  H       -1.7529050     0.0900740    -2.1548810
  H       -3.3054260    -0.0315150    -1.3049260
  H       -2.2011880    -1.4127830    -1.3198260
  H       -0.4545900    -2.1014670     0.0000100
  H        2.7949640     1.5970390    -0.0000090
  H        1.9701580    -2.6507840     0.0000170
  H        3.6325460    -0.7390360     0.0000060
units angstrom
no_reorient  #important for SAPT in psi4, default
symmetry c1  #important for SAPT in psi4, default
}

set PROPERTIES_ORIGIN ["COM"]
properties('MP2/aug-cc-pvtz', properties = ['dipole'])
--------------------------------------------------------------------------

    Molecular point group: c1
  Charge       = 0
  Multiplicity = 1
  Basis Set: AUG-CC-PVTZ
    Blend: AUG-CC-PVTZ
  Basis Set: (AUG-CC-PVTZ AUX)
    Blend: AUG-CC-PVTZ-JKFIT

    Orbital Energies [Eh]
    ---------------------

    Doubly Occupied:

       1A    -20.506421     2A    -15.641835     3A    -11.350742
       4A    -11.315916     5A    -11.288755     6A    -11.260387
       7A    -11.239113     8A    -11.239098     9A    -11.232011
      10A    -11.216444    11A     -1.405947    12A     -1.329915
      13A     -1.119015    14A     -1.069535    15A     -1.003774
      16A     -0.961685    17A     -0.905413    18A     -0.876219
      19A     -0.807316    20A     -0.720697    21A     -0.700063
      22A     -0.664509    23A     -0.650438    24A     -0.645222
      25A     -0.619670    26A     -0.583897    27A     -0.573951
      28A     -0.563803    29A     -0.557911    30A     -0.547769
      31A     -0.516749    32A     -0.514994    33A     -0.485821
      34A     -0.485775    35A     -0.415533    36A     -0.414452
      37A     -0.280618

  @DF-RHF Final Energy:  -438.75693556422044

   => Energetics <=

    Nuclear Repulsion Energy =            531.7412187613821288
    One-Electron Energy =               -1649.5734902402095940
    Two-Electron Energy =                 679.0753359146069670
    Total Energy =                       -438.7569355642203845
  Basis Set: (AUG-CC-PVTZ AUX)
    Blend: AUG-CC-PVTZ-RI
    Molecular point group: c1

    Geometry (in Angstrom), charge = 0, multiplicity = 1:

       Center              X                  Y                   Z               Mass
    ------------   -----------------  -----------------  -----------------  -----------------
         O            0.196862815810     2.188584501521    -0.000011422658    15.994914619570
         N           -0.207358184190    -0.093828498479    -0.000003422658    14.003074004430
         C           -1.662988184190     0.164649501521    -0.000005422658    12.000000000000
         C           -2.304378184190    -0.375158498479     1.272624577342    12.000000000000
         C           -2.304386184190    -0.375205498479    -1.272611422658    12.000000000000
         C            0.652291815810     1.034777501521    -0.000006422658    12.000000000000
         C            0.185009415810    -1.193635298479     0.000004277342    12.000000000000
         C            2.058873815810     0.698212501521    -0.000004422658    12.000000000000
         C            1.588430815810    -1.672211498479     0.000009577342    12.000000000000
         C            2.509396815810    -0.593993498479     0.000003577342    12.000000000000
         H           -1.728809184190     1.254282501521    -0.000024422658     1.007825032230
         H           -3.359242184190    -0.086194498479     1.304931577342     1.007825032230
         H           -2.254991184190    -1.467453498479     1.319881577342     1.007825032230
         H           -1.806718184190     0.035441501521     2.154874577342     1.007825032230
         H           -1.806727184190     0.035355501521    -2.154880422658     1.007825032230
         H           -3.359248184190    -0.086233498479    -1.304925422658     1.007825032230
         H           -2.255010184190    -1.467501498479    -1.319825422658     1.007825032230
         H           -0.508412184190    -2.156185498479     0.000010577342     1.007825032230
         H            2.741141815810     1.542320501521    -0.000008422658     1.007825032230
         H            1.916335815810    -2.705502498479     0.000017577342     1.007825032230
         H            3.578723815810    -0.793754498479     0.000006577342     1.007825032230

  Basis Set: AUG-CC-PVTZ
    Blend: AUG-CC-PVTZ
  Basis Set: (AUG-CC-PVTZ AUX)
    Blend: AUG-CC-PVTZ-JKFIT
	 Reference Energy          =    -438.7569355642204414 [Eh]
	 Singles Energy            =      -0.0000000000000000 [Eh]
	 Same-Spin Energy          =      -0.4700923329978901 [Eh]
	 Opposite-Spin Energy      =      -1.4974229298040151 [Eh]
	 Correlation Energy        =      -1.9675152628019053 [Eh]
	 Total Energy              =    -440.7244508270223378 [Eh]

	 ================> DF-SCS-MP2 Energies <==================
	-----------------------------------------------------------
	 SCS Same-Spin Scale       =       0.3333333333333333 [-]
	 SCS Opposite-Spin Scale   =       1.2000000000000000 [-]
	 SCS Same-Spin Energy      =      -0.1566974443326300 [Eh]
	 SCS Opposite-Spin Energy  =      -1.7969075157648182 [Eh]
	 SCS Correlation Energy    =      -1.9536049600974483 [Eh]
	 SCS Total Energy          =    -440.7105405243178780 [Eh]
	-----------------------------------------------------------

  Dipole Moment: [D]
     X:    -1.5086      Y:    -3.7289      Z:     0.0000     Total:     4.0225

*** Psi4 exiting successfully. Buy a developer a beer!
