                               Psi4 1.4a3.dev225

  ==> Input File <==

--------------------------------------------------------------------------
#psi4
#
memory 32 gb

molecule  {
0 1
  O        0.2506850     2.2433030    -0.0000120
  N       -0.1557936    -0.0505359     0.0230205
  C       -1.6091660     0.2193680    -0.0000060
  C       -2.2505560    -0.3204400     1.2726240
  C       -2.2505640    -0.3204870    -1.2726120
  C        0.7061140     1.0894960    -0.0000070
  C        0.3060350    -1.3272880     0.0000050
  C        2.1126960     0.7529310    -0.0000050
  C        1.6422530    -1.6174930     0.0000090
  C        2.5632190    -0.5392750     0.0000030
  H       -1.6749870     1.3090010    -0.0000250
  H       -3.3054200    -0.0314760     1.3049310
  H       -2.2011690    -1.4127350     1.3198810
  H       -1.7528960     0.0901600     2.1548740
  H       -1.7529050     0.0900740    -2.1548810
  H       -3.3054260    -0.0315150    -1.3049260
  H       -2.2011880    -1.4127830    -1.3198260
  H       -0.4545900    -2.1014670     0.0000100
  H        2.7949640     1.5970390    -0.0000090
  H        1.9701580    -2.6507840     0.0000170
  H        3.6325460    -0.7390360     0.0000060
units angstrom
no_reorient  #important for SAPT in psi4, default
symmetry c1  #important for SAPT in psi4, default
}

set PROPERTIES_ORIGIN ["COM"]
properties('MP2/aug-cc-pvtz', properties = ['dipole'])
--------------------------------------------------------------------------

    Molecular point group: c1
  Charge       = 0
  Multiplicity = 1
  Basis Set: AUG-CC-PVTZ
    Blend: AUG-CC-PVTZ
  Basis Set: (AUG-CC-PVTZ AUX)
    Blend: AUG-CC-PVTZ-JKFIT

    Orbital Energies [Eh]
    ---------------------

    Doubly Occupied:

       1A    -20.507073     2A    -15.621810     3A    -11.351318
       4A    -11.305094     5A    -11.274487     6A    -11.268896
       7A    -11.237115     8A    -11.234593     9A    -11.229348
      10A    -11.228311    11A     -1.367035    12A     -1.279627
      13A     -1.122324    14A     -1.051640    15A     -1.021621
      16A     -0.950826    17A     -0.893067    18A     -0.855646
      19A     -0.804133    20A     -0.711913    21A     -0.698689
      22A     -0.655522    23A     -0.641691    24A     -0.628198
      25A     -0.612712    26A     -0.604532    27A     -0.564734
      28A     -0.562298    29A     -0.547954    30A     -0.543437
      31A     -0.525115    32A     -0.504975    33A     -0.486528
      34A     -0.474792    35A     -0.418291    36A     -0.406944
      37A     -0.306098

  @DF-RHF Final Energy:  -438.81739662944182

   => Energetics <=

    Nuclear Repulsion Energy =            527.8890777665849328
    One-Electron Energy =               -1642.4161725769160967
    Two-Electron Energy =                 675.7096981808892906
    Total Energy =                       -438.8173966294418733
  Basis Set: (AUG-CC-PVTZ AUX)
    Blend: AUG-CC-PVTZ-RI
    Molecular point group: c1

    Geometry (in Angstrom), charge = 0, multiplicity = 1:

       Center              X                  Y                   Z               Mass
    ------------   -----------------  -----------------  -----------------  -----------------
         O            0.191210609145     2.206241201017    -0.002363478529    15.994914619570
         N           -0.215267990855    -0.087597698983     0.020669021471    14.003074004430
         C           -1.668640390855     0.182306201017    -0.002357478529    12.000000000000
         C           -2.310030390855    -0.357501798983     1.270272521471    12.000000000000
         C           -2.310038390855    -0.357548798983    -1.274963478529    12.000000000000
         C            0.646639609145     1.052434201017    -0.002358478529    12.000000000000
         C            0.246560609145    -1.364349798983    -0.002346478529    12.000000000000
         C            2.053221609145     0.715869201017    -0.002356478529    12.000000000000
         C            1.582778609145    -1.654554798983    -0.002342478529    12.000000000000
         C            2.503744609145    -0.576336798983    -0.002348478529    12.000000000000
         H           -1.734461390855     1.271939201017    -0.002376478529     1.007825032230
         H           -3.364894390855    -0.068537798983     1.302579521471     1.007825032230
         H           -2.260643390855    -1.449796798983     1.317529521471     1.007825032230
         H           -1.812370390855     0.053098201017     2.152522521471     1.007825032230
         H           -1.812379390855     0.053012201017    -2.157232478529     1.007825032230
         H           -3.364900390855    -0.068576798983    -1.307277478529     1.007825032230
         H           -2.260662390855    -1.449844798983    -1.322177478529     1.007825032230
         H           -0.514064390855    -2.138528798983    -0.002341478529     1.007825032230
         H            2.735489609145     1.559977201017    -0.002360478529     1.007825032230
         H            1.910683609145    -2.687845798983    -0.002334478529     1.007825032230
         H            3.573071609145    -0.776097798983    -0.002345478529     1.007825032230

  Basis Set: AUG-CC-PVTZ
    Blend: AUG-CC-PVTZ
  Basis Set: (AUG-CC-PVTZ AUX)
    Blend: AUG-CC-PVTZ-JKFIT
	 Reference Energy          =    -438.8173966294418165 [Eh]
	 Singles Energy            =      -0.0000000000000000 [Eh]
	 Same-Spin Energy          =      -0.4681420088471647 [Eh]
	 Opposite-Spin Energy      =      -1.4973979340724148 [Eh]
	 Correlation Energy        =      -1.9655399429195795 [Eh]
	 Total Energy              =    -440.7829365723613932 [Eh]

	 ================> DF-SCS-MP2 Energies <==================
	-----------------------------------------------------------
	 SCS Same-Spin Scale       =       0.3333333333333333 [-]
	 SCS Opposite-Spin Scale   =       1.2000000000000000 [-]
	 SCS Same-Spin Energy      =      -0.1560473362823882 [Eh]
	 SCS Opposite-Spin Energy  =      -1.7968775208868977 [Eh]
	 SCS Correlation Energy    =      -1.9529248571692859 [Eh]
	 SCS Total Energy          =    -440.7703214866111239 [Eh]
	-----------------------------------------------------------

  Dipole Moment: [D]
     X:    -0.6896      Y:    -3.8214      Z:    -0.0209     Total:     3.8832

*** Psi4 exiting successfully. Buy a developer a beer!
