                               Psi4 1.4a3.dev225

  ==> Input File <==

--------------------------------------------------------------------------
#psi4
#
memory 32 gb

molecule  {
0 1
  O        0.2506850     2.2433030    -0.0000120
  N       -0.1535360    -0.0391100    -0.0000040
  C       -1.6091660     0.2193680    -0.0000060
  C       -2.2505560    -0.3204400     1.2726240
  C       -2.2505640    -0.3204870    -1.2726120
  C        0.7061140     1.0894960    -0.0000070
  C        0.3060350    -1.3272880     0.0000050
  C        2.1126960     0.7529310    -0.0000050
  C        1.6422530    -1.6174930     0.0000090
  C        2.5632190    -0.5392750     0.0000030
  H       -1.6629277     1.1093649    -0.0000215
  H       -3.3054200    -0.0314760     1.3049310
  H       -2.2011690    -1.4127350     1.3198810
  H       -1.7528960     0.0901600     2.1548740
  H       -1.7529050     0.0900740    -2.1548810
  H       -3.3054260    -0.0315150    -1.3049260
  H       -2.2011880    -1.4127830    -1.3198260
  H       -0.4545900    -2.1014670     0.0000100
  H        2.7949640     1.5970390    -0.0000090
  H        1.9701580    -2.6507840     0.0000170
  H        3.6325460    -0.7390360     0.0000060
units angstrom
no_reorient  #important for SAPT in psi4, default
symmetry c1  #important for SAPT in psi4, default
}

set PROPERTIES_ORIGIN ["COM"]
properties('MP2/aug-cc-pvtz', properties = ['dipole'])
--------------------------------------------------------------------------

    Molecular point group: c1
  Charge       = 0
  Multiplicity = 1
  Basis Set: AUG-CC-PVTZ
    Blend: AUG-CC-PVTZ
  Basis Set: (AUG-CC-PVTZ AUX)
    Blend: AUG-CC-PVTZ-JKFIT

    Orbital Energies [Eh]
    ---------------------

    Doubly Occupied:

       1A    -20.505211     2A    -15.620561     3A    -11.349736
       4A    -11.305086     5A    -11.268631     6A    -11.254190
       7A    -11.237978     8A    -11.234918     9A    -11.229085
      10A    -11.229067    11A     -1.366866    12A     -1.278339
      13A     -1.127226    14A     -1.058548    15A     -1.022245
      16A     -0.951357    17A     -0.899758    18A     -0.855620
      19A     -0.823529    20A     -0.721381    21A     -0.699536
      22A     -0.658910    23A     -0.645003    24A     -0.628289
      25A     -0.617087    26A     -0.604241    27A     -0.564400
      28A     -0.563022    29A     -0.548353    30A     -0.544520
      31A     -0.528108    32A     -0.504940    33A     -0.504635
      34A     -0.473369    35A     -0.419672    36A     -0.406422
      37A     -0.306744

  @DF-RHF Final Energy:  -438.78514413976706

   => Energetics <=

    Nuclear Repulsion Energy =            529.0127643478280106
    One-Electron Energy =               -1644.4826588601890762
    Two-Electron Energy =                 676.6847503725938395
    Total Energy =                       -438.7851441397671124
  Basis Set: (AUG-CC-PVTZ AUX)
    Blend: AUG-CC-PVTZ-RI
    Molecular point group: c1

    Geometry (in Angstrom), charge = 0, multiplicity = 1:

       Center              X                  Y                   Z               Mass
    ------------   -----------------  -----------------  -----------------  -----------------
         O            0.190891337867     2.206541750435    -0.000011562188    15.994914619570
         N           -0.213329662133    -0.075871249565    -0.000003562188    14.003074004430
         C           -1.668959662133     0.182606750435    -0.000005562188    12.000000000000
         C           -2.310349662133    -0.357201249565     1.272624437812    12.000000000000
         C           -2.310357662133    -0.357248249565    -1.272611562188    12.000000000000
         C            0.646320337867     1.052734750435    -0.000006562188    12.000000000000
         C            0.246241337867    -1.364049249565     0.000005437812    12.000000000000
         C            2.052902337867     0.716169750435    -0.000004562188    12.000000000000
         C            1.582459337867    -1.654254249565     0.000009437812    12.000000000000
         C            2.503425337867    -0.576036249565     0.000003437812    12.000000000000
         H           -1.722721362133     1.072603650435    -0.000021062188     1.007825032230
         H           -3.365213662133    -0.068237249565     1.304931437812     1.007825032230
         H           -2.260962662133    -1.449496249565     1.319881437812     1.007825032230
         H           -1.812689662133     0.053398750435     2.154874437812     1.007825032230
         H           -1.812698662133     0.053312750435    -2.154880562188     1.007825032230
         H           -3.365219662133    -0.068276249565    -1.304925562188     1.007825032230
         H           -2.260981662133    -1.449544249565    -1.319825562188     1.007825032230
         H           -0.514383662133    -2.138228249565     0.000010437812     1.007825032230
         H            2.735170337867     1.560277750435    -0.000008562188     1.007825032230
         H            1.910364337867    -2.687545249565     0.000017437812     1.007825032230
         H            3.572752337867    -0.775797249565     0.000006437812     1.007825032230

  Basis Set: AUG-CC-PVTZ
    Blend: AUG-CC-PVTZ
  Basis Set: (AUG-CC-PVTZ AUX)
    Blend: AUG-CC-PVTZ-JKFIT
	 Reference Energy          =    -438.7851441397670555 [Eh]
	 Singles Energy            =      -0.0000000000000000 [Eh]
	 Same-Spin Energy          =      -0.4671740669399509 [Eh]
	 Opposite-Spin Energy      =      -1.4957243776819500 [Eh]
	 Correlation Energy        =      -1.9628984446219009 [Eh]
	 Total Energy              =    -440.7480425843889407 [Eh]

	 ================> DF-SCS-MP2 Energies <==================
	-----------------------------------------------------------
	 SCS Same-Spin Scale       =       0.3333333333333333 [-]
	 SCS Opposite-Spin Scale   =       1.2000000000000000 [-]
	 SCS Same-Spin Energy      =      -0.1557246889799836 [Eh]
	 SCS Opposite-Spin Energy  =      -1.7948692532183399 [Eh]
	 SCS Correlation Energy    =      -1.9505939421983236 [Eh]
	 SCS Total Energy          =    -440.7357380819653940 [Eh]
	-----------------------------------------------------------

  Dipole Moment: [D]
     X:    -0.7317      Y:    -3.9366      Z:     0.0000     Total:     4.0040

*** Psi4 exiting successfully. Buy a developer a beer!
