                               Psi4 1.4a3.dev225

  ==> Input File <==

--------------------------------------------------------------------------
#psi4
#
memory 32 gb

molecule  {
0 1
  O        0.2506850     2.2433030    -0.0000120
  N       -0.1535360    -0.0391100    -0.0000040
  C       -1.6091660     0.2193680    -0.0000060
  C       -2.2505560    -0.3204400     1.2726240
  C       -2.2560535    -0.2955737    -1.2801358
  C        0.7061140     1.0894960    -0.0000070
  C        0.3060350    -1.3272880     0.0000050
  C        2.1126960     0.7529310    -0.0000050
  C        1.6422530    -1.6174930     0.0000090
  C        2.5632190    -0.5392750     0.0000030
  H       -1.6749870     1.3090010    -0.0000250
  H       -3.3054200    -0.0314760     1.3049310
  H       -2.2011690    -1.4127350     1.3198810
  H       -1.7528960     0.0901600     2.1548740
  H       -1.7529050     0.0900740    -2.1548810
  H       -3.3054260    -0.0315150    -1.3049260
  H       -2.2011880    -1.4127830    -1.3198260
  H       -0.4545900    -2.1014670     0.0000100
  H        2.7949640     1.5970390    -0.0000090
  H        1.9701580    -2.6507840     0.0000170
  H        3.6325460    -0.7390360     0.0000060
units angstrom
no_reorient  #important for SAPT in psi4, default
symmetry c1  #important for SAPT in psi4, default
}

set PROPERTIES_ORIGIN ["COM"]
properties('MP2/aug-cc-pvtz', properties = ['dipole'])
--------------------------------------------------------------------------

    Molecular point group: c1
  Charge       = 0
  Multiplicity = 1
  Basis Set: AUG-CC-PVTZ
    Blend: AUG-CC-PVTZ
  Basis Set: (AUG-CC-PVTZ AUX)
    Blend: AUG-CC-PVTZ-JKFIT

    Orbital Energies [Eh]
    ---------------------

    Doubly Occupied:

       1A    -20.505451     2A    -15.621688     3A    -11.350005
       4A    -11.305596     5A    -11.274029     6A    -11.268961
       7A    -11.238266     8A    -11.235242     9A    -11.229031
      10A    -11.228985    11A     -1.367002    12A     -1.277568
      13A     -1.122472    14A     -1.051262    15A     -1.022485
      16A     -0.951099    17A     -0.893078    18A     -0.856002
      19A     -0.803709    20A     -0.711177    21A     -0.699513
      22A     -0.655822    23A     -0.640455    24A     -0.628568
      25A     -0.613966    26A     -0.604274    27A     -0.565609
      28A     -0.558645    29A     -0.549539    30A     -0.543547
      31A     -0.525030    32A     -0.507108    33A     -0.483137
      34A     -0.473973    35A     -0.417662    36A     -0.406945
      37A     -0.307162

  @DF-RHF Final Energy:  -438.81729973632798

   => Energetics <=

    Nuclear Repulsion Energy =            527.8305275100633480
    One-Electron Energy =               -1642.3075304702426820
    Two-Electron Energy =                 675.6597032238513520
    Total Energy =                       -438.8172997363279819
  Basis Set: (AUG-CC-PVTZ AUX)
    Blend: AUG-CC-PVTZ-RI
    Molecular point group: c1

    Geometry (in Angstrom), charge = 0, multiplicity = 1:

       Center              X                  Y                   Z               Mass
    ------------   -----------------  -----------------  -----------------  -----------------
         O            0.191460533601     2.202893201913     0.000647078391    15.994914619570
         N           -0.212760466399    -0.079519798087     0.000655078391    14.003074004430
         C           -1.668390466399     0.178958201913     0.000653078391    12.000000000000
         C           -2.309780466399    -0.360849798087     1.273283078391    12.000000000000
         C           -2.315277966399    -0.335983498087    -1.279476721609    12.000000000000
         C            0.646889533601     1.049086201913     0.000652078391    12.000000000000
         C            0.246810533601    -1.367697798087     0.000664078391    12.000000000000
         C            2.053471533601     0.712521201913     0.000654078391    12.000000000000
         C            1.583028533601    -1.657902798087     0.000668078391    12.000000000000
         C            2.503994533601    -0.579684798087     0.000662078391    12.000000000000
         H           -1.734211466399     1.268591201913     0.000634078391     1.007825032230
         H           -3.364644466399    -0.071885798087     1.305590078391     1.007825032230
         H           -2.260393466399    -1.453144798087     1.320540078391     1.007825032230
         H           -1.812120466399     0.049750201913     2.155533078391     1.007825032230
         H           -1.812129466399     0.049664201913    -2.154221921609     1.007825032230
         H           -3.364650466399    -0.071924798087    -1.304266921609     1.007825032230
         H           -2.260412466399    -1.453192798087    -1.319166921609     1.007825032230
         H           -0.513814466399    -2.141876798087     0.000669078391     1.007825032230
         H            2.735739533601     1.556629201913     0.000650078391     1.007825032230
         H            1.910933533601    -2.691193798087     0.000676078391     1.007825032230
         H            3.573321533601    -0.779445798087     0.000665078391     1.007825032230

  Basis Set: AUG-CC-PVTZ
    Blend: AUG-CC-PVTZ
  Basis Set: (AUG-CC-PVTZ AUX)
    Blend: AUG-CC-PVTZ-JKFIT
	 Reference Energy          =    -438.8172997363279819 [Eh]
	 Singles Energy            =      -0.0000000000000000 [Eh]
	 Same-Spin Energy          =      -0.4679422152670433 [Eh]
	 Opposite-Spin Energy      =      -1.4972547525356814 [Eh]
	 Correlation Energy        =      -1.9651969678027248 [Eh]
	 Total Energy              =    -440.7824967041307218 [Eh]

	 ================> DF-SCS-MP2 Energies <==================
	-----------------------------------------------------------
	 SCS Same-Spin Scale       =       0.3333333333333333 [-]
	 SCS Opposite-Spin Scale   =       1.2000000000000000 [-]
	 SCS Same-Spin Energy      =      -0.1559807384223477 [Eh]
	 SCS Opposite-Spin Energy  =      -1.7967057030428177 [Eh]
	 SCS Correlation Energy    =      -1.9526864414651655 [Eh]
	 SCS Total Energy          =    -440.7699861777931574 [Eh]
	-----------------------------------------------------------

  Dipole Moment: [D]
     X:    -0.6640      Y:    -3.8540      Z:     0.0008     Total:     3.9108

*** Psi4 exiting successfully. Buy a developer a beer!
