                               Psi4 1.4a3.dev225

  ==> Input File <==

--------------------------------------------------------------------------
#psi4
#
memory 32 gb

molecule  {
0 1
  O        0.2506850     2.2433030    -0.0000120
  N       -0.1535360    -0.0391100    -0.0000040
  C       -1.6091660     0.2193680    -0.0000060
  C       -2.2505560    -0.3204400     1.2726240
  C       -2.2505640    -0.3204870    -1.2726120
  C        0.7061140     1.0894960    -0.0000070
  C        0.3060350    -1.3272880     0.0000050
  C        2.1126960     0.7529310    -0.0000050
  C        1.6422530    -1.6174930     0.0000090
  C        2.4982709    -0.6153128     0.0000034
  H       -1.6749870     1.3090010    -0.0000250
  H       -3.3054200    -0.0314760     1.3049310
  H       -2.2011690    -1.4127350     1.3198810
  H       -1.7528960     0.0901600     2.1548740
  H       -1.7529050     0.0900740    -2.1548810
  H       -3.3054260    -0.0315150    -1.3049260
  H       -2.2011880    -1.4127830    -1.3198260
  H       -0.4545900    -2.1014670     0.0000100
  H        2.7949640     1.5970390    -0.0000090
  H        1.9701580    -2.6507840     0.0000170
  H        3.6325460    -0.7390360     0.0000060
units angstrom
no_reorient  #important for SAPT in psi4, default
symmetry c1  #important for SAPT in psi4, default
}

set PROPERTIES_ORIGIN ["COM"]
properties('MP2/aug-cc-pvtz', properties = ['dipole'])
--------------------------------------------------------------------------

    Molecular point group: c1
  Charge       = 0
  Multiplicity = 1
  Basis Set: AUG-CC-PVTZ
    Blend: AUG-CC-PVTZ
  Basis Set: (AUG-CC-PVTZ AUX)
    Blend: AUG-CC-PVTZ-JKFIT

    Orbital Energies [Eh]
    ---------------------

    Doubly Occupied:

       1A    -20.497296     2A    -15.628815     3A    -11.343322
       4A    -11.314078     5A    -11.276285     6A    -11.269052
       7A    -11.234442     8A    -11.232417     9A    -11.230792
      10A    -11.230776    11A     -1.363467    12A     -1.280091
      13A     -1.133197    14A     -1.054904    15A     -1.019619
      16A     -0.952630    17A     -0.902761    18A     -0.849809
      19A     -0.805635    20A     -0.715127    21A     -0.703409
      22A     -0.652626    23A     -0.638985    24A     -0.629952
      25A     -0.615622    26A     -0.600331    27A     -0.564122
      28A     -0.561993    29A     -0.548993    30A     -0.544554
      31A     -0.521584    32A     -0.505422    33A     -0.489707
      34A     -0.479415    35A     -0.410206    36A     -0.408389
      37A     -0.300710

  @DF-RHF Final Energy:  -438.80114825094034

   => Energetics <=

    Nuclear Repulsion Energy =            528.9008137696132508
    One-Electron Energy =               -1644.3828560326132902
    Two-Electron Energy =                 676.6808940120597526
    Total Energy =                       -438.8011482509402867
  Basis Set: (AUG-CC-PVTZ AUX)
    Blend: AUG-CC-PVTZ-RI
    Molecular point group: c1

    Geometry (in Angstrom), charge = 0, multiplicity = 1:

       Center              X                  Y                   Z               Mass
    ------------   -----------------  -----------------  -----------------  -----------------
         O            0.196665392425     2.211730211591    -0.000011571472    15.994914619570
         N           -0.207555607575    -0.070682788409    -0.000003571472    14.003074004430
         C           -1.663185607575     0.187795211591    -0.000005571472    12.000000000000
         C           -2.304575607575    -0.352012788409     1.272624428528    12.000000000000
         C           -2.304583607575    -0.352059788409    -1.272611571472    12.000000000000
         C            0.652094392425     1.057923211591    -0.000006571472    12.000000000000
         C            0.252015392425    -1.358860788409     0.000005428528    12.000000000000
         C            2.058676392425     0.721358211591    -0.000004571472    12.000000000000
         C            1.588233392425    -1.649065788409     0.000009428528    12.000000000000
         C            2.444251292425    -0.646885588409     0.000003828528    12.000000000000
         H           -1.729006607575     1.277428211591    -0.000024571472     1.007825032230
         H           -3.359439607575    -0.063048788409     1.304931428528     1.007825032230
         H           -2.255188607575    -1.444307788409     1.319881428528     1.007825032230
         H           -1.806915607575     0.058587211591     2.154874428528     1.007825032230
         H           -1.806924607575     0.058501211591    -2.154880571472     1.007825032230
         H           -3.359445607575    -0.063087788409    -1.304925571472     1.007825032230
         H           -2.255207607575    -1.444355788409    -1.319825571472     1.007825032230
         H           -0.508609607575    -2.133039788409     0.000010428528     1.007825032230
         H            2.740944392425     1.565466211591    -0.000008571472     1.007825032230
         H            1.916138392425    -2.682356788409     0.000017428528     1.007825032230
         H            3.578526392425    -0.770608788409     0.000006428528     1.007825032230

  Basis Set: AUG-CC-PVTZ
    Blend: AUG-CC-PVTZ
  Basis Set: (AUG-CC-PVTZ AUX)
    Blend: AUG-CC-PVTZ-JKFIT
	 Reference Energy          =    -438.8011482509403436 [Eh]
	 Singles Energy            =      -0.0000000000000000 [Eh]
	 Same-Spin Energy          =      -0.4702603154173208 [Eh]
	 Opposite-Spin Energy      =      -1.4992664762795342 [Eh]
	 Correlation Energy        =      -1.9695267916968551 [Eh]
	 Total Energy              =    -440.7706750426372082 [Eh]

	 ================> DF-SCS-MP2 Energies <==================
	-----------------------------------------------------------
	 SCS Same-Spin Scale       =       0.3333333333333333 [-]
	 SCS Opposite-Spin Scale   =       1.2000000000000000 [-]
	 SCS Same-Spin Energy      =      -0.1567534384724403 [Eh]
	 SCS Opposite-Spin Energy  =      -1.7991197715354410 [Eh]
	 SCS Correlation Energy    =      -1.9558732100078813 [Eh]
	 SCS Total Energy          =    -440.7570214609482377 [Eh]
	-----------------------------------------------------------

  Dipole Moment: [D]
     X:    -0.8145      Y:    -4.0499      Z:     0.0000     Total:     4.1310

*** Psi4 exiting successfully. Buy a developer a beer!
