                               Psi4 1.4a3.dev225

  ==> Input File <==

--------------------------------------------------------------------------
#psi4
#
memory 32 gb

molecule  {
0 1
  O        0.2506850     2.2433030    -0.0000120
  N       -0.1535360    -0.0391100    -0.0000040
  C       -1.6091660     0.2193680    -0.0000060
  C       -2.2716000    -0.3381511     1.3143789
  C       -2.2505640    -0.3204870    -1.2726120
  C        0.7061140     1.0894960    -0.0000070
  C        0.3060350    -1.3272880     0.0000050
  C        2.1126960     0.7529310    -0.0000050
  C        1.6422530    -1.6174930     0.0000090
  C        2.5632190    -0.5392750     0.0000030
  H       -1.6749870     1.3090010    -0.0000250
  H       -3.3054200    -0.0314760     1.3049310
  H       -2.2011690    -1.4127350     1.3198810
  H       -1.7528960     0.0901600     2.1548740
  H       -1.7529050     0.0900740    -2.1548810
  H       -3.3054260    -0.0315150    -1.3049260
  H       -2.2011880    -1.4127830    -1.3198260
  H       -0.4545900    -2.1014670     0.0000100
  H        2.7949640     1.5970390    -0.0000090
  H        1.9701580    -2.6507840     0.0000170
  H        3.6325460    -0.7390360     0.0000060
units angstrom
no_reorient  #important for SAPT in psi4, default
symmetry c1  #important for SAPT in psi4, default
}

set PROPERTIES_ORIGIN ["COM"]
properties('MP2/aug-cc-pvtz', properties = ['dipole'])
--------------------------------------------------------------------------

    Molecular point group: c1
  Charge       = 0
  Multiplicity = 1
  Basis Set: AUG-CC-PVTZ
    Blend: AUG-CC-PVTZ
  Basis Set: (AUG-CC-PVTZ AUX)
    Blend: AUG-CC-PVTZ-JKFIT

    Orbital Energies [Eh]
    ---------------------

    Doubly Occupied:

       1A    -20.505327     2A    -15.621648     3A    -11.349865
       4A    -11.305635     5A    -11.276029     6A    -11.268898
       7A    -11.238364     8A    -11.235252     9A    -11.228758
      10A    -11.227041    11A     -1.366794    12A     -1.276929
      13A     -1.120872    14A     -1.047149    15A     -1.022455
      16A     -0.951061    17A     -0.893643    18A     -0.855930
      19A     -0.804038    20A     -0.710583    21A     -0.699008
      22A     -0.654492    23A     -0.640515    24A     -0.626669
      25A     -0.612032    26A     -0.604100    27A     -0.567201
      28A     -0.563831    29A     -0.551457    30A     -0.544086
      31A     -0.526016    32A     -0.503359    33A     -0.485389
      34A     -0.472185    35A     -0.417836    36A     -0.405147
      37A     -0.307009

  @DF-RHF Final Energy:  -438.81630972961005

   => Energetics <=

    Nuclear Repulsion Energy =            527.0283830196659665
    One-Electron Energy =               -1640.7161787114762319
    Two-Electron Energy =                 674.8714859622001541
    Total Energy =                       -438.8163097296099977
  Basis Set: (AUG-CC-PVTZ AUX)
    Blend: AUG-CC-PVTZ-RI
    Molecular point group: c1

    Geometry (in Angstrom), charge = 0, multiplicity = 1:

       Center              X                  Y                   Z               Mass
    ------------   -----------------  -----------------  -----------------  -----------------
         O            0.192822136070     2.206624436494    -0.003666657158    15.994914619570
         N           -0.211398863930    -0.075788563506    -0.003658657158    14.003074004430
         C           -1.667028863930     0.182689436494    -0.003660657158    12.000000000000
         C           -2.329462863930    -0.374829663506     1.310724242842    12.000000000000
         C           -2.308426863930    -0.357165563506    -1.276266657158    12.000000000000
         C            0.648251136070     1.052817436494    -0.003661657158    12.000000000000
         C            0.248172136070    -1.363966563506    -0.003649657158    12.000000000000
         C            2.054833136070     0.716252436494    -0.003659657158    12.000000000000
         C            1.584390136070    -1.654171563506    -0.003645657158    12.000000000000
         C            2.505356136070    -0.575953563506    -0.003651657158    12.000000000000
         H           -1.732849863930     1.272322436494    -0.003679657158     1.007825032230
         H           -3.363282863930    -0.068154563506     1.301276342842     1.007825032230
         H           -2.259031863930    -1.449413563506     1.316226342842     1.007825032230
         H           -1.810758863930     0.053481436494     2.151219342842     1.007825032230
         H           -1.810767863930     0.053395436494    -2.158535657158     1.007825032230
         H           -3.363288863930    -0.068193563506    -1.308580657158     1.007825032230
         H           -2.259050863930    -1.449461563506    -1.323480657158     1.007825032230
         H           -0.512452863930    -2.138145563506    -0.003644657158     1.007825032230
         H            2.737101136070     1.560360436494    -0.003663657158     1.007825032230
         H            1.912295136070    -2.687462563506    -0.003637657158     1.007825032230
         H            3.574683136070    -0.775714563506    -0.003648657158     1.007825032230

  Basis Set: AUG-CC-PVTZ
    Blend: AUG-CC-PVTZ
  Basis Set: (AUG-CC-PVTZ AUX)
    Blend: AUG-CC-PVTZ-JKFIT
	 Reference Energy          =    -438.8163097296100545 [Eh]
	 Singles Energy            =      -0.0000000000000000 [Eh]
	 Same-Spin Energy          =      -0.4677179012593458 [Eh]
	 Opposite-Spin Energy      =      -1.4971645571233747 [Eh]
	 Correlation Energy        =      -1.9648824583827205 [Eh]
	 Total Energy              =    -440.7811921879927581 [Eh]

	 ================> DF-SCS-MP2 Energies <==================
	-----------------------------------------------------------
	 SCS Same-Spin Scale       =       0.3333333333333333 [-]
	 SCS Opposite-Spin Scale   =       1.2000000000000000 [-]
	 SCS Same-Spin Energy      =      -0.1559059670864486 [Eh]
	 SCS Opposite-Spin Energy  =      -1.7965974685480497 [Eh]
	 SCS Correlation Energy    =      -1.9525034356344984 [Eh]
	 SCS Total Energy          =    -440.7688131652445804 [Eh]
	-----------------------------------------------------------

  Dipole Moment: [D]
     X:    -0.6590      Y:    -3.8700      Z:    -0.0141     Total:     3.9258

*** Psi4 exiting successfully. Buy a developer a beer!
