                               Psi4 1.4a3.dev225

  ==> Input File <==

--------------------------------------------------------------------------
#psi4
#
memory 32 gb

molecule  {
0 1
  O        0.2506850     2.2433030    -0.0000120
  N       -0.1535360    -0.0391100    -0.0000040
  C       -1.6091660     0.2193680    -0.0000060
  C       -2.2505560    -0.3204400     1.2726240
  C       -2.2505640    -0.3204870    -1.2726120
  C        0.7061140     1.0894960    -0.0000070
  C        0.3060350    -1.3272880     0.0000050
  C        2.1126960     0.7529310    -0.0000050
  C        1.6422530    -1.6174930     0.0000090
  C        2.5632190    -0.5392750     0.0000030
  H       -1.6749870     1.3090010    -0.0000250
  H       -3.3054200    -0.0314760     1.3049310
  H       -2.2011690    -1.4127350     1.3198810
  H       -1.7528960     0.0901600     2.1548740
  H       -1.7491438     0.0723363    -2.1608074
  H       -3.3054260    -0.0315150    -1.3049260
  H       -2.2011880    -1.4127830    -1.3198260
  H       -0.4545900    -2.1014670     0.0000100
  H        2.7949640     1.5970390    -0.0000090
  H        1.9701580    -2.6507840     0.0000170
  H        3.6325460    -0.7390360     0.0000060
units angstrom
no_reorient  #important for SAPT in psi4, default
symmetry c1  #important for SAPT in psi4, default
}

set PROPERTIES_ORIGIN ["COM"]
properties('MP2/aug-cc-pvtz', properties = ['dipole'])
--------------------------------------------------------------------------

    Molecular point group: c1
  Charge       = 0
  Multiplicity = 1
  Basis Set: AUG-CC-PVTZ
    Blend: AUG-CC-PVTZ
  Basis Set: (AUG-CC-PVTZ AUX)
    Blend: AUG-CC-PVTZ-JKFIT

    Orbital Energies [Eh]
    ---------------------

    Doubly Occupied:

       1A    -20.505414     2A    -15.621480     3A    -11.349942
       4A    -11.305617     5A    -11.274304     6A    -11.268926
       7A    -11.238323     8A    -11.235240     9A    -11.228860
      10A    -11.228751    11A     -1.366978    12A     -1.277600
      13A     -1.122525    14A     -1.051250    15A     -1.022524
      16A     -0.950678    17A     -0.893299    18A     -0.855882
      19A     -0.804006    20A     -0.711543    21A     -0.699530
      22A     -0.655662    23A     -0.640814    24A     -0.628116
      25A     -0.612805    26A     -0.604284    27A     -0.564571
      28A     -0.561378    29A     -0.548301    30A     -0.543774
      31A     -0.524431    32A     -0.505108    33A     -0.486487
      34A     -0.473793    35A     -0.417732    36A     -0.406650
      37A     -0.307142

  @DF-RHF Final Energy:  -438.81795513576429

   => Energetics <=

    Nuclear Repulsion Energy =            527.9093208265909425
    One-Electron Energy =               -1642.4671086318487596
    Two-Electron Energy =                 675.7398326694934667
    Total Energy =                       -438.8179551357642367
  Basis Set: (AUG-CC-PVTZ AUX)
    Blend: AUG-CC-PVTZ-RI
    Molecular point group: c1

    Geometry (in Angstrom), charge = 0, multiplicity = 1:

       Center              X                  Y                   Z               Mass
    ------------   -----------------  -----------------  -----------------  -----------------
         O            0.190952344469     2.205204455964     0.000032033701    15.994914619570
         N           -0.213268655531    -0.077208544036     0.000040033701    14.003074004430
         C           -1.668898655531     0.181269455964     0.000038033701    12.000000000000
         C           -2.310288655531    -0.358538544036     1.272668033701    12.000000000000
         C           -2.310296655531    -0.358585544036    -1.272567966299    12.000000000000
         C            0.646381344469     1.051397455964     0.000037033701    12.000000000000
         C            0.246302344469    -1.365386544036     0.000049033701    12.000000000000
         C            2.052963344469     0.714832455964     0.000039033701    12.000000000000
         C            1.582520344469    -1.655591544036     0.000053033701    12.000000000000
         C            2.503486344469    -0.577373544036     0.000047033701    12.000000000000
         H           -1.734719655531     1.270902455964     0.000019033701     1.007825032230
         H           -3.365152655531    -0.069574544036     1.304975033701     1.007825032230
         H           -2.260901655531    -1.450833544036     1.319925033701     1.007825032230
         H           -1.812628655531     0.052061455964     2.154918033701     1.007825032230
         H           -1.808876455531     0.034237755964    -2.160763366299     1.007825032230
         H           -3.365158655531    -0.069613544036    -1.304881966299     1.007825032230
         H           -2.260920655531    -1.450881544036    -1.319781966299     1.007825032230
         H           -0.514322655531    -2.139565544036     0.000054033701     1.007825032230
         H            2.735231344469     1.558940455964     0.000035033701     1.007825032230
         H            1.910425344469    -2.688882544036     0.000061033701     1.007825032230
         H            3.572813344469    -0.777134544036     0.000050033701     1.007825032230

  Basis Set: AUG-CC-PVTZ
    Blend: AUG-CC-PVTZ
  Basis Set: (AUG-CC-PVTZ AUX)
    Blend: AUG-CC-PVTZ-JKFIT
	 Reference Energy          =    -438.8179551357642936 [Eh]
	 Singles Energy            =      -0.0000000000000000 [Eh]
	 Same-Spin Energy          =      -0.4679633853496784 [Eh]
	 Opposite-Spin Energy      =      -1.4972655932311851 [Eh]
	 Correlation Energy        =      -1.9652289785808634 [Eh]
	 Total Energy              =    -440.7831841143451470 [Eh]

	 ================> DF-SCS-MP2 Energies <==================
	-----------------------------------------------------------
	 SCS Same-Spin Scale       =       0.3333333333333333 [-]
	 SCS Opposite-Spin Scale   =       1.2000000000000000 [-]
	 SCS Same-Spin Energy      =      -0.1559877951165594 [Eh]
	 SCS Opposite-Spin Energy  =      -1.7967187118774222 [Eh]
	 SCS Correlation Energy    =      -1.9527065069939815 [Eh]
	 SCS Total Energy          =    -440.7706616427582844 [Eh]
	-----------------------------------------------------------

  Dipole Moment: [D]
     X:    -0.6635      Y:    -3.8739      Z:    -0.0002     Total:     3.9303

*** Psi4 exiting successfully. Buy a developer a beer!
