                               Psi4 1.4a3.dev225

  ==> Input File <==

--------------------------------------------------------------------------
#psi4
#
memory 32 gb

molecule  {
0 1
  O        0.2506850     2.2433030    -0.0000120
  N       -0.1535360    -0.0391100    -0.0000040
  C       -1.6091660     0.2193680    -0.0000060
  C       -2.2505560    -0.3204400     1.2726240
  C       -2.2135867    -0.4662513    -1.2194168
  C        0.7061140     1.0894960    -0.0000070
  C        0.3060350    -1.3272880     0.0000050
  C        2.1126960     0.7529310    -0.0000050
  C        1.6422530    -1.6174930     0.0000090
  C        2.5632190    -0.5392750     0.0000030
  H       -1.6749870     1.3090010    -0.0000250
  H       -3.3054200    -0.0314760     1.3049310
  H       -2.2011690    -1.4127350     1.3198810
  H       -1.7528960     0.0901600     2.1548740
  H       -1.7529050     0.0900740    -2.1548810
  H       -3.3054260    -0.0315150    -1.3049260
  H       -2.2011880    -1.4127830    -1.3198260
  H       -0.4545900    -2.1014670     0.0000100
  H        2.7949640     1.5970390    -0.0000090
  H        1.9701580    -2.6507840     0.0000170
  H        3.6325460    -0.7390360     0.0000060
units angstrom
no_reorient  #important for SAPT in psi4, default
symmetry c1  #important for SAPT in psi4, default
}

set PROPERTIES_ORIGIN ["COM"]
properties('MP2/aug-cc-pvtz', properties = ['dipole'])
--------------------------------------------------------------------------

    Molecular point group: c1
  Charge       = 0
  Multiplicity = 1
  Basis Set: AUG-CC-PVTZ
    Blend: AUG-CC-PVTZ
  Basis Set: (AUG-CC-PVTZ AUX)
    Blend: AUG-CC-PVTZ-JKFIT

    Orbital Energies [Eh]
    ---------------------

    Doubly Occupied:

       1A    -20.505753     2A    -15.620638     3A    -11.350027
       4A    -11.306004     5A    -11.277673     6A    -11.268982
       7A    -11.238898     8A    -11.235476     9A    -11.232280
      10A    -11.227725    11A     -1.367417    12A     -1.278397
      13A     -1.123529    14A     -1.052735    15A     -1.023095
      16A     -0.951539    17A     -0.895728    18A     -0.855741
      19A     -0.808370    20A     -0.715243    21A     -0.700280
      22A     -0.657787    23A     -0.645532    24A     -0.629298
      25A     -0.607548    26A     -0.604697    27A     -0.587990
      28A     -0.561870    29A     -0.546539    30A     -0.535946
      31A     -0.513840    32A     -0.503147    33A     -0.480754
      34A     -0.471465    35A     -0.418379    36A     -0.404519
      37A     -0.307350

  @DF-RHF Final Energy:  -438.78586281639491

   => Energetics <=

    Nuclear Repulsion Energy =            528.5397129868547381
    One-Electron Energy =               -1643.6267669700062015
    Two-Electron Energy =                 676.3011911667565528
    Total Energy =                       -438.7858628163949106
  Basis Set: (AUG-CC-PVTZ AUX)
    Blend: AUG-CC-PVTZ-RI
    Molecular point group: c1

    Geometry (in Angstrom), charge = 0, multiplicity = 1:

       Center              X                  Y                   Z               Mass
    ------------   -----------------  -----------------  -----------------  -----------------
         O            0.187743094935     2.217833896992    -0.004668112732    15.994914619570
         N           -0.216477905065    -0.064579103008    -0.004660112732    14.003074004430
         C           -1.672107905065     0.193898896992    -0.004662112732    12.000000000000
         C           -2.313497905065    -0.345909103008     1.267967887268    12.000000000000
         C           -2.276528605065    -0.491720403008    -1.224072912732    12.000000000000
         C            0.643172094935     1.064026896992    -0.004663112732    12.000000000000
         C            0.243093094935    -1.352757103008    -0.004651112732    12.000000000000
         C            2.049754094935     0.727461896992    -0.004661112732    12.000000000000
         C            1.579311094935    -1.642962103008    -0.004647112732    12.000000000000
         C            2.500277094935    -0.564744103008    -0.004653112732    12.000000000000
         H           -1.737928905065     1.283531896992    -0.004681112732     1.007825032230
         H           -3.368361905065    -0.056945103008     1.300274887268     1.007825032230
         H           -2.264110905065    -1.438204103008     1.315224887268     1.007825032230
         H           -1.815837905065     0.064690896992     2.150217887268     1.007825032230
         H           -1.815846905065     0.064604896992    -2.159537112732     1.007825032230
         H           -3.368367905065    -0.056984103008    -1.309582112732     1.007825032230
         H           -2.264129905065    -1.438252103008    -1.324482112732     1.007825032230
         H           -0.517531905065    -2.126936103008    -0.004646112732     1.007825032230
         H            2.732022094935     1.571569896992    -0.004665112732     1.007825032230
         H            1.907216094935    -2.676253103008    -0.004639112732     1.007825032230
         H            3.569604094935    -0.764505103008    -0.004650112732     1.007825032230

  Basis Set: AUG-CC-PVTZ
    Blend: AUG-CC-PVTZ
  Basis Set: (AUG-CC-PVTZ AUX)
    Blend: AUG-CC-PVTZ-JKFIT
	 Reference Energy          =    -438.7858628163949106 [Eh]
	 Singles Energy            =      -0.0000000000000000 [Eh]
	 Same-Spin Energy          =      -0.4686563558290833 [Eh]
	 Opposite-Spin Energy      =      -1.4989786199035737 [Eh]
	 Correlation Energy        =      -1.9676349757326570 [Eh]
	 Total Energy              =    -440.7534977921275754 [Eh]

	 ================> DF-SCS-MP2 Energies <==================
	-----------------------------------------------------------
	 SCS Same-Spin Scale       =       0.3333333333333333 [-]
	 SCS Opposite-Spin Scale   =       1.2000000000000000 [-]
	 SCS Same-Spin Energy      =      -0.1562187852763611 [Eh]
	 SCS Opposite-Spin Energy  =      -1.7987743438842885 [Eh]
	 SCS Correlation Energy    =      -1.9549931291606495 [Eh]
	 SCS Total Energy          =    -440.7408559455555519 [Eh]
	-----------------------------------------------------------

  Dipole Moment: [D]
     X:    -0.6480      Y:    -3.9168      Z:     0.0314     Total:     3.9702

*** Psi4 exiting successfully. Buy a developer a beer!
