                               Psi4 1.4a3.dev225

  ==> Input File <==

--------------------------------------------------------------------------
#psi4
#
memory 32 gb

molecule  {
0 1
  O        0.2506850     2.2433030    -0.0000120
  N       -0.1535360    -0.0391100    -0.0000040
  C       -1.6091660     0.2193680    -0.0000060
  C       -2.2505560    -0.3204400     1.2726240
  C       -2.2505640    -0.3204870    -1.2726120
  C        0.7061140     1.0894960    -0.0000070
  C        0.3060350    -1.3272880     0.0000050
  C        2.1126960     0.7529310    -0.0000050
  C        1.6422530    -1.6174930     0.0000090
  C        2.5956931    -0.5012561     0.0000028
  H       -1.6749870     1.3090010    -0.0000250
  H       -3.3054200    -0.0314760     1.3049310
  H       -2.2011690    -1.4127350     1.3198810
  H       -1.7528960     0.0901600     2.1548740
  H       -1.7529050     0.0900740    -2.1548810
  H       -3.3054260    -0.0315150    -1.3049260
  H       -2.2011880    -1.4127830    -1.3198260
  H       -0.4545900    -2.1014670     0.0000100
  H        2.7949640     1.5970390    -0.0000090
  H        1.9701580    -2.6507840     0.0000170
  H        3.6325460    -0.7390360     0.0000060
units angstrom
no_reorient  #important for SAPT in psi4, default
symmetry c1  #important for SAPT in psi4, default
}

set PROPERTIES_ORIGIN ["COM"]
properties('MP2/aug-cc-pvtz', properties = ['dipole'])
--------------------------------------------------------------------------

    Molecular point group: c1
  Charge       = 0
  Multiplicity = 1
  Basis Set: AUG-CC-PVTZ
    Blend: AUG-CC-PVTZ
  Basis Set: (AUG-CC-PVTZ AUX)
    Blend: AUG-CC-PVTZ-JKFIT

    Orbital Energies [Eh]
    ---------------------

    Doubly Occupied:

       1A    -20.509155     2A    -15.618485     3A    -11.353008
       4A    -11.302160     5A    -11.273350     6A    -11.268296
       7A    -11.240594     8A    -11.235201     9A    -11.227953
      10A    -11.227937    11A     -1.368807    12A     -1.276550
      13A     -1.119692    14A     -1.051533    15A     -1.021664
      16A     -0.949867    17A     -0.890056    18A     -0.857881
      19A     -0.803412    20A     -0.710801    21A     -0.697019
      22A     -0.659244    23A     -0.642094    24A     -0.627513
      25A     -0.611928    26A     -0.605429    27A     -0.571352
      28A     -0.561408    29A     -0.547668    30A     -0.536283
      31A     -0.522615    32A     -0.504373    33A     -0.484851
      34A     -0.471608    35A     -0.420874    36A     -0.407394
      37A     -0.309482

  @DF-RHF Final Energy:  -438.81647656697697

   => Energetics <=

    Nuclear Repulsion Energy =            527.4735345147790895
    One-Electron Energy =               -1641.6049425569674440
    Two-Electron Energy =                 675.3149314752114378
    Total Energy =                       -438.8164765669770304
  Basis Set: (AUG-CC-PVTZ AUX)
    Blend: AUG-CC-PVTZ-RI
    Molecular point group: c1

    Geometry (in Angstrom), charge = 0, multiplicity = 1:

       Center              X                  Y                   Z               Mass
    ------------   -----------------  -----------------  -----------------  -----------------
         O            0.188137293928     2.201745970095    -0.000011518949    15.994914619570
         N           -0.216083706072    -0.080667029905    -0.000003518949    14.003074004430
         C           -1.671713706072     0.177810970095    -0.000005518949    12.000000000000
         C           -2.313103706072    -0.361997029905     1.272624481051    12.000000000000
         C           -2.313111706072    -0.362044029905    -1.272611518949    12.000000000000
         C            0.643566293928     1.047938970095    -0.000006518949    12.000000000000
         C            0.243487293928    -1.368845029905     0.000005481051    12.000000000000
         C            2.050148293928     0.711373970095    -0.000004518949    12.000000000000
         C            1.579705293928    -1.659050029905     0.000009481051    12.000000000000
         C            2.533145393928    -0.542813129905     0.000003281051    12.000000000000
         H           -1.737534706072     1.267443970095    -0.000024518949     1.007825032230
         H           -3.367967706072    -0.073033029905     1.304931481051     1.007825032230
         H           -2.263716706072    -1.454292029905     1.319881481051     1.007825032230
         H           -1.815443706072     0.048602970095     2.154874481051     1.007825032230
         H           -1.815452706072     0.048516970095    -2.154880518949     1.007825032230
         H           -3.367973706072    -0.073072029905    -1.304925518949     1.007825032230
         H           -2.263735706072    -1.454340029905    -1.319825518949     1.007825032230
         H           -0.517137706072    -2.143024029905     0.000010481051     1.007825032230
         H            2.732416293928     1.555481970095    -0.000008518949     1.007825032230
         H            1.907610293928    -2.692341029905     0.000017481051     1.007825032230
         H            3.569998293928    -0.780593029905     0.000006481051     1.007825032230

  Basis Set: AUG-CC-PVTZ
    Blend: AUG-CC-PVTZ
  Basis Set: (AUG-CC-PVTZ AUX)
    Blend: AUG-CC-PVTZ-JKFIT
	 Reference Energy          =    -438.8164765669769736 [Eh]
	 Singles Energy            =      -0.0000000000000000 [Eh]
	 Same-Spin Energy          =      -0.4669851095325914 [Eh]
	 Opposite-Spin Energy      =      -1.4967612377060882 [Eh]
	 Correlation Energy        =      -1.9637463472386796 [Eh]
	 Total Energy              =    -440.7802229142156420 [Eh]

	 ================> DF-SCS-MP2 Energies <==================
	-----------------------------------------------------------
	 SCS Same-Spin Scale       =       0.3333333333333333 [-]
	 SCS Opposite-Spin Scale   =       1.2000000000000000 [-]
	 SCS Same-Spin Energy      =      -0.1556617031775305 [Eh]
	 SCS Opposite-Spin Energy  =      -1.7961134852473057 [Eh]
	 SCS Correlation Energy    =      -1.9517751884248362 [Eh]
	 SCS Total Energy          =    -440.7682517554018204 [Eh]
	-----------------------------------------------------------

  Dipole Moment: [D]
     X:    -0.5954      Y:    -3.7733      Z:     0.0000     Total:     3.8199

*** Psi4 exiting successfully. Buy a developer a beer!
