                               Psi4 1.4a3.dev225

  ==> Input File <==

--------------------------------------------------------------------------
#psi4
#
memory 32 gb

molecule  {
0 1
  O        0.2506850     2.2433030    -0.0000120
  N       -0.1535360    -0.0391100    -0.0000040
  C       -1.6091660     0.2193680    -0.0000060
  C       -2.2505560    -0.3204400     1.2726240
  C       -2.2505640    -0.3204870    -1.2726120
  C        0.7061140     1.0894960    -0.0000070
  C        0.2993147    -1.3084509     0.0000049
  C        2.1126960     0.7529310    -0.0000050
  C        1.6422530    -1.6174930     0.0000090
  C        2.5632190    -0.5392750     0.0000030
  H       -1.6749870     1.3090010    -0.0000250
  H       -3.3054200    -0.0314760     1.3049310
  H       -2.2011690    -1.4127350     1.3198810
  H       -1.7528960     0.0901600     2.1548740
  H       -1.7529050     0.0900740    -2.1548810
  H       -3.3054260    -0.0315150    -1.3049260
  H       -2.2011880    -1.4127830    -1.3198260
  H       -0.4545900    -2.1014670     0.0000100
  H        2.7949640     1.5970390    -0.0000090
  H        1.9701580    -2.6507840     0.0000170
  H        3.6325460    -0.7390360     0.0000060
units angstrom
no_reorient  #important for SAPT in psi4, default
symmetry c1  #important for SAPT in psi4, default
}

set PROPERTIES_ORIGIN ["COM"]
properties('MP2/aug-cc-pvtz', properties = ['dipole'])
--------------------------------------------------------------------------

    Molecular point group: c1
  Charge       = 0
  Multiplicity = 1
  Basis Set: AUG-CC-PVTZ
    Blend: AUG-CC-PVTZ
  Basis Set: (AUG-CC-PVTZ AUX)
    Blend: AUG-CC-PVTZ-JKFIT

    Orbital Energies [Eh]
    ---------------------

    Doubly Occupied:

       1A    -20.505415     2A    -15.623668     3A    -11.350066
       4A    -11.306866     5A    -11.275482     6A    -11.268206
       7A    -11.237750     8A    -11.233513     9A    -11.229687
      10A    -11.229672    11A     -1.368533    12A     -1.283227
      13A     -1.121872    14A     -1.053116    15A     -1.020351
      16A     -0.951637    17A     -0.893563    18A     -0.858058
      19A     -0.804760    20A     -0.711700    21A     -0.699896
      22A     -0.653982    23A     -0.642493    24A     -0.630761
      25A     -0.613646    26A     -0.602182    27A     -0.564412
      28A     -0.563105    29A     -0.548761    30A     -0.543631
      31A     -0.524651    32A     -0.505546    33A     -0.487661
      34A     -0.474069    35A     -0.417684    36A     -0.408077
      37A     -0.304388

  @DF-RHF Final Energy:  -438.81750414619557

   => Energetics <=

    Nuclear Repulsion Energy =            528.2600412874021458
    One-Electron Energy =               -1643.1309183027999552
    Two-Electron Energy =                 676.0533728692022351
    Total Energy =                       -438.8175041461955743
  Basis Set: (AUG-CC-PVTZ AUX)
    Blend: AUG-CC-PVTZ-RI
    Molecular point group: c1

    Geometry (in Angstrom), charge = 0, multiplicity = 1:

       Center              X                  Y                   Z               Mass
    ------------   -----------------  -----------------  -----------------  -----------------
         O            0.191568274790     2.203425097437    -0.000011527703    15.994914619570
         N           -0.212652725210    -0.078987902563    -0.000003527703    14.003074004430
         C           -1.668282725210     0.179490097437    -0.000005527703    12.000000000000
         C           -2.309672725210    -0.360317902563     1.272624472297    12.000000000000
         C           -2.309680725210    -0.360364902563    -1.272611527703    12.000000000000
         C            0.646997274790     1.049618097437    -0.000006527703    12.000000000000
         C            0.240197974790    -1.348328802563     0.000005372297    12.000000000000
         C            2.053579274790     0.713053097437    -0.000004527703    12.000000000000
         C            1.583136274790    -1.657370902563     0.000009472297    12.000000000000
         C            2.504102274790    -0.579152902563     0.000003472297    12.000000000000
         H           -1.734103725210     1.269123097437    -0.000024527703     1.007825032230
         H           -3.364536725210    -0.071353902563     1.304931472297     1.007825032230
         H           -2.260285725210    -1.452612902563     1.319881472297     1.007825032230
         H           -1.812012725210     0.050282097437     2.154874472297     1.007825032230
         H           -1.812021725210     0.050196097437    -2.154880527703     1.007825032230
         H           -3.364542725210    -0.071392902563    -1.304925527703     1.007825032230
         H           -2.260304725210    -1.452660902563    -1.319825527703     1.007825032230
         H           -0.513706725210    -2.141344902563     0.000010472297     1.007825032230
         H            2.735847274790     1.557161097437    -0.000008527703     1.007825032230
         H            1.911041274790    -2.690661902563     0.000017472297     1.007825032230
         H            3.573429274790    -0.778913902563     0.000006472297     1.007825032230

  Basis Set: AUG-CC-PVTZ
    Blend: AUG-CC-PVTZ
  Basis Set: (AUG-CC-PVTZ AUX)
    Blend: AUG-CC-PVTZ-JKFIT
	 Reference Energy          =    -438.8175041461955743 [Eh]
	 Singles Energy            =      -0.0000000000000000 [Eh]
	 Same-Spin Energy          =      -0.4682351301974491 [Eh]
	 Opposite-Spin Energy      =      -1.4972326517294952 [Eh]
	 Correlation Energy        =      -1.9654677819269442 [Eh]
	 Total Energy              =    -440.7829719281224925 [Eh]

	 ================> DF-SCS-MP2 Energies <==================
	-----------------------------------------------------------
	 SCS Same-Spin Scale       =       0.3333333333333333 [-]
	 SCS Opposite-Spin Scale   =       1.2000000000000000 [-]
	 SCS Same-Spin Energy      =      -0.1560783767324830 [Eh]
	 SCS Opposite-Spin Energy  =      -1.7966791820753942 [Eh]
	 SCS Correlation Energy    =      -1.9527575588078772 [Eh]
	 SCS Total Energy          =    -440.7702617050034632 [Eh]
	-----------------------------------------------------------

  Dipole Moment: [D]
     X:    -0.7361      Y:    -3.8510      Z:     0.0000     Total:     3.9207

*** Psi4 exiting successfully. Buy a developer a beer!
