                               Psi4 1.4a3.dev225

  ==> Input File <==

--------------------------------------------------------------------------
#psi4
#
memory 32 gb

molecule  {
0 1
  O        0.2506850     2.2433030    -0.0000120
  N       -0.1489439     0.0073493     0.0920222
  C       -1.6091660     0.2193680    -0.0000060
  C       -2.2505560    -0.3204400     1.2726240
  C       -2.2505640    -0.3204870    -1.2726120
  C        0.7061140     1.0894960    -0.0000070
  C        0.3060350    -1.3272880     0.0000050
  C        2.1126960     0.7529310    -0.0000050
  C        1.6422530    -1.6174930     0.0000090
  C        2.5632190    -0.5392750     0.0000030
  H       -1.6749870     1.3090010    -0.0000250
  H       -3.3054200    -0.0314760     1.3049310
  H       -2.2011690    -1.4127350     1.3198810
  H       -1.7528960     0.0901600     2.1548740
  H       -1.7529050     0.0900740    -2.1548810
  H       -3.3054260    -0.0315150    -1.3049260
  H       -2.2011880    -1.4127830    -1.3198260
  H       -0.4545900    -2.1014670     0.0000100
  H        2.7949640     1.5970390    -0.0000090
  H        1.9701580    -2.6507840     0.0000170
  H        3.6325460    -0.7390360     0.0000060
units angstrom
no_reorient  #important for SAPT in psi4, default
symmetry c1  #important for SAPT in psi4, default
}

set PROPERTIES_ORIGIN ["COM"]
properties('MP2/aug-cc-pvtz', properties = ['dipole'])
--------------------------------------------------------------------------

    Molecular point group: c1
  Charge       = 0
  Multiplicity = 1
  Basis Set: AUG-CC-PVTZ
    Blend: AUG-CC-PVTZ
  Basis Set: (AUG-CC-PVTZ AUX)
    Blend: AUG-CC-PVTZ-JKFIT

    Orbital Energies [Eh]
    ---------------------

    Doubly Occupied:

       1A    -20.500084     2A    -15.619461     3A    -11.345015
       4A    -11.307575     5A    -11.272661     6A    -11.269513
       7A    -11.243362     8A    -11.238123     9A    -11.230318
      10A    -11.226113    11A     -1.367287    12A     -1.268799
      13A     -1.123513    14A     -1.050617    15A     -1.024330
      16A     -0.949911    17A     -0.893799    18A     -0.855304
      19A     -0.801742    20A     -0.709807    21A     -0.702000
      22A     -0.656753    23A     -0.636869    24A     -0.626818
      25A     -0.613748    26A     -0.603652    27A     -0.563464
      28A     -0.561301    29A     -0.547822    30A     -0.545414
      31A     -0.521049    32A     -0.502316    33A     -0.486657
      34A     -0.469303    35A     -0.416049    36A     -0.405316
      37A     -0.311674

  @DF-RHF Final Energy:  -438.81386722680128

   => Energetics <=

    Nuclear Repulsion Energy =            527.8772862201282123
    One-Electron Energy =               -1642.4472292758725871
    Two-Electron Energy =                 675.7560758289429259
    Total Energy =                       -438.8138672268013352
  Basis Set: (AUG-CC-PVTZ AUX)
    Blend: AUG-CC-PVTZ-RI
    Molecular point group: c1

    Geometry (in Angstrom), charge = 0, multiplicity = 1:

       Center              X                  Y                   Z               Mass
    ------------   -----------------  -----------------  -----------------  -----------------
         O            0.190510915445     2.200328254494    -0.009411970406    15.994914619570
         N           -0.209117984555    -0.035625445506     0.082622229594    14.003074004430
         C           -1.669340084555     0.176393254494    -0.009405970406    12.000000000000
         C           -2.310730084555    -0.363414745506     1.263224029594    12.000000000000
         C           -2.310738084555    -0.363461745506    -1.282011970406    12.000000000000
         C            0.645939915445     1.046521254494    -0.009406970406    12.000000000000
         C            0.245860915445    -1.370262745506    -0.009394970406    12.000000000000
         C            2.052521915445     0.709956254494    -0.009404970406    12.000000000000
         C            1.582078915445    -1.660467745506    -0.009390970406    12.000000000000
         C            2.503044915445    -0.582249745506    -0.009396970406    12.000000000000
         H           -1.735161084555     1.266026254494    -0.009424970406     1.007825032230
         H           -3.365594084555    -0.074450745506     1.295531029594     1.007825032230
         H           -2.261343084555    -1.455709745506     1.310481029594     1.007825032230
         H           -1.813070084555     0.047185254494     2.145474029594     1.007825032230
         H           -1.813079084555     0.047099254494    -2.164280970406     1.007825032230
         H           -3.365600084555    -0.074489745506    -1.314325970406     1.007825032230
         H           -2.261362084555    -1.455757745506    -1.329225970406     1.007825032230
         H           -0.514764084555    -2.144441745506    -0.009389970406     1.007825032230
         H            2.734789915445     1.554064254494    -0.009408970406     1.007825032230
         H            1.909983915445    -2.693758745506    -0.009382970406     1.007825032230
         H            3.572371915445    -0.782010745506    -0.009393970406     1.007825032230

  Basis Set: AUG-CC-PVTZ
    Blend: AUG-CC-PVTZ
  Basis Set: (AUG-CC-PVTZ AUX)
    Blend: AUG-CC-PVTZ-JKFIT
	 Reference Energy          =    -438.8138672268012783 [Eh]
	 Singles Energy            =      -0.0000000000000000 [Eh]
	 Same-Spin Energy          =      -0.4673373963807532 [Eh]
	 Opposite-Spin Energy      =      -1.4972879898575551 [Eh]
	 Correlation Energy        =      -1.9646253862383083 [Eh]
	 Total Energy              =    -440.7784926130395888 [Eh]

	 ================> DF-SCS-MP2 Energies <==================
	-----------------------------------------------------------
	 SCS Same-Spin Scale       =       0.3333333333333333 [-]
	 SCS Opposite-Spin Scale   =       1.2000000000000000 [-]
	 SCS Same-Spin Energy      =      -0.1557791321269177 [Eh]
	 SCS Opposite-Spin Energy  =      -1.7967455878290661 [Eh]
	 SCS Correlation Energy    =      -1.9525247199559839 [Eh]
	 SCS Total Energy          =    -440.7663919467572669 [Eh]
	-----------------------------------------------------------

  Dipole Moment: [D]
     X:    -0.5336      Y:    -4.0332      Z:    -0.0868     Total:     4.0692

*** Psi4 exiting successfully. Buy a developer a beer!
