                               Psi4 1.4a3.dev225

  ==> Input File <==

--------------------------------------------------------------------------
#psi4
#
memory 32 gb

molecule  {
0 1
  O        0.2506850     2.2433030    -0.0000120
  N       -0.1535360    -0.0391100    -0.0000040
  C       -1.6091660     0.2193680    -0.0000060
  C       -2.2505560    -0.3204400     1.2726240
  C       -2.2505640    -0.3204870    -1.2726120
  C        0.7061140     1.0894960    -0.0000070
  C        0.3060350    -1.3272880     0.0000050
  C        2.1126960     0.7529310    -0.0000050
  C        1.6422530    -1.6174930     0.0000090
  C        2.5632190    -0.5392750     0.0000030
  H       -1.6749870     1.3090010    -0.0000250
  H       -3.3054200    -0.0314760     1.3049310
  H       -2.2011690    -1.4127350     1.3198810
  H       -1.7984281     0.0525933     2.0741549
  H       -1.7529050     0.0900740    -2.1548810
  H       -3.3054260    -0.0315150    -1.3049260
  H       -2.2011880    -1.4127830    -1.3198260
  H       -0.4545900    -2.1014670     0.0000100
  H        2.7949640     1.5970390    -0.0000090
  H        1.9701580    -2.6507840     0.0000170
  H        3.6325460    -0.7390360     0.0000060
units angstrom
no_reorient  #important for SAPT in psi4, default
symmetry c1  #important for SAPT in psi4, default
}

set PROPERTIES_ORIGIN ["COM"]
properties('MP2/aug-cc-pvtz', properties = ['dipole'])
--------------------------------------------------------------------------

    Molecular point group: c1
  Charge       = 0
  Multiplicity = 1
  Basis Set: AUG-CC-PVTZ
    Blend: AUG-CC-PVTZ
  Basis Set: (AUG-CC-PVTZ AUX)
    Blend: AUG-CC-PVTZ-JKFIT

    Orbital Energies [Eh]
    ---------------------

    Doubly Occupied:

       1A    -20.505464     2A    -15.621510     3A    -11.349983
       4A    -11.305600     5A    -11.273363     6A    -11.268962
       7A    -11.238341     8A    -11.235271     9A    -11.227962
      10A    -11.216565    11A     -1.367041    12A     -1.277652
      13A     -1.122848    14A     -1.052957    15A     -1.022597
      16A     -0.957986    17A     -0.893858    18A     -0.856254
      19A     -0.805295    20A     -0.711564    21A     -0.699833
      22A     -0.657742    23A     -0.640603    24A     -0.628098
      25A     -0.621792    26A     -0.604434    27A     -0.565634
      28A     -0.563144    29A     -0.548564    30A     -0.544281
      31A     -0.524309    32A     -0.509793    33A     -0.486845
      34A     -0.473920    35A     -0.417745    36A     -0.406509
      37A     -0.307171

  @DF-RHF Final Energy:  -438.81188940697695

   => Energetics <=

    Nuclear Repulsion Energy =            528.3658873099019502
    One-Electron Energy =               -1643.3325703036693994
    Two-Electron Energy =                 676.1547935867903334
    Total Energy =                       -438.8118894069770022
  Basis Set: (AUG-CC-PVTZ AUX)
    Blend: AUG-CC-PVTZ-RI
    Molecular point group: c1

    Geometry (in Angstrom), charge = 0, multiplicity = 1:

       Center              X                  Y                   Z               Mass
    ------------   -----------------  -----------------  -----------------  -----------------
         O            0.191314742695     2.205350236312     0.000581900353    15.994914619570
         N           -0.212906257305    -0.077062763688     0.000589900353    14.003074004430
         C           -1.668536257305     0.181415236312     0.000587900353    12.000000000000
         C           -2.309926257305    -0.358392763688     1.273217900353    12.000000000000
         C           -2.309934257305    -0.358439763688    -1.272018099647    12.000000000000
         C            0.646743742695     1.051543236312     0.000586900353    12.000000000000
         C            0.246664742695    -1.365240763688     0.000598900353    12.000000000000
         C            2.053325742695     0.714978236312     0.000588900353    12.000000000000
         C            1.582882742695    -1.655445763688     0.000602900353    12.000000000000
         C            2.503848742695    -0.577227763688     0.000596900353    12.000000000000
         H           -1.734357257305     1.271048236312     0.000568900353     1.007825032230
         H           -3.364790257305    -0.069428763688     1.305524900353     1.007825032230
         H           -2.260539257305    -1.450687763688     1.320474900353     1.007825032230
         H           -1.857798357305     0.014640536312     2.074748800353     1.007825032230
         H           -1.812275257305     0.052121236312    -2.154287099647     1.007825032230
         H           -3.364796257305    -0.069467763688    -1.304332099647     1.007825032230
         H           -2.260558257305    -1.450735763688    -1.319232099647     1.007825032230
         H           -0.513960257305    -2.139419763688     0.000603900353     1.007825032230
         H            2.735593742695     1.559086236312     0.000584900353     1.007825032230
         H            1.910787742695    -2.688736763688     0.000610900353     1.007825032230
         H            3.573175742695    -0.776988763688     0.000599900353     1.007825032230

  Basis Set: AUG-CC-PVTZ
    Blend: AUG-CC-PVTZ
  Basis Set: (AUG-CC-PVTZ AUX)
    Blend: AUG-CC-PVTZ-JKFIT
	 Reference Energy          =    -438.8118894069769453 [Eh]
	 Singles Energy            =      -0.0000000000000000 [Eh]
	 Same-Spin Energy          =      -0.4679704486002233 [Eh]
	 Opposite-Spin Energy      =      -1.4967648023790070 [Eh]
	 Correlation Energy        =      -1.9647352509792304 [Eh]
	 Total Energy              =    -440.7766246579561766 [Eh]

	 ================> DF-SCS-MP2 Energies <==================
	-----------------------------------------------------------
	 SCS Same-Spin Scale       =       0.3333333333333333 [-]
	 SCS Opposite-Spin Scale   =       1.2000000000000000 [-]
	 SCS Same-Spin Energy      =      -0.1559901495334078 [Eh]
	 SCS Opposite-Spin Energy  =      -1.7961177628548084 [Eh]
	 SCS Correlation Energy    =      -1.9521079123882161 [Eh]
	 SCS Total Energy          =    -440.7639973193651599 [Eh]
	-----------------------------------------------------------

  Dipole Moment: [D]
     X:    -0.6558      Y:    -3.8632      Z:     0.0407     Total:     3.9186

*** Psi4 exiting successfully. Buy a developer a beer!
