                               Psi4 1.4a3.dev225

  ==> Input File <==

--------------------------------------------------------------------------
#psi4
#
memory 32 gb

molecule  {
0 1
  O        0.2506850     2.2433030    -0.0000120
  N       -0.1535360    -0.0391100    -0.0000040
  C       -1.6091660     0.2193680    -0.0000060
  C       -2.2505560    -0.3204400     1.2726240
  C       -2.2505640    -0.3204870    -1.2726120
  C        0.7061140     1.0894960    -0.0000070
  C        0.3060350    -1.3272880     0.0000050
  C        2.1126960     0.7529310    -0.0000050
  C        1.6422530    -1.6174930     0.0000090
  C        2.5632190    -0.5392750     0.0000030
  H       -1.6810167     1.4088191    -0.0000267
  H       -3.3054200    -0.0314760     1.3049310
  H       -2.2011690    -1.4127350     1.3198810
  H       -1.7528960     0.0901600     2.1548740
  H       -1.7529050     0.0900740    -2.1548810
  H       -3.3054260    -0.0315150    -1.3049260
  H       -2.2011880    -1.4127830    -1.3198260
  H       -0.4545900    -2.1014670     0.0000100
  H        2.7949640     1.5970390    -0.0000090
  H        1.9701580    -2.6507840     0.0000170
  H        3.6325460    -0.7390360     0.0000060
units angstrom
no_reorient  #important for SAPT in psi4, default
symmetry c1  #important for SAPT in psi4, default
}

set PROPERTIES_ORIGIN ["COM"]
properties('MP2/aug-cc-pvtz', properties = ['dipole'])
--------------------------------------------------------------------------

    Molecular point group: c1
  Charge       = 0
  Multiplicity = 1
  Basis Set: AUG-CC-PVTZ
    Blend: AUG-CC-PVTZ
  Basis Set: (AUG-CC-PVTZ AUX)
    Blend: AUG-CC-PVTZ-JKFIT

    Orbital Energies [Eh]
    ---------------------

    Doubly Occupied:

       1A    -20.505643     2A    -15.622150     3A    -11.350180
       4A    -11.306037     5A    -11.283022     6A    -11.269159
       7A    -11.238593     8A    -11.235497     9A    -11.228721
      10A    -11.228706    11A     -1.367193    12A     -1.277640
      13A     -1.121411    14A     -1.048971    15A     -1.022767
      16A     -0.950349    17A     -0.891717    18A     -0.856136
      19A     -0.797715    20A     -0.707989    21A     -0.699224
      22A     -0.654719    23A     -0.638445    24A     -0.628211
      25A     -0.610814    26A     -0.604014    27A     -0.564526
      28A     -0.561725    29A     -0.547747    30A     -0.543742
      31A     -0.523462    32A     -0.504574    33A     -0.475499
      34A     -0.474083    35A     -0.415161    36A     -0.406842
      37A     -0.307442

  @DF-RHF Final Energy:  -438.81040805724109

   => Energetics <=

    Nuclear Repulsion Energy =            527.4569521525920663
    One-Electron Energy =               -1641.5950726725277491
    Two-Electron Energy =                 675.3277124626945351
    Total Energy =                       -438.8104080572411476
  Basis Set: (AUG-CC-PVTZ AUX)
    Blend: AUG-CC-PVTZ-RI
    Molecular point group: c1

    Geometry (in Angstrom), charge = 0, multiplicity = 1:

       Center              X                  Y                   Z               Mass
    ------------   -----------------  -----------------  -----------------  -----------------
         O            0.191024325951     2.204340200306    -0.000011523959    15.994914619570
         N           -0.213196674049    -0.078072799694    -0.000003523959    14.003074004430
         C           -1.668826674049     0.180405200306    -0.000005523959    12.000000000000
         C           -2.310216674049    -0.359402799694     1.272624476041    12.000000000000
         C           -2.310224674049    -0.359449799694    -1.272611523959    12.000000000000
         C            0.646453325951     1.050533200306    -0.000006523959    12.000000000000
         C            0.246374325951    -1.366250799694     0.000005476041    12.000000000000
         C            2.053035325951     0.713968200306    -0.000004523959    12.000000000000
         C            1.582592325951    -1.656455799694     0.000009476041    12.000000000000
         C            2.503558325951    -0.578237799694     0.000003476041    12.000000000000
         H           -1.740677374049     1.369856300306    -0.000026223959     1.007825032230
         H           -3.365080674049    -0.070438799694     1.304931476041     1.007825032230
         H           -2.260829674049    -1.451697799694     1.319881476041     1.007825032230
         H           -1.812556674049     0.051197200306     2.154874476041     1.007825032230
         H           -1.812565674049     0.051111200306    -2.154880523959     1.007825032230
         H           -3.365086674049    -0.070477799694    -1.304925523959     1.007825032230
         H           -2.260848674049    -1.451745799694    -1.319825523959     1.007825032230
         H           -0.514250674049    -2.140429799694     0.000010476041     1.007825032230
         H            2.735303325951     1.558076200306    -0.000008523959     1.007825032230
         H            1.910497325951    -2.689746799694     0.000017476041     1.007825032230
         H            3.572885325951    -0.777998799694     0.000006476041     1.007825032230

  Basis Set: AUG-CC-PVTZ
    Blend: AUG-CC-PVTZ
  Basis Set: (AUG-CC-PVTZ AUX)
    Blend: AUG-CC-PVTZ-JKFIT
	 Reference Energy          =    -438.8104080572410908 [Eh]
	 Singles Energy            =      -0.0000000000000000 [Eh]
	 Same-Spin Energy          =      -0.4685308154885651 [Eh]
	 Opposite-Spin Energy      =      -1.4986101952350506 [Eh]
	 Correlation Energy        =      -1.9671410107236156 [Eh]
	 Total Energy              =    -440.7775490679646850 [Eh]

	 ================> DF-SCS-MP2 Energies <==================
	-----------------------------------------------------------
	 SCS Same-Spin Scale       =       0.3333333333333333 [-]
	 SCS Opposite-Spin Scale   =       1.2000000000000000 [-]
	 SCS Same-Spin Energy      =      -0.1561769384961884 [Eh]
	 SCS Opposite-Spin Energy  =      -1.7983322342820607 [Eh]
	 SCS Correlation Energy    =      -1.9545091727782491 [Eh]
	 SCS Total Energy          =    -440.7649172300193641 [Eh]
	-----------------------------------------------------------

  Dipole Moment: [D]
     X:    -0.6171      Y:    -3.8414      Z:     0.0000     Total:     3.8907

*** Psi4 exiting successfully. Buy a developer a beer!
