                               Psi4 1.4a3.dev225

  ==> Input File <==

--------------------------------------------------------------------------
#psi4
#
memory 32 gb

molecule  {
0 1
  O        0.2506850     2.2433030    -0.0000120
  N       -0.1535360    -0.0391100    -0.0000040
  C       -1.6091660     0.2193680    -0.0000060
  C       -2.2926439    -0.3558621     1.3561338
  C       -2.2505640    -0.3204870    -1.2726120
  C        0.7061140     1.0894960    -0.0000070
  C        0.3060350    -1.3272880     0.0000050
  C        2.1126960     0.7529310    -0.0000050
  C        1.6422530    -1.6174930     0.0000090
  C        2.5632190    -0.5392750     0.0000030
  H       -1.6749870     1.3090010    -0.0000250
  H       -3.3054200    -0.0314760     1.3049310
  H       -2.2011690    -1.4127350     1.3198810
  H       -1.7528960     0.0901600     2.1548740
  H       -1.7529050     0.0900740    -2.1548810
  H       -3.3054260    -0.0315150    -1.3049260
  H       -2.2011880    -1.4127830    -1.3198260
  H       -0.4545900    -2.1014670     0.0000100
  H        2.7949640     1.5970390    -0.0000090
  H        1.9701580    -2.6507840     0.0000170
  H        3.6325460    -0.7390360     0.0000060
units angstrom
no_reorient  #important for SAPT in psi4, default
symmetry c1  #important for SAPT in psi4, default
}

set PROPERTIES_ORIGIN ["COM"]
properties('MP2/aug-cc-pvtz', properties = ['dipole'])
--------------------------------------------------------------------------

    Molecular point group: c1
  Charge       = 0
  Multiplicity = 1
  Basis Set: AUG-CC-PVTZ
    Blend: AUG-CC-PVTZ
  Basis Set: (AUG-CC-PVTZ AUX)
    Blend: AUG-CC-PVTZ-JKFIT

    Orbital Energies [Eh]
    ---------------------

    Doubly Occupied:

       1A    -20.505267     2A    -15.621887     3A    -11.349809
       4A    -11.305653     5A    -11.277669     6A    -11.268883
       7A    -11.238424     8A    -11.235283     9A    -11.228840
      10A    -11.226088    11A     -1.366655    12A     -1.276405
      13A     -1.119617    14A     -1.043590    15A     -1.022392
      16A     -0.951706    17A     -0.893967    18A     -0.855986
      19A     -0.804113    20A     -0.709868    21A     -0.698605
      22A     -0.653726    23A     -0.640376    24A     -0.625784
      25A     -0.611782    26A     -0.603960    27A     -0.572288
      28A     -0.564961    29A     -0.554353    30A     -0.544427
      31A     -0.527070    32A     -0.503669    33A     -0.482346
      34A     -0.468060    35A     -0.417909    36A     -0.403101
      37A     -0.306869

  @DF-RHF Final Energy:  -438.81075397423120

   => Energetics <=

    Nuclear Repulsion Energy =            526.1599552225760590
    One-Electron Energy =               -1638.9786377555108174
    Two-Electron Energy =                 674.0079285587037248
    Total Energy =                       -438.8107539742311474
  Basis Set: (AUG-CC-PVTZ AUX)
    Blend: AUG-CC-PVTZ-RI
    Molecular point group: c1

    Geometry (in Angstrom), charge = 0, multiplicity = 1:

       Center              X                  Y                   Z               Mass
    ------------   -----------------  -----------------  -----------------  -----------------
         O            0.194664267042     2.208174813641    -0.007321777859    15.994914619570
         N           -0.209556732958    -0.074238186359    -0.007313777859    14.003074004430
         C           -1.665186732958     0.184239813641    -0.007315777859    12.000000000000
         C           -2.348664632958    -0.390990286359     1.348824022141    12.000000000000
         C           -2.306584732958    -0.355615186359    -1.279921777859    12.000000000000
         C            0.650093267042     1.054367813641    -0.007316777859    12.000000000000
         C            0.250014267042    -1.362416186359    -0.007304777859    12.000000000000
         C            2.056675267042     0.717802813641    -0.007314777859    12.000000000000
         C            1.586232267042    -1.652621186359    -0.007300777859    12.000000000000
         C            2.507198267042    -0.574403186359    -0.007306777859    12.000000000000
         H           -1.731007732958     1.273872813641    -0.007334777859     1.007825032230
         H           -3.361440732958    -0.066604186359     1.297621222141     1.007825032230
         H           -2.257189732958    -1.447863186359     1.312571222141     1.007825032230
         H           -1.808916732958     0.055031813641     2.147564222141     1.007825032230
         H           -1.808925732958     0.054945813641    -2.162190777859     1.007825032230
         H           -3.361446732958    -0.066643186359    -1.312235777859     1.007825032230
         H           -2.257208732958    -1.447911186359    -1.327135777859     1.007825032230
         H           -0.510610732958    -2.136595186359    -0.007299777859     1.007825032230
         H            2.738943267042     1.561910813641    -0.007318777859     1.007825032230
         H            1.914137267042    -2.685912186359    -0.007292777859     1.007825032230
         H            3.576525267042    -0.774164186359    -0.007303777859     1.007825032230

  Basis Set: AUG-CC-PVTZ
    Blend: AUG-CC-PVTZ
  Basis Set: (AUG-CC-PVTZ AUX)
    Blend: AUG-CC-PVTZ-JKFIT
	 Reference Energy          =    -438.8107539742312042 [Eh]
	 Singles Energy            =      -0.0000000000000000 [Eh]
	 Same-Spin Energy          =      -0.4676535752003265 [Eh]
	 Opposite-Spin Energy      =      -1.4973709918777005 [Eh]
	 Correlation Energy        =      -1.9650245670780269 [Eh]
	 Total Energy              =    -440.7757785413092506 [Eh]

	 ================> DF-SCS-MP2 Energies <==================
	-----------------------------------------------------------
	 SCS Same-Spin Scale       =       0.3333333333333333 [-]
	 SCS Opposite-Spin Scale   =       1.2000000000000000 [-]
	 SCS Same-Spin Energy      =      -0.1558845250667755 [Eh]
	 SCS Opposite-Spin Energy  =      -1.7968451902532405 [Eh]
	 SCS Correlation Energy    =      -1.9527297153200160 [Eh]
	 SCS Total Energy          =    -440.7634836895512080 [Eh]
	-----------------------------------------------------------

  Dipole Moment: [D]
     X:    -0.6489      Y:    -3.8677      Z:    -0.0335     Total:     3.9219

*** Psi4 exiting successfully. Buy a developer a beer!
