                               Psi4 1.4a3.dev225

  ==> Input File <==

--------------------------------------------------------------------------
#psi4
#
memory 32 gb

molecule  {
0 1
  O        0.2506850     2.2433030    -0.0000120
  N       -0.1535360    -0.0391100    -0.0000040
  C       -1.6091660     0.2193680    -0.0000060
  C       -2.2505560    -0.3204400     1.2726240
  C       -2.2505640    -0.3204870    -1.2726120
  C        0.7061140     1.0894960    -0.0000070
  C        0.3060350    -1.3272880     0.0000050
  C        2.1126960     0.7529310    -0.0000050
  C        1.6422530    -1.6174930     0.0000090
  C        2.5632190    -0.5392750     0.0000030
  H       -1.6719722     1.2590920    -0.0000241
  H       -3.3054200    -0.0314760     1.3049310
  H       -2.2011690    -1.4127350     1.3198810
  H       -1.7528960     0.0901600     2.1548740
  H       -1.7529050     0.0900740    -2.1548810
  H       -3.3054260    -0.0315150    -1.3049260
  H       -2.2011880    -1.4127830    -1.3198260
  H       -0.4545900    -2.1014670     0.0000100
  H        2.7949640     1.5970390    -0.0000090
  H        1.9701580    -2.6507840     0.0000170
  H        3.6325460    -0.7390360     0.0000060
units angstrom
no_reorient  #important for SAPT in psi4, default
symmetry c1  #important for SAPT in psi4, default
}

set PROPERTIES_ORIGIN ["COM"]
properties('MP2/aug-cc-pvtz', properties = ['dipole'])
--------------------------------------------------------------------------

    Molecular point group: c1
  Charge       = 0
  Multiplicity = 1
  Basis Set: AUG-CC-PVTZ
    Blend: AUG-CC-PVTZ
  Basis Set: (AUG-CC-PVTZ AUX)
    Blend: AUG-CC-PVTZ-JKFIT

    Orbital Energies [Eh]
    ---------------------

    Doubly Occupied:

       1A    -20.505352     2A    -15.621186     3A    -11.349871
       4A    -11.305454     5A    -11.269360     6A    -11.268834
       7A    -11.238211     8A    -11.235136     9A    -11.228814
      10A    -11.228798    11A     -1.366925    12A     -1.277673
      13A     -1.123335    14A     -1.052718    15A     -1.022429
      16A     -0.950824    17A     -0.894360    18A     -0.855789
      19A     -0.807855    20A     -0.713680    21A     -0.699593
      22A     -0.656129    23A     -0.642053    24A     -0.628151
      25A     -0.614096    26A     -0.604333    27A     -0.564417
      28A     -0.562340    29A     -0.548036    30A     -0.543928
      31A     -0.524974    32A     -0.504639    33A     -0.492083
      34A     -0.473650    35A     -0.418524    36A     -0.406546
      37A     -0.307021

  @DF-RHF Final Energy:  -438.81742676329714

   => Energetics <=

    Nuclear Repulsion Energy =            528.1675784238394726
    One-Electron Energy =               -1642.9557786286095507
    Two-Electron Energy =                 675.9707734414728293
    Total Energy =                       -438.8174267632971350
  Basis Set: (AUG-CC-PVTZ AUX)
    Blend: AUG-CC-PVTZ-RI
    Molecular point group: c1

    Geometry (in Angstrom), charge = 0, multiplicity = 1:

       Center              X                  Y                   Z               Mass
    ------------   -----------------  -----------------  -----------------  -----------------
         O            0.190957831909     2.205440975370    -0.000011543074    15.994914619570
         N           -0.213263168091    -0.076972024630    -0.000003543074    14.003074004430
         C           -1.668893168091     0.181505975370    -0.000005543074    12.000000000000
         C           -2.310283168091    -0.358302024630     1.272624456926    12.000000000000
         C           -2.310291168091    -0.358349024630    -1.272611543074    12.000000000000
         C            0.646386831909     1.051633975370    -0.000006543074    12.000000000000
         C            0.246307831909    -1.365150024630     0.000005456926    12.000000000000
         C            2.052968831909     0.715068975370    -0.000004543074    12.000000000000
         C            1.582525831909    -1.655355024630     0.000009456926    12.000000000000
         C            2.503491831909    -0.577137024630     0.000003456926    12.000000000000
         H           -1.731699368091     1.221229975370    -0.000023643074     1.007825032230
         H           -3.365147168091    -0.069338024630     1.304931456926     1.007825032230
         H           -2.260896168091    -1.450597024630     1.319881456926     1.007825032230
         H           -1.812623168091     0.052297975370     2.154874456926     1.007825032230
         H           -1.812632168091     0.052211975370    -2.154880543074     1.007825032230
         H           -3.365153168091    -0.069377024630    -1.304925543074     1.007825032230
         H           -2.260915168091    -1.450645024630    -1.319825543074     1.007825032230
         H           -0.514317168091    -2.139329024630     0.000010456926     1.007825032230
         H            2.735236831909     1.559176975370    -0.000008543074     1.007825032230
         H            1.910430831909    -2.688646024630     0.000017456926     1.007825032230
         H            3.572818831909    -0.776898024630     0.000006456926     1.007825032230

  Basis Set: AUG-CC-PVTZ
    Blend: AUG-CC-PVTZ
  Basis Set: (AUG-CC-PVTZ AUX)
    Blend: AUG-CC-PVTZ-JKFIT
	 Reference Energy          =    -438.8174267632971350 [Eh]
	 Singles Energy            =      -0.0000000000000000 [Eh]
	 Same-Spin Energy          =      -0.4677211791998410 [Eh]
	 Opposite-Spin Energy      =      -1.4967256412777339 [Eh]
	 Correlation Energy        =      -1.9644468204775749 [Eh]
	 Total Energy              =    -440.7818735837747113 [Eh]

	 ================> DF-SCS-MP2 Energies <==================
	-----------------------------------------------------------
	 SCS Same-Spin Scale       =       0.3333333333333333 [-]
	 SCS Opposite-Spin Scale   =       1.2000000000000000 [-]
	 SCS Same-Spin Energy      =      -0.1559070597332803 [Eh]
	 SCS Opposite-Spin Energy  =      -1.7960707695332807 [Eh]
	 SCS Correlation Energy    =      -1.9519778292665610 [Eh]
	 SCS Total Energy          =    -440.7694045925637170 [Eh]
	-----------------------------------------------------------

  Dipole Moment: [D]
     X:    -0.6859      Y:    -3.8851      Z:     0.0000     Total:     3.9452

*** Psi4 exiting successfully. Buy a developer a beer!
