                               Psi4 1.4a3.dev225

  ==> Input File <==

--------------------------------------------------------------------------
#psi4
#
memory 32 gb

molecule  {
0 1
  O        0.2506850     2.2433030    -0.0000120
  N       -0.1535360    -0.0391100    -0.0000040
  C       -1.6091660     0.2193680    -0.0000060
  C       -2.3347318    -0.3912842     1.4396435
  C       -2.2505640    -0.3204870    -1.2726120
  C        0.7061140     1.0894960    -0.0000070
  C        0.3060350    -1.3272880     0.0000050
  C        2.1126960     0.7529310    -0.0000050
  C        1.6422530    -1.6174930     0.0000090
  C        2.5632190    -0.5392750     0.0000030
  H       -1.6749870     1.3090010    -0.0000250
  H       -3.3054200    -0.0314760     1.3049310
  H       -2.2011690    -1.4127350     1.3198810
  H       -1.7528960     0.0901600     2.1548740
  H       -1.7529050     0.0900740    -2.1548810
  H       -3.3054260    -0.0315150    -1.3049260
  H       -2.2011880    -1.4127830    -1.3198260
  H       -0.4545900    -2.1014670     0.0000100
  H        2.7949640     1.5970390    -0.0000090
  H        1.9701580    -2.6507840     0.0000170
  H        3.6325460    -0.7390360     0.0000060
units angstrom
no_reorient  #important for SAPT in psi4, default
symmetry c1  #important for SAPT in psi4, default
}

set PROPERTIES_ORIGIN ["COM"]
properties('MP2/aug-cc-pvtz', properties = ['dipole'])
--------------------------------------------------------------------------

    Molecular point group: c1
  Charge       = 0
  Multiplicity = 1
  Basis Set: AUG-CC-PVTZ
    Blend: AUG-CC-PVTZ
  Basis Set: (AUG-CC-PVTZ AUX)
    Blend: AUG-CC-PVTZ-JKFIT

    Orbital Energies [Eh]
    ---------------------

    Doubly Occupied:

       1A    -20.505296     2A    -15.622589     3A    -11.349828
       4A    -11.305742     5A    -11.280551     6A    -11.268922
       7A    -11.238622     8A    -11.235424     9A    -11.229261
      10A    -11.226501    11A     -1.366569    12A     -1.275762
      13A     -1.117968    14A     -1.038000    15A     -1.022304
      16A     -0.953361    17A     -0.894521    18A     -0.856179
      19A     -0.804223    20A     -0.708878    21A     -0.698130
      22A     -0.652775    23A     -0.640588    24A     -0.625609
      25A     -0.612836    26A     -0.604012    27A     -0.583420
      28A     -0.567954    29A     -0.557530    30A     -0.545003
      31A     -0.528118    32A     -0.505312    33A     -0.479612
      34A     -0.453355    35A     -0.418095    36A     -0.396367
      37A     -0.306574

  @DF-RHF Final Energy:  -438.79117414696424

   => Energetics <=

    Nuclear Repulsion Energy =            524.4707881059052852
    One-Electron Energy =               -1635.5723436524701810
    Two-Electron Energy =                 672.3103813996007148
    Total Energy =                       -438.7911741469641811
  Basis Set: (AUG-CC-PVTZ AUX)
    Blend: AUG-CC-PVTZ-RI
    Molecular point group: c1

    Geometry (in Angstrom), charge = 0, multiplicity = 1:

       Center              X                  Y                   Z               Mass
    ------------   -----------------  -----------------  -----------------  -----------------
         O            0.198348537740     2.211275576689    -0.014632010506    15.994914619570
         N           -0.205872462260    -0.071137423311    -0.014624010506    14.003074004430
         C           -1.661502462260     0.187340576689    -0.014626010506    12.000000000000
         C           -2.387068262260    -0.423311623311     1.425023489494    12.000000000000
         C           -2.302900462260    -0.352514423311    -1.287232010506    12.000000000000
         C            0.653777537740     1.057468576689    -0.014627010506    12.000000000000
         C            0.253698537740    -1.359315423311    -0.014615010506    12.000000000000
         C            2.060359537740     0.720903576689    -0.014625010506    12.000000000000
         C            1.589916537740    -1.649520423311    -0.014611010506    12.000000000000
         C            2.510882537740    -0.571302423311    -0.014617010506    12.000000000000
         H           -1.727323462260     1.276973576689    -0.014645010506     1.007825032230
         H           -3.357756462260    -0.063503423311     1.290310989494     1.007825032230
         H           -2.253505462260    -1.444762423311     1.305260989494     1.007825032230
         H           -1.805232462260     0.058132576689     2.140253989494     1.007825032230
         H           -1.805241462260     0.058046576689    -2.169501010506     1.007825032230
         H           -3.357762462260    -0.063542423311    -1.319546010506     1.007825032230
         H           -2.253524462260    -1.444810423311    -1.334446010506     1.007825032230
         H           -0.506926462260    -2.133494423311    -0.014610010506     1.007825032230
         H            2.742627537740     1.565011576689    -0.014629010506     1.007825032230
         H            1.917821537740    -2.682811423311    -0.014603010506     1.007825032230
         H            3.580209537740    -0.771063423311    -0.014614010506     1.007825032230

  Basis Set: AUG-CC-PVTZ
    Blend: AUG-CC-PVTZ
  Basis Set: (AUG-CC-PVTZ AUX)
    Blend: AUG-CC-PVTZ-JKFIT
	 Reference Energy          =    -438.7911741469642379 [Eh]
	 Singles Energy            =      -0.0000000000000000 [Eh]
	 Same-Spin Energy          =      -0.4680178332492703 [Eh]
	 Opposite-Spin Energy      =      -1.4986759278273079 [Eh]
	 Correlation Energy        =      -1.9666937610765780 [Eh]
	 Total Energy              =    -440.7578679080407937 [Eh]

	 ================> DF-SCS-MP2 Energies <==================
	-----------------------------------------------------------
	 SCS Same-Spin Scale       =       0.3333333333333333 [-]
	 SCS Opposite-Spin Scale   =       1.2000000000000000 [-]
	 SCS Same-Spin Energy      =      -0.1560059444164234 [Eh]
	 SCS Opposite-Spin Energy  =      -1.7984111133927694 [Eh]
	 SCS Correlation Energy    =      -1.9544170578091928 [Eh]
	 SCS Total Energy          =    -440.7455912047734046 [Eh]
	-----------------------------------------------------------

  Dipole Moment: [D]
     X:    -0.6125      Y:    -3.8535      Z:    -0.0939     Total:     3.9030

*** Psi4 exiting successfully. Buy a developer a beer!
