                               Psi4 1.4a3.dev225

  ==> Input File <==

--------------------------------------------------------------------------
#psi4
#
memory 32 gb

molecule  {
0 1
  O        0.2506850     2.2433030    -0.0000120
  N       -0.1535360    -0.0391100    -0.0000040
  C       -1.6091660     0.2193680    -0.0000060
  C       -2.2505560    -0.3204400     1.2726240
  C       -2.2505640    -0.3204870    -1.2726120
  C        0.7061140     1.0894960    -0.0000070
  C        0.3060350    -1.3272880     0.0000050
  C        2.1126960     0.7529310    -0.0000050
  C        1.6422530    -1.6174930     0.0000090
  C        2.5698032    -0.5581601     0.0000031
  H       -1.6749870     1.3090010    -0.0000250
  H       -3.3054200    -0.0314760     1.3049310
  H       -2.2011690    -1.4127350     1.3198810
  H       -1.7528960     0.0901600     2.1548740
  H       -1.7529050     0.0900740    -2.1548810
  H       -3.3054260    -0.0315150    -1.3049260
  H       -2.2011880    -1.4127830    -1.3198260
  H       -0.4545900    -2.1014670     0.0000100
  H        2.7949640     1.5970390    -0.0000090
  H        1.9701580    -2.6507840     0.0000170
  H        3.6325460    -0.7390360     0.0000060
units angstrom
no_reorient  #important for SAPT in psi4, default
symmetry c1  #important for SAPT in psi4, default
}

set PROPERTIES_ORIGIN ["COM"]
properties('MP2/aug-cc-pvtz', properties = ['dipole'])
--------------------------------------------------------------------------

    Molecular point group: c1
  Charge       = 0
  Multiplicity = 1
  Basis Set: AUG-CC-PVTZ
    Blend: AUG-CC-PVTZ
  Basis Set: (AUG-CC-PVTZ AUX)
    Blend: AUG-CC-PVTZ-JKFIT

    Orbital Energies [Eh]
    ---------------------

    Doubly Occupied:

       1A    -20.504087     2A    -15.622610     3A    -11.349156
       4A    -11.306827     5A    -11.274430     6A    -11.270175
       7A    -11.238260     8A    -11.236707     9A    -11.229027
      10A    -11.229011    11A     -1.366293    12A     -1.277726
      13A     -1.122006    14A     -1.051131    15A     -1.021348
      16A     -0.950903    17A     -0.895216    18A     -0.855048
      19A     -0.804643    20A     -0.711874    21A     -0.699784
      22A     -0.655904    23A     -0.640748    24A     -0.628173
      25A     -0.613042    26A     -0.603863    27A     -0.565469
      28A     -0.562253    29A     -0.547865    30A     -0.543051
      31A     -0.525178    32A     -0.504596    33A     -0.487301
      34A     -0.474104    35A     -0.417042    36A     -0.405028
      37A     -0.305628

  @DF-RHF Final Energy:  -438.81648034495919

   => Energetics <=

    Nuclear Repulsion Energy =            527.6916592989575747
    One-Electron Energy =               -1642.0252667340123480
    Two-Electron Energy =                 675.5171270900955278
    Total Energy =                       -438.8164803449592455
  Basis Set: (AUG-CC-PVTZ AUX)
    Blend: AUG-CC-PVTZ-RI
    Molecular point group: c1

    Geometry (in Angstrom), charge = 0, multiplicity = 1:

       Center              X                  Y                   Z               Mass
    ------------   -----------------  -----------------  -----------------  -----------------
         O            0.190403631757     2.206727205551    -0.000011545211    15.994914619570
         N           -0.213817368243    -0.075685794449    -0.000003545211    14.003074004430
         C           -1.669447368243     0.182792205551    -0.000005545211    12.000000000000
         C           -2.310837368243    -0.357015794449     1.272624454789    12.000000000000
         C           -2.310845368243    -0.357062794449    -1.272611545211    12.000000000000
         C            0.645832631757     1.052920205551    -0.000006545211    12.000000000000
         C            0.245753631757    -1.363863794449     0.000005454789    12.000000000000
         C            2.052414631757     0.716355205551    -0.000004545211    12.000000000000
         C            1.581971631757    -1.654068794449     0.000009454789    12.000000000000
         C            2.509521831757    -0.594735894449     0.000003554789    12.000000000000
         H           -1.735268368243     1.272425205551    -0.000024545211     1.007825032230
         H           -3.365701368243    -0.068051794449     1.304931454789     1.007825032230
         H           -2.261450368243    -1.449310794449     1.319881454789     1.007825032230
         H           -1.813177368243     0.053584205551     2.154874454789     1.007825032230
         H           -1.813186368243     0.053498205551    -2.154880545211     1.007825032230
         H           -3.365707368243    -0.068090794449    -1.304925545211     1.007825032230
         H           -2.261469368243    -1.449358794449    -1.319825545211     1.007825032230
         H           -0.514871368243    -2.138042794449     0.000010454789     1.007825032230
         H            2.734682631757     1.560463205551    -0.000008545211     1.007825032230
         H            1.909876631757    -2.687359794449     0.000017454789     1.007825032230
         H            3.572264631757    -0.775611794449     0.000006454789     1.007825032230

  Basis Set: AUG-CC-PVTZ
    Blend: AUG-CC-PVTZ
  Basis Set: (AUG-CC-PVTZ AUX)
    Blend: AUG-CC-PVTZ-JKFIT
	 Reference Energy          =    -438.8164803449591886 [Eh]
	 Singles Energy            =      -0.0000000000000000 [Eh]
	 Same-Spin Energy          =      -0.4684110241626332 [Eh]
	 Opposite-Spin Energy      =      -1.4977959720984528 [Eh]
	 Correlation Energy        =      -1.9662069962610862 [Eh]
	 Total Energy              =    -440.7826873412202531 [Eh]

	 ================> DF-SCS-MP2 Energies <==================
	-----------------------------------------------------------
	 SCS Same-Spin Scale       =       0.3333333333333333 [-]
	 SCS Opposite-Spin Scale   =       1.2000000000000000 [-]
	 SCS Same-Spin Energy      =      -0.1561370080542111 [Eh]
	 SCS Opposite-Spin Energy  =      -1.7973551665181433 [Eh]
	 SCS Correlation Energy    =      -1.9534921745723544 [Eh]
	 SCS Total Energy          =    -440.7699725195315636 [Eh]
	-----------------------------------------------------------

  Dipole Moment: [D]
     X:    -0.6755      Y:    -3.8993      Z:     0.0000     Total:     3.9573

*** Psi4 exiting successfully. Buy a developer a beer!
