                               Psi4 1.4a3.dev225

  ==> Input File <==

--------------------------------------------------------------------------
#psi4
#
memory 32 gb

molecule  {
0 1
  O        0.2506850     2.2433030    -0.0000120
  N       -0.1535360    -0.0391100    -0.0000040
  C       -1.6091660     0.2193680    -0.0000060
  C       -2.2505560    -0.3204400     1.2726240
  C       -2.2505640    -0.3204870    -1.2726120
  C        0.7061140     1.0894960    -0.0000070
  C        0.3060350    -1.3272880     0.0000050
  C        2.1126960     0.7529310    -0.0000050
  C        1.6422530    -1.6174930     0.0000090
  C        2.5632190    -0.5392750     0.0000030
  H       -1.6749870     1.3090010    -0.0000250
  H       -3.3054200    -0.0314760     1.3049310
  H       -2.2011690    -1.4127350     1.3198810
  H       -1.7528960     0.0901600     2.1548740
  H       -1.7529050     0.0900740    -2.1548810
  H       -3.3054260    -0.0315150    -1.3049260
  H       -2.2011880    -1.4127830    -1.3198260
  H       -0.4545900    -2.1014670     0.0000100
  H        2.7949640     1.5970390    -0.0000090
  H        1.9701580    -2.6507840     0.0000170
  H        3.5833963    -0.7298543     0.0000059
units angstrom
no_reorient  #important for SAPT in psi4, default
symmetry c1  #important for SAPT in psi4, default
}

set PROPERTIES_ORIGIN ["COM"]
properties('MP2/aug-cc-pvtz', properties = ['dipole'])
--------------------------------------------------------------------------

    Molecular point group: c1
  Charge       = 0
  Multiplicity = 1
  Basis Set: AUG-CC-PVTZ
    Blend: AUG-CC-PVTZ
  Basis Set: (AUG-CC-PVTZ AUX)
    Blend: AUG-CC-PVTZ-JKFIT

    Orbital Energies [Eh]
    ---------------------

    Doubly Occupied:

       1A    -20.505252     2A    -15.621322     3A    -11.349669
       4A    -11.305329     5A    -11.274070     6A    -11.263168
       7A    -11.237890     8A    -11.234982     9A    -11.228678
      10A    -11.228662    11A     -1.366815    12A     -1.277418
      13A     -1.123217    14A     -1.051978    15A     -1.022324
      16A     -0.950567    17A     -0.895313    18A     -0.857215
      19A     -0.805164    20A     -0.713276    21A     -0.699981
      22A     -0.658207    23A     -0.642885    24A     -0.627993
      25A     -0.612851    26A     -0.604275    27A     -0.567935
      28A     -0.562012    29A     -0.547815    30A     -0.543648
      31A     -0.524867    32A     -0.504487    33A     -0.486812
      34A     -0.473569    35A     -0.417800    36A     -0.406466
      37A     -0.306922

  @DF-RHF Final Energy:  -438.81720784300728

   => Energetics <=

    Nuclear Repulsion Energy =            528.1882990219993417
    One-Electron Energy =               -1643.0093505985876163
    Two-Electron Energy =                 676.0038437335808794
    Total Energy =                       -438.8172078430072816
  Basis Set: (AUG-CC-PVTZ AUX)
    Blend: AUG-CC-PVTZ-RI
    Molecular point group: c1

    Geometry (in Angstrom), charge = 0, multiplicity = 1:

       Center              X                  Y                   Z               Mass
    ------------   -----------------  -----------------  -----------------  -----------------
         O            0.191341338842     2.205006547874    -0.000011535722    15.994914619570
         N           -0.212879661158    -0.077406452126    -0.000003535722    14.003074004430
         C           -1.668509661158     0.181071547874    -0.000005535722    12.000000000000
         C           -2.309899661158    -0.358736452126     1.272624464278    12.000000000000
         C           -2.309907661158    -0.358783452126    -1.272611535722    12.000000000000
         C            0.646770338842     1.051199547874    -0.000006535722    12.000000000000
         C            0.246691338842    -1.365584452126     0.000005464278    12.000000000000
         C            2.053352338842     0.714634547874    -0.000004535722    12.000000000000
         C            1.582909338842    -1.655789452126     0.000009464278    12.000000000000
         C            2.503875338842    -0.577571452126     0.000003464278    12.000000000000
         H           -1.734330661158     1.270704547874    -0.000024535722     1.007825032230
         H           -3.364763661158    -0.069772452126     1.304931464278     1.007825032230
         H           -2.260512661158    -1.451031452126     1.319881464278     1.007825032230
         H           -1.812239661158     0.051863547874     2.154874464278     1.007825032230
         H           -1.812248661158     0.051777547874    -2.154880535722     1.007825032230
         H           -3.364769661158    -0.069811452126    -1.304925535722     1.007825032230
         H           -2.260531661158    -1.451079452126    -1.319825535722     1.007825032230
         H           -0.513933661158    -2.139763452126     0.000010464278     1.007825032230
         H            2.735620338842     1.558742547874    -0.000008535722     1.007825032230
         H            1.910814338842    -2.689080452126     0.000017464278     1.007825032230
         H            3.524052638842    -0.768150752126     0.000006364278     1.007825032230

  Basis Set: AUG-CC-PVTZ
    Blend: AUG-CC-PVTZ
  Basis Set: (AUG-CC-PVTZ AUX)
    Blend: AUG-CC-PVTZ-JKFIT
	 Reference Energy          =    -438.8172078430072816 [Eh]
	 Singles Energy            =      -0.0000000000000000 [Eh]
	 Same-Spin Energy          =      -0.4678785382818081 [Eh]
	 Opposite-Spin Energy      =      -1.4969547442868310 [Eh]
	 Correlation Energy        =      -1.9648332825686390 [Eh]
	 Total Energy              =    -440.7820411255759154 [Eh]

	 ================> DF-SCS-MP2 Energies <==================
	-----------------------------------------------------------
	 SCS Same-Spin Scale       =       0.3333333333333333 [-]
	 SCS Opposite-Spin Scale   =       1.2000000000000000 [-]
	 SCS Same-Spin Energy      =      -0.1559595127606027 [Eh]
	 SCS Opposite-Spin Energy  =      -1.7963456931441970 [Eh]
	 SCS Correlation Energy    =      -1.9523052059047996 [Eh]
	 SCS Total Energy          =    -440.7695130489120743 [Eh]
	-----------------------------------------------------------

  Dipole Moment: [D]
     X:    -0.6485      Y:    -3.8718      Z:     0.0000     Total:     3.9257

*** Psi4 exiting successfully. Buy a developer a beer!
