                               Psi4 1.4a3.dev225

  ==> Input File <==

--------------------------------------------------------------------------
#psi4
#
memory 32 gb

molecule  {
0 1
  O        0.2506850     2.2433030    -0.0000120
  N       -0.1535360    -0.0391100    -0.0000040
  C       -1.6091660     0.2193680    -0.0000060
  C       -2.2505560    -0.3204400     1.2726240
  C       -2.2505640    -0.3204870    -1.2726120
  C        0.7061140     1.0894960    -0.0000070
  C        0.3060350    -1.3272880     0.0000050
  C        2.1126960     0.7529310    -0.0000050
  C        1.6422530    -1.6174930     0.0000090
  C        2.5632190    -0.5392750     0.0000030
  H       -1.6749870     1.3090010    -0.0000250
  H       -3.3054200    -0.0314760     1.3049310
  H       -2.2011690    -1.4127350     1.3198810
  H       -1.7528960     0.0901600     2.1548740
  H       -1.7529050     0.0900740    -2.1548810
  H       -3.3054260    -0.0315150    -1.3049260
  H       -2.2011880    -1.4127830    -1.3198260
  H       -0.5947570    -2.2441317     0.0000109
  H        2.7949640     1.5970390    -0.0000090
  H        1.9701580    -2.6507840     0.0000170
  H        3.6325460    -0.7390360     0.0000060
units angstrom
no_reorient  #important for SAPT in psi4, default
symmetry c1  #important for SAPT in psi4, default
}

set PROPERTIES_ORIGIN ["COM"]
properties('MP2/aug-cc-pvtz', properties = ['dipole'])
--------------------------------------------------------------------------

    Molecular point group: c1
  Charge       = 0
  Multiplicity = 1
  Basis Set: AUG-CC-PVTZ
    Blend: AUG-CC-PVTZ
  Basis Set: (AUG-CC-PVTZ AUX)
    Blend: AUG-CC-PVTZ-JKFIT

    Orbital Energies [Eh]
    ---------------------

    Doubly Occupied:

       1A    -20.506481     2A    -15.623550     3A    -11.351362
       4A    -11.325442     5A    -11.274313     6A    -11.270169
       7A    -11.239686     8A    -11.235728     9A    -11.228137
      10A    -11.228122    11A     -1.367987    12A     -1.277819
      13A     -1.123184    14A     -1.051354    15A     -1.017960
      16A     -0.950117    17A     -0.889501    18A     -0.852831
      19A     -0.801401    20A     -0.709542    21A     -0.689540
      22A     -0.646417    23A     -0.637465    24A     -0.628789
      25A     -0.612429    26A     -0.591621    27A     -0.563061
      28A     -0.561899    29A     -0.547777    30A     -0.538402
      31A     -0.524783    32A     -0.504406    33A     -0.482927
      34A     -0.474669    35A     -0.418024    36A     -0.407541
      37A     -0.307853

  @DF-RHF Final Energy:  -438.79461235616679

   => Energetics <=

    Nuclear Repulsion Energy =            526.9992431463148250
    One-Electron Energy =               -1640.6631307429697699
    Two-Electron Energy =                 674.8692752404882640
    Total Energy =                       -438.7946123561667946
  Basis Set: (AUG-CC-PVTZ AUX)
    Blend: AUG-CC-PVTZ-RI
    Molecular point group: c1

    Geometry (in Angstrom), charge = 0, multiplicity = 1:

       Center              X                  Y                   Z               Mass
    ------------   -----------------  -----------------  -----------------  -----------------
         O            0.192010486740     2.206122903770    -0.000011543074    15.994914619570
         N           -0.212210513260    -0.076290096230    -0.000003543074    14.003074004430
         C           -1.667840513260     0.182187903770    -0.000005543074    12.000000000000
         C           -2.309230513260    -0.357620096230     1.272624456926    12.000000000000
         C           -2.309238513260    -0.357667096230    -1.272611543074    12.000000000000
         C            0.647439486740     1.052315903770    -0.000006543074    12.000000000000
         C            0.247360486740    -1.364468096230     0.000005456926    12.000000000000
         C            2.054021486740     0.715750903770    -0.000004543074    12.000000000000
         C            1.583578486740    -1.654673096230     0.000009456926    12.000000000000
         C            2.504544486740    -0.576455096230     0.000003456926    12.000000000000
         H           -1.733661513260     1.271820903770    -0.000024543074     1.007825032230
         H           -3.364094513260    -0.068656096230     1.304931456926     1.007825032230
         H           -2.259843513260    -1.449915096230     1.319881456926     1.007825032230
         H           -1.811570513260     0.052979903770     2.154874456926     1.007825032230
         H           -1.811579513260     0.052893903770    -2.154880543074     1.007825032230
         H           -3.364100513260    -0.068695096230    -1.304925543074     1.007825032230
         H           -2.259862513260    -1.449963096230    -1.319825543074     1.007825032230
         H           -0.653431513260    -2.281311796230     0.000011356926     1.007825032230
         H            2.736289486740     1.559858903770    -0.000008543074     1.007825032230
         H            1.911483486740    -2.687964096230     0.000017456926     1.007825032230
         H            3.573871486740    -0.776216096230     0.000006456926     1.007825032230

  Basis Set: AUG-CC-PVTZ
    Blend: AUG-CC-PVTZ
  Basis Set: (AUG-CC-PVTZ AUX)
    Blend: AUG-CC-PVTZ-JKFIT
	 Reference Energy          =    -438.7946123561667946 [Eh]
	 Singles Energy            =      -0.0000000000000000 [Eh]
	 Same-Spin Energy          =      -0.4690130159974452 [Eh]
	 Opposite-Spin Energy      =      -1.4999789457360126 [Eh]
	 Correlation Energy        =      -1.9689919617334577 [Eh]
	 Total Energy              =    -440.7636043179002741 [Eh]

	 ================> DF-SCS-MP2 Energies <==================
	-----------------------------------------------------------
	 SCS Same-Spin Scale       =       0.3333333333333333 [-]
	 SCS Opposite-Spin Scale   =       1.2000000000000000 [-]
	 SCS Same-Spin Energy      =      -0.1563376719991484 [Eh]
	 SCS Opposite-Spin Energy  =      -1.7999747348832151 [Eh]
	 SCS Correlation Energy    =      -1.9563124068823634 [Eh]
	 SCS Total Energy          =    -440.7509247630491700 [Eh]
	-----------------------------------------------------------

  Dipole Moment: [D]
     X:    -0.6267      Y:    -3.8174      Z:     0.0000     Total:     3.8685

*** Psi4 exiting successfully. Buy a developer a beer!
