                               Psi4 1.4a3.dev225

  ==> Input File <==

--------------------------------------------------------------------------
#psi4
#
memory 32 gb

molecule  {
0 1
  O        0.2506850     2.2433030    -0.0000120
  N       -0.1584942    -0.0618813    -0.0460451
  C       -1.6091660     0.2193680    -0.0000060
  C       -2.2505560    -0.3204400     1.2726240
  C       -2.2505640    -0.3204870    -1.2726120
  C        0.7061140     1.0894960    -0.0000070
  C        0.3060350    -1.3272880     0.0000050
  C        2.1126960     0.7529310    -0.0000050
  C        1.6422530    -1.6174930     0.0000090
  C        2.5632190    -0.5392750     0.0000030
  H       -1.6749870     1.3090010    -0.0000250
  H       -3.3054200    -0.0314760     1.3049310
  H       -2.2011690    -1.4127350     1.3198810
  H       -1.7528960     0.0901600     2.1548740
  H       -1.7529050     0.0900740    -2.1548810
  H       -3.3054260    -0.0315150    -1.3049260
  H       -2.2011880    -1.4127830    -1.3198260
  H       -0.4545900    -2.1014670     0.0000100
  H        2.7949640     1.5970390    -0.0000090
  H        1.9701580    -2.6507840     0.0000170
  H        3.6325460    -0.7390360     0.0000060
units angstrom
no_reorient  #important for SAPT in psi4, default
symmetry c1  #important for SAPT in psi4, default
}

set PROPERTIES_ORIGIN ["COM"]
properties('MP2/aug-cc-pvtz', properties = ['dipole'])
--------------------------------------------------------------------------

    Molecular point group: c1
  Charge       = 0
  Multiplicity = 1
  Basis Set: AUG-CC-PVTZ
    Blend: AUG-CC-PVTZ
  Basis Set: (AUG-CC-PVTZ AUX)
    Blend: AUG-CC-PVTZ-JKFIT

    Orbital Energies [Eh]
    ---------------------

    Doubly Occupied:

       1A    -20.508819     2A    -15.622065     3A    -11.352718
       4A    -11.304556     5A    -11.274760     6A    -11.268912
       7A    -11.235950     8A    -11.233990     9A    -11.229906
      10A    -11.227841    11A     -1.367121    12A     -1.281550
      13A     -1.122134    14A     -1.052077    15A     -1.020563
      16A     -0.950983    17A     -0.892838    18A     -0.855263
      19A     -0.804274    20A     -0.712361    21A     -0.697750
      22A     -0.655686    23A     -0.642480    24A     -0.628122
      25A     -0.612420    26A     -0.604763    27A     -0.565035
      28A     -0.562457    29A     -0.547994    30A     -0.543036
      31A     -0.525854    32A     -0.505316    33A     -0.486115
      34A     -0.475745    35A     -0.418859    36A     -0.407252
      37A     -0.305101

  @DF-RHF Final Energy:  -438.81617843672990

   => Energetics <=

    Nuclear Repulsion Energy =            527.8440080631476121
    One-Electron Energy =               -1642.3150458979580435
    Two-Electron Energy =                 675.6548593980805890
    Total Energy =                       -438.8161784367298424
  Basis Set: (AUG-CC-PVTZ AUX)
    Blend: AUG-CC-PVTZ-RI
    Molecular point group: c1

    Geometry (in Angstrom), charge = 0, multiplicity = 1:

       Center              X                  Y                   Z               Mass
    ------------   -----------------  -----------------  -----------------  -----------------
         O            0.191486474191     2.207400128402     0.004691540705    15.994914619570
         N           -0.217692725809    -0.097784171598    -0.041341559295    14.003074004430
         C           -1.668364525809     0.183465128402     0.004697540705    12.000000000000
         C           -2.309754525809    -0.356342871598     1.277327540705    12.000000000000
         C           -2.309762525809    -0.356389871598    -1.267908459295    12.000000000000
         C            0.646915474191     1.053593128402     0.004696540705    12.000000000000
         C            0.246836474191    -1.363190871598     0.004708540705    12.000000000000
         C            2.053497474191     0.717028128402     0.004698540705    12.000000000000
         C            1.583054474191    -1.653395871598     0.004712540705    12.000000000000
         C            2.504020474191    -0.575177871598     0.004706540705    12.000000000000
         H           -1.734185525809     1.273098128402     0.004678540705     1.007825032230
         H           -3.364618525809    -0.067378871598     1.309634540705     1.007825032230
         H           -2.260367525809    -1.448637871598     1.324584540705     1.007825032230
         H           -1.812094525809     0.054257128402     2.159577540705     1.007825032230
         H           -1.812103525809     0.054171128402    -2.150177459295     1.007825032230
         H           -3.364624525809    -0.067417871598    -1.300222459295     1.007825032230
         H           -2.260386525809    -1.448685871598    -1.315122459295     1.007825032230
         H           -0.513788525809    -2.137369871598     0.004713540705     1.007825032230
         H            2.735765474191     1.561136128402     0.004694540705     1.007825032230
         H            1.910959474191    -2.686686871598     0.004720540705     1.007825032230
         H            3.573347474191    -0.774938871598     0.004709540705     1.007825032230

  Basis Set: AUG-CC-PVTZ
    Blend: AUG-CC-PVTZ
  Basis Set: (AUG-CC-PVTZ AUX)
    Blend: AUG-CC-PVTZ-JKFIT
	 Reference Energy          =    -438.8161784367298992 [Eh]
	 Singles Energy            =      -0.0000000000000000 [Eh]
	 Same-Spin Energy          =      -0.4683241615480375 [Eh]
	 Opposite-Spin Energy      =      -1.4975689010067019 [Eh]
	 Correlation Energy        =      -1.9658930625547395 [Eh]
	 Total Energy              =    -440.7820714992846547 [Eh]

	 ================> DF-SCS-MP2 Energies <==================
	-----------------------------------------------------------
	 SCS Same-Spin Scale       =       0.3333333333333333 [-]
	 SCS Opposite-Spin Scale   =       1.2000000000000000 [-]
	 SCS Same-Spin Energy      =      -0.1561080538493458 [Eh]
	 SCS Opposite-Spin Energy  =      -1.7970826812080423 [Eh]
	 SCS Correlation Energy    =      -1.9531907350573880 [Eh]
	 SCS Total Energy          =    -440.7693691717872753 [Eh]
	-----------------------------------------------------------

  Dipole Moment: [D]
     X:    -0.7095      Y:    -3.7707      Z:     0.0416     Total:     3.8371

*** Psi4 exiting successfully. Buy a developer a beer!
