                               Psi4 1.4a3.dev225

  ==> Input File <==

--------------------------------------------------------------------------
#psi4
#
memory 32 gb

molecule  {
0 1
  O        0.2506850     2.2433030    -0.0000120
  N       -0.1535360    -0.0391100    -0.0000040
  C       -1.6091660     0.2193680    -0.0000060
  C       -2.2505560    -0.3204400     1.2726240
  C       -2.2505640    -0.3204870    -1.2726120
  C        0.7061140     1.0894960    -0.0000070
  C        0.3060350    -1.3272880     0.0000050
  C        2.1126960     0.7529310    -0.0000050
  C        1.6422530    -1.6174930     0.0000090
  C        2.5632190    -0.5392750     0.0000030
  H       -1.6749870     1.3090010    -0.0000250
  H       -3.3054200    -0.0314760     1.3049310
  H       -2.2011690    -1.4127350     1.3198810
  H       -1.7528960     0.0901600     2.1548740
  H       -1.8200275     0.1198317    -2.1755966
  H       -3.3054260    -0.0315150    -1.3049260
  H       -2.2011880    -1.4127830    -1.3198260
  H       -0.4545900    -2.1014670     0.0000100
  H        2.7949640     1.5970390    -0.0000090
  H        1.9701580    -2.6507840     0.0000170
  H        3.6325460    -0.7390360     0.0000060
units angstrom
no_reorient  #important for SAPT in psi4, default
symmetry c1  #important for SAPT in psi4, default
}

set PROPERTIES_ORIGIN ["COM"]
properties('MP2/aug-cc-pvtz', properties = ['dipole'])
--------------------------------------------------------------------------

    Molecular point group: c1
  Charge       = 0
  Multiplicity = 1
  Basis Set: AUG-CC-PVTZ
    Blend: AUG-CC-PVTZ
  Basis Set: (AUG-CC-PVTZ AUX)
    Blend: AUG-CC-PVTZ-JKFIT

    Orbital Energies [Eh]
    ---------------------

    Doubly Occupied:

       1A    -20.505311     2A    -15.621337     3A    -11.349820
       4A    -11.305538     5A    -11.274644     6A    -11.268805
       7A    -11.238205     8A    -11.235114     9A    -11.229043
      10A    -11.228618    11A     -1.366861    12A     -1.277458
      13A     -1.122392    14A     -1.051217    15A     -1.022405
      16A     -0.950669    17A     -0.893294    18A     -0.855912
      19A     -0.804179    20A     -0.711313    21A     -0.699611
      22A     -0.655381    23A     -0.641051    24A     -0.627747
      25A     -0.613676    26A     -0.604294    27A     -0.564114
      28A     -0.562836    29A     -0.546195    30A     -0.542868
      31A     -0.523607    32A     -0.505525    33A     -0.486889
      34A     -0.473957    35A     -0.417657    36A     -0.406584
      37A     -0.307019

  @DF-RHF Final Energy:  -438.81747561469285

   => Energetics <=

    Nuclear Repulsion Energy =            527.7894623674949344
    One-Electron Energy =               -1642.2315812713247851
    Two-Electron Energy =                 675.6246432891369977
    Total Energy =                       -438.8174756146928530
  Basis Set: (AUG-CC-PVTZ AUX)
    Blend: AUG-CC-PVTZ-RI
    Molecular point group: c1

    Geometry (in Angstrom), charge = 0, multiplicity = 1:

       Center              X                  Y                   Z               Mass
    ------------   -----------------  -----------------  -----------------  -----------------
         O            0.191473472638     2.204855275675     0.000140762064    15.994914619570
         N           -0.212747527362    -0.077557724325     0.000148762064    14.003074004430
         C           -1.668377527362     0.180920275675     0.000146762064    12.000000000000
         C           -2.309767527362    -0.358887724325     1.272776762064    12.000000000000
         C           -2.309775527362    -0.358934724325    -1.272459237936    12.000000000000
         C            0.646902472638     1.051048275675     0.000145762064    12.000000000000
         C            0.246823472638    -1.365735724325     0.000157762064    12.000000000000
         C            2.053484472638     0.714483275675     0.000147762064    12.000000000000
         C            1.583041472638    -1.655940724325     0.000161762064    12.000000000000
         C            2.504007472638    -0.577722724325     0.000155762064    12.000000000000
         H           -1.734198527362     1.270553275675     0.000127762064     1.007825032230
         H           -3.364631527362    -0.069923724325     1.305083762064     1.007825032230
         H           -2.260380527362    -1.451182724325     1.320033762064     1.007825032230
         H           -1.812107527362     0.051712275675     2.155026762064     1.007825032230
         H           -1.879239027362     0.081383975675    -2.175443837936     1.007825032230
         H           -3.364637527362    -0.069962724325    -1.304773237936     1.007825032230
         H           -2.260399527362    -1.451230724325    -1.319673237936     1.007825032230
         H           -0.513801527362    -2.139914724325     0.000162762064     1.007825032230
         H            2.735752472638     1.558591275675     0.000143762064     1.007825032230
         H            1.910946472638    -2.689231724325     0.000169762064     1.007825032230
         H            3.573334472638    -0.777483724325     0.000158762064     1.007825032230

  Basis Set: AUG-CC-PVTZ
    Blend: AUG-CC-PVTZ
  Basis Set: (AUG-CC-PVTZ AUX)
    Blend: AUG-CC-PVTZ-JKFIT
	 Reference Energy          =    -438.8174756146928530 [Eh]
	 Singles Energy            =      -0.0000000000000000 [Eh]
	 Same-Spin Energy          =      -0.4679688072807768 [Eh]
	 Opposite-Spin Energy      =      -1.4972405961255078 [Eh]
	 Correlation Energy        =      -1.9652094034062846 [Eh]
	 Total Energy              =    -440.7826850180991300 [Eh]

	 ================> DF-SCS-MP2 Energies <==================
	-----------------------------------------------------------
	 SCS Same-Spin Scale       =       0.3333333333333333 [-]
	 SCS Opposite-Spin Scale   =       1.2000000000000000 [-]
	 SCS Same-Spin Energy      =      -0.1559896024269256 [Eh]
	 SCS Opposite-Spin Energy  =      -1.7966887153506093 [Eh]
	 SCS Correlation Energy    =      -1.9526783177775349 [Eh]
	 SCS Total Energy          =    -440.7701539324704072 [Eh]
	-----------------------------------------------------------

  Dipole Moment: [D]
     X:    -0.6880      Y:    -3.8554      Z:    -0.0098     Total:     3.9163

*** Psi4 exiting successfully. Buy a developer a beer!
