                               Psi4 1.4a3.dev225

  ==> Input File <==

--------------------------------------------------------------------------
#psi4
#
memory 32 gb

molecule  {
0 1
  O        0.2506850     2.2433030    -0.0000120
  N       -0.1493162     0.0309754    -0.1379057
  C       -1.6091660     0.2193680    -0.0000060
  C       -2.2505560    -0.3204400     1.2726240
  C       -2.2505640    -0.3204870    -1.2726120
  C        0.7061140     1.0894960    -0.0000070
  C        0.3060350    -1.3272880     0.0000050
  C        2.1126960     0.7529310    -0.0000050
  C        1.6422530    -1.6174930     0.0000090
  C        2.5632190    -0.5392750     0.0000030
  H       -1.6749870     1.3090010    -0.0000250
  H       -3.3054200    -0.0314760     1.3049310
  H       -2.2011690    -1.4127350     1.3198810
  H       -1.7528960     0.0901600     2.1548740
  H       -1.7529050     0.0900740    -2.1548810
  H       -3.3054260    -0.0315150    -1.3049260
  H       -2.2011880    -1.4127830    -1.3198260
  H       -0.4545900    -2.1014670     0.0000100
  H        2.7949640     1.5970390    -0.0000090
  H        1.9701580    -2.6507840     0.0000170
  H        3.6325460    -0.7390360     0.0000060
units angstrom
no_reorient  #important for SAPT in psi4, default
symmetry c1  #important for SAPT in psi4, default
}

set PROPERTIES_ORIGIN ["COM"]
properties('MP2/aug-cc-pvtz', properties = ['dipole'])
--------------------------------------------------------------------------

    Molecular point group: c1
  Charge       = 0
  Multiplicity = 1
  Basis Set: AUG-CC-PVTZ
    Blend: AUG-CC-PVTZ
  Basis Set: (AUG-CC-PVTZ AUX)
    Blend: AUG-CC-PVTZ-JKFIT

    Orbital Energies [Eh]
    ---------------------

    Doubly Occupied:

       1A    -20.498291     2A    -15.618168     3A    -11.342986
       4A    -11.308373     5A    -11.271785     6A    -11.270049
       7A    -11.245870     8A    -11.239656     9A    -11.230979
      10A    -11.224652    11A     -1.367733    12A     -1.264152
      13A     -1.124085    14A     -1.050733    15A     -1.024189
      16A     -0.949524    17A     -0.893993    18A     -0.854063
      19A     -0.800108    20A     -0.709055    21A     -0.702680
      22A     -0.657950    23A     -0.634563    24A     -0.625580
      25A     -0.614009    26A     -0.603493    27A     -0.563160
      28A     -0.560780    29A     -0.547740    30A     -0.546102
      31A     -0.519521    32A     -0.500559    33A     -0.485838
      34A     -0.466875    35A     -0.415626    36A     -0.404712
      37A     -0.314033

  @DF-RHF Final Energy:  -438.80801809921735

   => Energetics <=

    Nuclear Repulsion Energy =            527.7622223855051971
    One-Electron Energy =               -1642.2371544899351647
    Two-Electron Energy =                 675.6669140052127887
    Total Energy =                       -438.8080180992172927
  Basis Set: (AUG-CC-PVTZ AUX)
    Blend: AUG-CC-PVTZ-RI
    Molecular point group: c1

    Geometry (in Angstrom), charge = 0, multiplicity = 1:

       Center              X                  Y                   Z               Mass
    ------------   -----------------  -----------------  -----------------  -----------------
         O            0.190548945718     2.197914859260     0.014075058691    15.994914619570
         N           -0.209452254282    -0.014412740740    -0.123818641309    14.003074004430
         C           -1.669302054282     0.173979859260     0.014081058691    12.000000000000
         C           -2.310692054282    -0.365828140740     1.286711058691    12.000000000000
         C           -2.310700054282    -0.365875140740    -1.258524941309    12.000000000000
         C            0.645977945718     1.044107859260     0.014080058691    12.000000000000
         C            0.245898945718    -1.372676140740     0.014092058691    12.000000000000
         C            2.052559945718     0.707542859260     0.014082058691    12.000000000000
         C            1.582116945718    -1.662881140740     0.014096058691    12.000000000000
         C            2.503082945718    -0.584663140740     0.014090058691    12.000000000000
         H           -1.735123054282     1.263612859260     0.014062058691     1.007825032230
         H           -3.365556054282    -0.076864140740     1.319018058691     1.007825032230
         H           -2.261305054282    -1.458123140740     1.333968058691     1.007825032230
         H           -1.813032054282     0.044771859260     2.168961058691     1.007825032230
         H           -1.813041054282     0.044685859260    -2.140793941309     1.007825032230
         H           -3.365562054282    -0.076903140740    -1.290838941309     1.007825032230
         H           -2.261324054282    -1.458171140740    -1.305738941309     1.007825032230
         H           -0.514726054282    -2.146855140740     0.014097058691     1.007825032230
         H            2.734827945718     1.551650859260     0.014078058691     1.007825032230
         H            1.910021945718    -2.696172140740     0.014104058691     1.007825032230
         H            3.572409945718    -0.784424140740     0.014093058691     1.007825032230

  Basis Set: AUG-CC-PVTZ
    Blend: AUG-CC-PVTZ
  Basis Set: (AUG-CC-PVTZ AUX)
    Blend: AUG-CC-PVTZ-JKFIT
	 Reference Energy          =    -438.8080180992173496 [Eh]
	 Singles Energy            =      -0.0000000000000000 [Eh]
	 Same-Spin Energy          =      -0.4670822415711750 [Eh]
	 Opposite-Spin Energy      =      -1.4976222241291905 [Eh]
	 Correlation Energy        =      -1.9647044657003656 [Eh]
	 Total Energy              =    -440.7727225649177285 [Eh]

	 ================> DF-SCS-MP2 Energies <==================
	-----------------------------------------------------------
	 SCS Same-Spin Scale       =       0.3333333333333333 [-]
	 SCS Opposite-Spin Scale   =       1.2000000000000000 [-]
	 SCS Same-Spin Energy      =      -0.1556940805237250 [Eh]
	 SCS Opposite-Spin Energy  =      -1.7971466689550286 [Eh]
	 SCS Correlation Energy    =      -1.9528407494787536 [Eh]
	 SCS Total Energy          =    -440.7608588486961025 [Eh]
	-----------------------------------------------------------

  Dipole Moment: [D]
     X:    -0.4501      Y:    -4.0939      Z:     0.1328     Total:     4.1207

*** Psi4 exiting successfully. Buy a developer a beer!
