                               Psi4 1.4a3.dev225

  ==> Input File <==

--------------------------------------------------------------------------
#psi4
#
memory 32 gb

molecule  {
0 1
  O        0.2506850     2.2433030    -0.0000120
  N       -0.1535360    -0.0391100    -0.0000040
  C       -1.6091660     0.2193680    -0.0000060
  C       -2.2505560    -0.3204400     1.2726240
  C       -2.2505640    -0.3204870    -1.2726120
  C        0.7061140     1.0894960    -0.0000070
  C        0.3060350    -1.3272880     0.0000050
  C        2.1126960     0.7529310    -0.0000050
  C        1.6422530    -1.6174930     0.0000090
  C        2.5632190    -0.5392750     0.0000030
  H       -1.6737811     1.2890374    -0.0000247
  H       -3.3054200    -0.0314760     1.3049310
  H       -2.2011690    -1.4127350     1.3198810
  H       -1.7528960     0.0901600     2.1548740
  H       -1.7529050     0.0900740    -2.1548810
  H       -3.3054260    -0.0315150    -1.3049260
  H       -2.2011880    -1.4127830    -1.3198260
  H       -0.4545900    -2.1014670     0.0000100
  H        2.7949640     1.5970390    -0.0000090
  H        1.9701580    -2.6507840     0.0000170
  H        3.6325460    -0.7390360     0.0000060
units angstrom
no_reorient  #important for SAPT in psi4, default
symmetry c1  #important for SAPT in psi4, default
}

set PROPERTIES_ORIGIN ["COM"]
properties('MP2/aug-cc-pvtz', properties = ['dipole'])
--------------------------------------------------------------------------

    Molecular point group: c1
  Charge       = 0
  Multiplicity = 1
  Basis Set: AUG-CC-PVTZ
    Blend: AUG-CC-PVTZ
  Basis Set: (AUG-CC-PVTZ AUX)
    Blend: AUG-CC-PVTZ-JKFIT

    Orbital Energies [Eh]
    ---------------------

    Doubly Occupied:

       1A    -20.505396     2A    -15.621355     3A    -11.349918
       4A    -11.305555     5A    -11.272279     6A    -11.268889
       7A    -11.238276     8A    -11.235196     9A    -11.228783
      10A    -11.228767    11A     -1.366963    12A     -1.277623
      13A     -1.122829    14A     -1.051822    15A     -1.022484
      16A     -0.950723    17A     -0.893670    18A     -0.855846
      19A     -0.805388    20A     -0.712322    21A     -0.699566
      22A     -0.655737    23A     -0.641333    24A     -0.628148
      25A     -0.613426    26A     -0.604327    27A     -0.564431
      28A     -0.562210    29A     -0.547975    30A     -0.543864
      31A     -0.524568    32A     -0.504610    33A     -0.488967
      34A     -0.473725    35A     -0.418090    36A     -0.406591
      37A     -0.307093

  @DF-RHF Final Energy:  -438.81818564045710

   => Energetics <=

    Nuclear Repulsion Energy =            528.0163973367989456
    One-Electron Energy =               -1642.6716791610201653
    Two-Electron Energy =                 675.8370961837640607
    Total Energy =                       -438.8181856404571590
  Basis Set: (AUG-CC-PVTZ AUX)
    Blend: AUG-CC-PVTZ-RI
    Molecular point group: c1

    Geometry (in Angstrom), charge = 0, multiplicity = 1:

       Center              X                  Y                   Z               Mass
    ------------   -----------------  -----------------  -----------------  -----------------
         O            0.190971130718     2.205220820504    -0.000011538662    15.994914619570
         N           -0.213249869282    -0.077192179496    -0.000003538662    14.003074004430
         C           -1.668879869282     0.181285820504    -0.000005538662    12.000000000000
         C           -2.310269869282    -0.358522179496     1.272624461338    12.000000000000
         C           -2.310277869282    -0.358569179496    -1.272611538662    12.000000000000
         C            0.646400130718     1.051413820504    -0.000006538662    12.000000000000
         C            0.246321130718    -1.365370179496     0.000005461338    12.000000000000
         C            2.052982130718     0.714848820504    -0.000004538662    12.000000000000
         C            1.582539130718    -1.655575179496     0.000009461338    12.000000000000
         C            2.503505130718    -0.577357179496     0.000003461338    12.000000000000
         H           -1.733494969282     1.250955220504    -0.000024238662     1.007825032230
         H           -3.365133869282    -0.069558179496     1.304931461338     1.007825032230
         H           -2.260882869282    -1.450817179496     1.319881461338     1.007825032230
         H           -1.812609869282     0.052077820504     2.154874461338     1.007825032230
         H           -1.812618869282     0.051991820504    -2.154880538662     1.007825032230
         H           -3.365139869282    -0.069597179496    -1.304925538662     1.007825032230
         H           -2.260901869282    -1.450865179496    -1.319825538662     1.007825032230
         H           -0.514303869282    -2.139549179496     0.000010461338     1.007825032230
         H            2.735250130718     1.558956820504    -0.000008538662     1.007825032230
         H            1.910444130718    -2.688866179496     0.000017461338     1.007825032230
         H            3.572832130718    -0.777118179496     0.000006461338     1.007825032230

  Basis Set: AUG-CC-PVTZ
    Blend: AUG-CC-PVTZ
  Basis Set: (AUG-CC-PVTZ AUX)
    Blend: AUG-CC-PVTZ-JKFIT
	 Reference Energy          =    -438.8181856404571022 [Eh]
	 Singles Energy            =      -0.0000000000000000 [Eh]
	 Same-Spin Energy          =      -0.4678653465789663 [Eh]
	 Opposite-Spin Energy      =      -1.4970457992409512 [Eh]
	 Correlation Energy        =      -1.9649111458199173 [Eh]
	 Total Energy              =    -440.7830967862770422 [Eh]

	 ================> DF-SCS-MP2 Energies <==================
	-----------------------------------------------------------
	 SCS Same-Spin Scale       =       0.3333333333333333 [-]
	 SCS Opposite-Spin Scale   =       1.2000000000000000 [-]
	 SCS Same-Spin Energy      =      -0.1559551155263221 [Eh]
	 SCS Opposite-Spin Energy  =      -1.7964549590891414 [Eh]
	 SCS Correlation Energy    =      -1.9524100746154636 [Eh]
	 SCS Total Energy          =    -440.7705957150725453 [Eh]
	-----------------------------------------------------------

  Dipole Moment: [D]
     X:    -0.6740      Y:    -3.8757      Z:     0.0000     Total:     3.9339

*** Psi4 exiting successfully. Buy a developer a beer!
