                               Psi4 1.4a3.dev225

  ==> Input File <==

--------------------------------------------------------------------------
#psi4
#
memory 32 gb

molecule  {
0 1
  O        0.2506850     2.2433030    -0.0000120
  N       -0.1535360    -0.0391100    -0.0000040
  C       -1.6091660     0.2193680    -0.0000060
  C       -2.1663802    -0.2495958     1.1056045
  C       -2.2505640    -0.3204870    -1.2726120
  C        0.7061140     1.0894960    -0.0000070
  C        0.3060350    -1.3272880     0.0000050
  C        2.1126960     0.7529310    -0.0000050
  C        1.6422530    -1.6174930     0.0000090
  C        2.5632190    -0.5392750     0.0000030
  H       -1.6749870     1.3090010    -0.0000250
  H       -3.3054200    -0.0314760     1.3049310
  H       -2.2011690    -1.4127350     1.3198810
  H       -1.7528960     0.0901600     2.1548740
  H       -1.7529050     0.0900740    -2.1548810
  H       -3.3054260    -0.0315150    -1.3049260
  H       -2.2011880    -1.4127830    -1.3198260
  H       -0.4545900    -2.1014670     0.0000100
  H        2.7949640     1.5970390    -0.0000090
  H        1.9701580    -2.6507840     0.0000170
  H        3.6325460    -0.7390360     0.0000060
units angstrom
no_reorient  #important for SAPT in psi4, default
symmetry c1  #important for SAPT in psi4, default
}

set PROPERTIES_ORIGIN ["COM"]
properties('MP2/aug-cc-pvtz', properties = ['dipole'])
--------------------------------------------------------------------------

    Molecular point group: c1
  Charge       = 0
  Multiplicity = 1
  Basis Set: AUG-CC-PVTZ
    Blend: AUG-CC-PVTZ
  Basis Set: (AUG-CC-PVTZ AUX)
    Blend: AUG-CC-PVTZ-JKFIT

    Orbital Energies [Eh]
    ---------------------

    Doubly Occupied:

       1A    -20.506332     2A    -15.621566     3A    -11.350702
       4A    -11.305703     5A    -11.269220     6A    -11.264372
       7A    -11.241769     8A    -11.238344     9A    -11.235400
      10A    -11.229897    11A     -1.368568    12A     -1.282544
      13A     -1.137188    14A     -1.072427    15A     -1.022944
      16A     -0.952990    17A     -0.891248    18A     -0.856038
      19A     -0.800566    20A     -0.717315    21A     -0.703564
      22A     -0.662992    23A     -0.645257    24A     -0.638800
      25A     -0.621804    26A     -0.605277    27A     -0.567588
      28A     -0.560105    29A     -0.546971    30A     -0.540573
      31A     -0.523838    32A     -0.490614    33A     -0.476863
      34A     -0.457814    35A     -0.416628    36A     -0.409153
      37A     -0.307769

  @DF-RHF Final Energy:  -438.76724441033099

   => Energetics <=

    Nuclear Repulsion Energy =            531.7912754967669571
    One-Electron Energy =               -1650.0355527708115915
    Two-Electron Energy =                 679.4770328637137027
    Total Energy =                       -438.7672444103309317
  Basis Set: (AUG-CC-PVTZ AUX)
    Blend: AUG-CC-PVTZ-RI
    Molecular point group: c1

    Geometry (in Angstrom), charge = 0, multiplicity = 1:

       Center              X                  Y                   Z               Mass
    ------------   -----------------  -----------------  -----------------  -----------------
         O            0.183611454950     2.198872524498     0.014608937593    15.994914619570
         N           -0.220609545050    -0.083540475502     0.014616937593    14.003074004430
         C           -1.676239545050     0.174937524498     0.014614937593    12.000000000000
         C           -2.233453745050    -0.294026275502     1.120225437593    12.000000000000
         C           -2.317637545050    -0.364917475502    -1.257991062407    12.000000000000
         C            0.639040454950     1.045065524498     0.014613937593    12.000000000000
         C            0.238961454950    -1.371718475502     0.014625937593    12.000000000000
         C            2.045622454950     0.708500524498     0.014615937593    12.000000000000
         C            1.575179454950    -1.661923475502     0.014629937593    12.000000000000
         C            2.496145454950    -0.583705475502     0.014623937593    12.000000000000
         H           -1.742060545050     1.264570524498     0.014595937593     1.007825032230
         H           -3.372493545050    -0.075906475502     1.319551937593     1.007825032230
         H           -2.268242545050    -1.457165475502     1.334501937593     1.007825032230
         H           -1.819969545050     0.045729524498     2.169494937593     1.007825032230
         H           -1.819978545050     0.045643524498    -2.140260062407     1.007825032230
         H           -3.372499545050    -0.075945475502    -1.290305062407     1.007825032230
         H           -2.268261545050    -1.457213475502    -1.305205062407     1.007825032230
         H           -0.521663545050    -2.145897475502     0.014630937593     1.007825032230
         H            2.727890454950     1.552608524498     0.014611937593     1.007825032230
         H            1.903084454950    -2.695214475502     0.014637937593     1.007825032230
         H            3.565472454950    -0.783466475502     0.014626937593     1.007825032230

  Basis Set: AUG-CC-PVTZ
    Blend: AUG-CC-PVTZ
  Basis Set: (AUG-CC-PVTZ AUX)
    Blend: AUG-CC-PVTZ-JKFIT
	 Reference Energy          =    -438.7672444103309886 [Eh]
	 Singles Energy            =      -0.0000000000000000 [Eh]
	 Same-Spin Energy          =      -0.4711739370743826 [Eh]
	 Opposite-Spin Energy      =      -1.5014840374901293 [Eh]
	 Correlation Energy        =      -1.9726579745645119 [Eh]
	 Total Energy              =    -440.7399023848955153 [Eh]

	 ================> DF-SCS-MP2 Energies <==================
	-----------------------------------------------------------
	 SCS Same-Spin Scale       =       0.3333333333333333 [-]
	 SCS Opposite-Spin Scale   =       1.2000000000000000 [-]
	 SCS Same-Spin Energy      =      -0.1570579790247942 [Eh]
	 SCS Opposite-Spin Energy  =      -1.8017808449881549 [Eh]
	 SCS Correlation Energy    =      -1.9588388240129491 [Eh]
	 SCS Total Energy          =    -440.7260832343439461 [Eh]
	-----------------------------------------------------------

  Dipole Moment: [D]
     X:    -0.6592      Y:    -3.8353      Z:     0.0034     Total:     3.8915

*** Psi4 exiting successfully. Buy a developer a beer!
