                               Psi4 1.4a3.dev225

  ==> Input File <==

--------------------------------------------------------------------------
#psi4
#
memory 32 gb

molecule  {
0 1
  O        0.2506850     2.2433030    -0.0000120
  N       -0.1535360    -0.0391100    -0.0000040
  C       -1.6091660     0.2193680    -0.0000060
  C       -2.2505560    -0.3204400     1.2726240
  C       -2.2505640    -0.3204870    -1.2726120
  C        0.7061140     1.0894960    -0.0000070
  C        0.3060350    -1.3272880     0.0000050
  C        2.1126960     0.7529310    -0.0000050
  C        1.6422530    -1.6174930     0.0000090
  C        2.5632190    -0.5392750     0.0000030
  H       -1.6749870     1.3090010    -0.0000250
  H       -3.3054200    -0.0314760     1.3049310
  H       -2.2011690    -1.4127350     1.3198810
  H       -1.7528960     0.0901600     2.1548740
  H       -1.7529050     0.0900740    -2.1548810
  H       -3.3054260    -0.0315150    -1.3049260
  H       -2.2011880    -1.4127830    -1.3198260
  H       -0.4545900    -2.1014670     0.0000100
  H        2.7949640     1.5970390    -0.0000090
  H        1.9701580    -2.6507840     0.0000170
  H        3.7308455    -0.7573993     0.0000063
units angstrom
no_reorient  #important for SAPT in psi4, default
symmetry c1  #important for SAPT in psi4, default
}

set PROPERTIES_ORIGIN ["COM"]
properties('MP2/aug-cc-pvtz', properties = ['dipole'])
--------------------------------------------------------------------------

    Molecular point group: c1
  Charge       = 0
  Multiplicity = 1
  Basis Set: AUG-CC-PVTZ
    Blend: AUG-CC-PVTZ
  Basis Set: (AUG-CC-PVTZ AUX)
    Blend: AUG-CC-PVTZ-JKFIT

    Orbital Energies [Eh]
    ---------------------

    Doubly Occupied:

       1A    -20.505910     2A    -15.621892     3A    -11.350677
       4A    -11.306332     5A    -11.279867     6A    -11.274465
       7A    -11.239364     8A    -11.235983     9A    -11.228998
      10A    -11.228982    11A     -1.367466    12A     -1.278081
      13A     -1.121789    14A     -1.050346    15A     -1.023085
      16A     -0.950895    17A     -0.890675    18A     -0.853828
      19A     -0.801859    20A     -0.709319    21A     -0.698762
      22A     -0.652685    23A     -0.634881    24A     -0.628554
      25A     -0.613290    26A     -0.604465    27A     -0.562420
      28A     -0.556563    29A     -0.548251    30A     -0.543986
      31A     -0.522518    32A     -0.504881    33A     -0.486771
      34A     -0.474316    35A     -0.417652    36A     -0.407120
      37A     -0.307696

  @DF-RHF Final Energy:  -438.81057649729081

   => Energetics <=

    Nuclear Repulsion Energy =            527.4230975289646040
    One-Electron Energy =               -1641.4980993287053934
    Two-Electron Energy =                 675.2644253024498084
    Total Energy =                       -438.8105764972908673
  Basis Set: (AUG-CC-PVTZ AUX)
    Blend: AUG-CC-PVTZ-RI
    Molecular point group: c1

    Geometry (in Angstrom), charge = 0, multiplicity = 1:

       Center              X                  Y                   Z               Mass
    ------------   -----------------  -----------------  -----------------  -----------------
         O            0.190257310615     2.205209055297    -0.000011538662    15.994914619570
         N           -0.213963689385    -0.077203944703    -0.000003538662    14.003074004430
         C           -1.669593689385     0.181274055297    -0.000005538662    12.000000000000
         C           -2.310983689385    -0.358533944703     1.272624461338    12.000000000000
         C           -2.310991689385    -0.358580944703    -1.272611538662    12.000000000000
         C            0.645686310615     1.051402055297    -0.000006538662    12.000000000000
         C            0.245607310615    -1.365381944703     0.000005461338    12.000000000000
         C            2.052268310615     0.714837055297    -0.000004538662    12.000000000000
         C            1.581825310615    -1.655586944703     0.000009461338    12.000000000000
         C            2.502791310615    -0.577368944703     0.000003461338    12.000000000000
         H           -1.735414689385     1.270907055297    -0.000024538662     1.007825032230
         H           -3.365847689385    -0.069569944703     1.304931461338     1.007825032230
         H           -2.261596689385    -1.450828944703     1.319881461338     1.007825032230
         H           -1.813323689385     0.052066055297     2.154874461338     1.007825032230
         H           -1.813332689385     0.051980055297    -2.154880538662     1.007825032230
         H           -3.365853689385    -0.069608944703    -1.304925538662     1.007825032230
         H           -2.261615689385    -1.450876944703    -1.319825538662     1.007825032230
         H           -0.515017689385    -2.139560944703     0.000010461338     1.007825032230
         H            2.734536310615     1.558945055297    -0.000008538662     1.007825032230
         H            1.909730310615    -2.688877944703     0.000017461338     1.007825032230
         H            3.670417810615    -0.795493244703     0.000006761338     1.007825032230

  Basis Set: AUG-CC-PVTZ
    Blend: AUG-CC-PVTZ
  Basis Set: (AUG-CC-PVTZ AUX)
    Blend: AUG-CC-PVTZ-JKFIT
	 Reference Energy          =    -438.8105764972908105 [Eh]
	 Singles Energy            =      -0.0000000000000000 [Eh]
	 Same-Spin Energy          =      -0.4682065926704188 [Eh]
	 Opposite-Spin Energy      =      -1.4982328695362681 [Eh]
	 Correlation Energy        =      -1.9664394622066870 [Eh]
	 Total Energy              =    -440.7770159594974757 [Eh]

	 ================> DF-SCS-MP2 Energies <==================
	-----------------------------------------------------------
	 SCS Same-Spin Scale       =       0.3333333333333333 [-]
	 SCS Opposite-Spin Scale   =       1.2000000000000000 [-]
	 SCS Same-Spin Energy      =      -0.1560688642234729 [Eh]
	 SCS Opposite-Spin Energy  =      -1.7978794434435217 [Eh]
	 SCS Correlation Energy    =      -1.9539483076669946 [Eh]
	 SCS Total Energy          =    -440.7645248049578299 [Eh]
	-----------------------------------------------------------

  Dipole Moment: [D]
     X:    -0.7139      Y:    -3.8618      Z:     0.0000     Total:     3.9272

*** Psi4 exiting successfully. Buy a developer a beer!
