                               Psi4 1.4a3.dev225

  ==> Input File <==

--------------------------------------------------------------------------
#psi4
#
memory 32 gb

molecule  {
0 1
  O        0.2506850     2.2433030    -0.0000120
  N       -0.1535360    -0.0391100    -0.0000040
  C       -1.6091660     0.2193680    -0.0000060
  C       -2.2505560    -0.3204400     1.2726240
  C       -2.2505640    -0.3204870    -1.2726120
  C        0.7061140     1.0894960    -0.0000070
  C        0.2724333    -1.2331024     0.0000043
  C        2.1126960     0.7529310    -0.0000050
  C        1.6422530    -1.6174930     0.0000090
  C        2.5632190    -0.5392750     0.0000030
  H       -1.6749870     1.3090010    -0.0000250
  H       -3.3054200    -0.0314760     1.3049310
  H       -2.2011690    -1.4127350     1.3198810
  H       -1.7528960     0.0901600     2.1548740
  H       -1.7529050     0.0900740    -2.1548810
  H       -3.3054260    -0.0315150    -1.3049260
  H       -2.2011880    -1.4127830    -1.3198260
  H       -0.4545900    -2.1014670     0.0000100
  H        2.7949640     1.5970390    -0.0000090
  H        1.9701580    -2.6507840     0.0000170
  H        3.6325460    -0.7390360     0.0000060
units angstrom
no_reorient  #important for SAPT in psi4, default
symmetry c1  #important for SAPT in psi4, default
}

set PROPERTIES_ORIGIN ["COM"]
properties('MP2/aug-cc-pvtz', properties = ['dipole'])
--------------------------------------------------------------------------

    Molecular point group: c1
  Charge       = 0
  Multiplicity = 1
  Basis Set: AUG-CC-PVTZ
    Blend: AUG-CC-PVTZ
  Basis Set: (AUG-CC-PVTZ AUX)
    Blend: AUG-CC-PVTZ-JKFIT

    Orbital Energies [Eh]
    ---------------------

    Doubly Occupied:

       1A    -20.505532     2A    -15.632301     3A    -11.350392
       4A    -11.311729     5A    -11.281085     6A    -11.264993
       7A    -11.235258     8A    -11.233682     9A    -11.233666
      10A    -11.226123    11A     -1.378405    12A     -1.306400
      13A     -1.119706    14A     -1.060694    15A     -1.012117
      16A     -0.955880    17A     -0.896908    18A     -0.866751
      19A     -0.807292    20A     -0.714106    21A     -0.700750
      22A     -0.649865    23A     -0.646846    24A     -0.643191
      25A     -0.616433    26A     -0.593271    27A     -0.567497
      28A     -0.564137    29A     -0.552473    30A     -0.544970
      31A     -0.521996    32A     -0.509594    33A     -0.489646
      34A     -0.477306    35A     -0.416996    36A     -0.412738
      37A     -0.293407

  @DF-RHF Final Energy:  -438.80466745140484

   => Energetics <=

    Nuclear Repulsion Energy =            529.7082553091298678
    One-Electron Energy =               -1645.8375735106949378
    Two-Electron Energy =                 677.3246507501603446
    Total Energy =                       -438.8046674514048391
  Basis Set: (AUG-CC-PVTZ AUX)
    Blend: AUG-CC-PVTZ-RI
    Molecular point group: c1

    Geometry (in Angstrom), charge = 0, multiplicity = 1:

       Center              X                  Y                   Z               Mass
    ------------   -----------------  -----------------  -----------------  -----------------
         O            0.193921406078     2.196829276058    -0.000011475181    15.994914619570
         N           -0.210299593922    -0.085583723942    -0.000003475181    14.003074004430
         C           -1.665929593922     0.172894276058    -0.000005475181    12.000000000000
         C           -2.307319593922    -0.366913723942     1.272624524819    12.000000000000
         C           -2.307327593922    -0.366960723942    -1.272611475181    12.000000000000
         C            0.649350406078     1.043022276058    -0.000006475181    12.000000000000
         C            0.215669706078    -1.279576123942     0.000004824819    12.000000000000
         C            2.055932406078     0.706457276058    -0.000004475181    12.000000000000
         C            1.585489406078    -1.663966723942     0.000009524819    12.000000000000
         C            2.506455406078    -0.585748723942     0.000003524819    12.000000000000
         H           -1.731750593922     1.262527276058    -0.000024475181     1.007825032230
         H           -3.362183593922    -0.077949723942     1.304931524819     1.007825032230
         H           -2.257932593922    -1.459208723942     1.319881524819     1.007825032230
         H           -1.809659593922     0.043686276058     2.154874524819     1.007825032230
         H           -1.809668593922     0.043600276058    -2.154880475181     1.007825032230
         H           -3.362189593922    -0.077988723942    -1.304925475181     1.007825032230
         H           -2.257951593922    -1.459256723942    -1.319825475181     1.007825032230
         H           -0.511353593922    -2.147940723942     0.000010524819     1.007825032230
         H            2.738200406078     1.550565276058    -0.000008475181     1.007825032230
         H            1.913394406078    -2.697257723942     0.000017524819     1.007825032230
         H            3.575782406078    -0.785509723942     0.000006524819     1.007825032230

  Basis Set: AUG-CC-PVTZ
    Blend: AUG-CC-PVTZ
  Basis Set: (AUG-CC-PVTZ AUX)
    Blend: AUG-CC-PVTZ-JKFIT
	 Reference Energy          =    -438.8046674514048391 [Eh]
	 Singles Energy            =      -0.0000000000000000 [Eh]
	 Same-Spin Energy          =      -0.4692455275815443 [Eh]
	 Opposite-Spin Energy      =      -1.4972109896371872 [Eh]
	 Correlation Energy        =      -1.9664565172187316 [Eh]
	 Total Energy              =    -440.7711239686235558 [Eh]

	 ================> DF-SCS-MP2 Energies <==================
	-----------------------------------------------------------
	 SCS Same-Spin Scale       =       0.3333333333333333 [-]
	 SCS Opposite-Spin Scale   =       1.2000000000000000 [-]
	 SCS Same-Spin Energy      =      -0.1564151758605148 [Eh]
	 SCS Opposite-Spin Energy  =      -1.7966531875646246 [Eh]
	 SCS Correlation Energy    =      -1.9530683634251393 [Eh]
	 SCS Total Energy          =    -440.7577358148299709 [Eh]
	-----------------------------------------------------------

  Dipole Moment: [D]
     X:    -1.0439      Y:    -3.7879      Z:     0.0000     Total:     3.9292

*** Psi4 exiting successfully. Buy a developer a beer!
