                               Psi4 1.4a3.dev225

  ==> Input File <==

--------------------------------------------------------------------------
#psi4
#
memory 32 gb

molecule  {
0 1
  O        0.2506850     2.2433030    -0.0000120
  N       -0.1517218    -0.0276054    -0.0230285
  C       -1.6091660     0.2193680    -0.0000060
  C       -2.2505560    -0.3204400     1.2726240
  C       -2.2505640    -0.3204870    -1.2726120
  C        0.7061140     1.0894960    -0.0000070
  C        0.3060350    -1.3272880     0.0000050
  C        2.1126960     0.7529310    -0.0000050
  C        1.6422530    -1.6174930     0.0000090
  C        2.5632190    -0.5392750     0.0000030
  H       -1.6749870     1.3090010    -0.0000250
  H       -3.3054200    -0.0314760     1.3049310
  H       -2.2011690    -1.4127350     1.3198810
  H       -1.7528960     0.0901600     2.1548740
  H       -1.7529050     0.0900740    -2.1548810
  H       -3.3054260    -0.0315150    -1.3049260
  H       -2.2011880    -1.4127830    -1.3198260
  H       -0.4545900    -2.1014670     0.0000100
  H        2.7949640     1.5970390    -0.0000090
  H        1.9701580    -2.6507840     0.0000170
  H        3.6325460    -0.7390360     0.0000060
units angstrom
no_reorient  #important for SAPT in psi4, default
symmetry c1  #important for SAPT in psi4, default
}

set PROPERTIES_ORIGIN ["COM"]
properties('MP2/aug-cc-pvtz', properties = ['dipole'])
--------------------------------------------------------------------------

    Molecular point group: c1
  Charge       = 0
  Multiplicity = 1
  Basis Set: AUG-CC-PVTZ
    Blend: AUG-CC-PVTZ
  Basis Set: (AUG-CC-PVTZ AUX)
    Blend: AUG-CC-PVTZ-JKFIT

    Orbital Energies [Eh]
    ---------------------

    Doubly Occupied:

       1A    -20.503898     2A    -15.621065     3A    -11.348631
       4A    -11.306145     5A    -11.273837     6A    -11.269008
       7A    -11.239561     8A    -11.235923     9A    -11.229180
      10A    -11.228137    11A     -1.366995    12A     -1.275493
      13A     -1.122754    14A     -1.050975    15A     -1.023255
      16A     -0.950479    17A     -0.893427    18A     -0.855979
      19A     -0.803498    20A     -0.711039    21A     -0.700291
      22A     -0.655639    23A     -0.639937    24A     -0.627980
      25A     -0.613205    26A     -0.604111    27A     -0.564165
      28A     -0.561940    29A     -0.547924    30A     -0.544221
      31A     -0.523514    32A     -0.504156    33A     -0.486963
      34A     -0.472714    35A     -0.417238    36A     -0.406299
      37A     -0.308233

  @DF-RHF Final Energy:  -438.81791504182212

   => Energetics <=

    Nuclear Repulsion Energy =            527.9317878471538279
    One-Electron Energy =               -1642.5237876564360704
    Two-Electron Energy =                 675.7740847674601810
    Total Energy =                       -438.8179150418220615
  Basis Set: (AUG-CC-PVTZ AUX)
    Blend: AUG-CC-PVTZ-RI
    Molecular point group: c1

    Geometry (in Angstrom), charge = 0, multiplicity = 1:

       Center              X                  Y                   Z               Mass
    ------------   -----------------  -----------------  -----------------  -----------------
         O            0.190794676650     2.203898861002     0.002340405615    15.994914619570
         N           -0.211612123350    -0.067009538998    -0.020676094385    14.003074004430
         C           -1.669056323350     0.179963861002     0.002346405615    12.000000000000
         C           -2.310446323350    -0.359844138998     1.274976405615    12.000000000000
         C           -2.310454323350    -0.359891138998    -1.270259594385    12.000000000000
         C            0.646223676650     1.050091861002     0.002345405615    12.000000000000
         C            0.246144676650    -1.366692138998     0.002357405615    12.000000000000
         C            2.052805676650     0.713526861002     0.002347405615    12.000000000000
         C            1.582362676650    -1.656897138998     0.002361405615    12.000000000000
         C            2.503328676650    -0.578679138998     0.002355405615    12.000000000000
         H           -1.734877323350     1.269596861002     0.002327405615     1.007825032230
         H           -3.365310323350    -0.070880138998     1.307283405615     1.007825032230
         H           -2.261059323350    -1.452139138998     1.322233405615     1.007825032230
         H           -1.812786323350     0.050755861002     2.157226405615     1.007825032230
         H           -1.812795323350     0.050669861002    -2.152528594385     1.007825032230
         H           -3.365316323350    -0.070919138998    -1.302573594385     1.007825032230
         H           -2.261078323350    -1.452187138998    -1.317473594385     1.007825032230
         H           -0.514480323350    -2.140871138998     0.002362405615     1.007825032230
         H            2.735073676650     1.557634861002     0.002343405615     1.007825032230
         H            1.910267676650    -2.690188138998     0.002369405615     1.007825032230
         H            3.572655676650    -0.778440138998     0.002358405615     1.007825032230

  Basis Set: AUG-CC-PVTZ
    Blend: AUG-CC-PVTZ
  Basis Set: (AUG-CC-PVTZ AUX)
    Blend: AUG-CC-PVTZ-JKFIT
	 Reference Energy          =    -438.8179150418221184 [Eh]
	 Singles Energy            =      -0.0000000000000000 [Eh]
	 Same-Spin Energy          =      -0.4677983807226443 [Eh]
	 Opposite-Spin Energy      =      -1.4972043589467501 [Eh]
	 Correlation Energy        =      -1.9650027396693943 [Eh]
	 Total Energy              =    -440.7829177814915056 [Eh]

	 ================> DF-SCS-MP2 Energies <==================
	-----------------------------------------------------------
	 SCS Same-Spin Scale       =       0.3333333333333333 [-]
	 SCS Opposite-Spin Scale   =       1.2000000000000000 [-]
	 SCS Same-Spin Energy      =      -0.1559327935742148 [Eh]
	 SCS Opposite-Spin Energy  =      -1.7966452307361001 [Eh]
	 SCS Correlation Energy    =      -1.9525780243103148 [Eh]
	 SCS Total Energy          =    -440.7704930661324170 [Eh]
	-----------------------------------------------------------

  Dipole Moment: [D]
     X:    -0.6376      Y:    -3.9152      Z:     0.0212     Total:     3.9668

*** Psi4 exiting successfully. Buy a developer a beer!
