                               Psi4 1.4a3.dev225

  ==> Input File <==

--------------------------------------------------------------------------
#psi4
#
memory 32 gb

molecule  {
0 1
  O        0.2506850     2.2433030    -0.0000120
  N       -0.1535360    -0.0391100    -0.0000040
  C       -1.6091660     0.2193680    -0.0000060
  C       -2.2505560    -0.3204400     1.2726240
  C       -2.2505640    -0.3204870    -1.2726120
  C        0.7061140     1.0894960    -0.0000070
  C        0.3060350    -1.3272880     0.0000050
  C        2.1126960     0.7529310    -0.0000050
  C        1.6422530    -1.6174930     0.0000090
  C        2.4333228    -0.6913506     0.0000038
  H       -1.6749870     1.3090010    -0.0000250
  H       -3.3054200    -0.0314760     1.3049310
  H       -2.2011690    -1.4127350     1.3198810
  H       -1.7528960     0.0901600     2.1548740
  H       -1.7529050     0.0900740    -2.1548810
  H       -3.3054260    -0.0315150    -1.3049260
  H       -2.2011880    -1.4127830    -1.3198260
  H       -0.4545900    -2.1014670     0.0000100
  H        2.7949640     1.5970390    -0.0000090
  H        1.9701580    -2.6507840     0.0000170
  H        3.6325460    -0.7390360     0.0000060
units angstrom
no_reorient  #important for SAPT in psi4, default
symmetry c1  #important for SAPT in psi4, default
}

set PROPERTIES_ORIGIN ["COM"]
properties('MP2/aug-cc-pvtz', properties = ['dipole'])
--------------------------------------------------------------------------

    Molecular point group: c1
  Charge       = 0
  Multiplicity = 1
  Basis Set: AUG-CC-PVTZ
    Blend: AUG-CC-PVTZ
  Basis Set: (AUG-CC-PVTZ AUX)
    Blend: AUG-CC-PVTZ-JKFIT

    Orbital Energies [Eh]
    ---------------------

    Doubly Occupied:

       1A    -20.488716     2A    -15.637881     3A    -11.336193
       4A    -11.324510     5A    -11.279016     6A    -11.266320
       7A    -11.233354     8A    -11.233339     9A    -11.232025
      10A    -11.224894    11A     -1.360654    12A     -1.282994
      13A     -1.151417    14A     -1.061965    15A     -1.012305
      16A     -0.955133    17A     -0.913912    18A     -0.842795
      19A     -0.808622    20A     -0.721501    21A     -0.703220
      22A     -0.652791    23A     -0.641637    24A     -0.632626
      25A     -0.619194    26A     -0.593961    27A     -0.571269
      28A     -0.567030    29A     -0.551122    30A     -0.538332
      31A     -0.507259    32A     -0.503132    33A     -0.491771
      34A     -0.487225    35A     -0.414211    36A     -0.400953
      37A     -0.292590

  @DF-RHF Final Energy:  -438.75053178629923

   => Energetics <=

    Nuclear Repulsion Energy =            530.0505082987481273
    One-Electron Energy =               -1646.5303441542243945
    Two-Electron Energy =                 677.7293040691770329
    Total Energy =                       -438.7505317862992342
  Basis Set: (AUG-CC-PVTZ AUX)
    Blend: AUG-CC-PVTZ-RI
    Molecular point group: c1

    Geometry (in Angstrom), charge = 0, multiplicity = 1:

       Center              X                  Y                   Z               Mass
    ------------   -----------------  -----------------  -----------------  -----------------
         O            0.202350788505     2.218386372588    -0.000011606487    15.994914619570
         N           -0.201870211495    -0.064026627412    -0.000003606487    14.003074004430
         C           -1.657500211495     0.194451372588    -0.000005606487    12.000000000000
         C           -2.298890211495    -0.345356627412     1.272624393513    12.000000000000
         C           -2.298898211495    -0.345403627412    -1.272611606487    12.000000000000
         C            0.657779788505     1.064579372588    -0.000006606487    12.000000000000
         C            0.257700788505    -1.352204627412     0.000005393513    12.000000000000
         C            2.064361788505     0.728014372588    -0.000004606487    12.000000000000
         C            1.593918788505    -1.642409627412     0.000009393513    12.000000000000
         C            2.384988588505    -0.716267227412     0.000004193513    12.000000000000
         H           -1.723321211495     1.284084372588    -0.000024606487     1.007825032230
         H           -3.353754211495    -0.056392627412     1.304931393513     1.007825032230
         H           -2.249503211495    -1.437651627412     1.319881393513     1.007825032230
         H           -1.801230211495     0.065243372588     2.154874393513     1.007825032230
         H           -1.801239211495     0.065157372588    -2.154880606487     1.007825032230
         H           -3.353760211495    -0.056431627412    -1.304925606487     1.007825032230
         H           -2.249522211495    -1.437699627412    -1.319825606487     1.007825032230
         H           -0.502924211495    -2.126383627412     0.000010393513     1.007825032230
         H            2.746629788505     1.572122372588    -0.000008606487     1.007825032230
         H            1.921823788505    -2.675700627412     0.000017393513     1.007825032230
         H            3.584211788505    -0.763952627412     0.000006393513     1.007825032230

  Basis Set: AUG-CC-PVTZ
    Blend: AUG-CC-PVTZ
  Basis Set: (AUG-CC-PVTZ AUX)
    Blend: AUG-CC-PVTZ-JKFIT
	 Reference Energy          =    -438.7505317862992342 [Eh]
	 Singles Energy            =      -0.0000000000000000 [Eh]
	 Same-Spin Energy          =      -0.4725707768139734 [Eh]
	 Opposite-Spin Energy      =      -1.5022296806772659 [Eh]
	 Correlation Energy        =      -1.9748004574912392 [Eh]
	 Total Energy              =    -440.7253322437904899 [Eh]

	 ================> DF-SCS-MP2 Energies <==================
	-----------------------------------------------------------
	 SCS Same-Spin Scale       =       0.3333333333333333 [-]
	 SCS Opposite-Spin Scale   =       1.2000000000000000 [-]
	 SCS Same-Spin Energy      =      -0.1575235922713245 [Eh]
	 SCS Opposite-Spin Energy  =      -1.8026756168127189 [Eh]
	 SCS Correlation Energy    =      -1.9601992090840434 [Eh]
	 SCS Total Energy          =    -440.7107309953833010 [Eh]
	-----------------------------------------------------------

  Dipole Moment: [D]
     X:    -0.9711      Y:    -4.2004      Z:     0.0000     Total:     4.3112

*** Psi4 exiting successfully. Buy a developer a beer!
