                               Psi4 1.4a3.dev225

  ==> Input File <==

--------------------------------------------------------------------------
#psi4
#
memory 32 gb

molecule  {
0 1
  O        0.2506850     2.2433030    -0.0000120
  N       -0.1535360    -0.0391100    -0.0000040
  C       -1.6091660     0.2193680    -0.0000060
  C       -2.2505560    -0.3204400     1.2726240
  C       -2.2505640    -0.3204870    -1.2726120
  C        0.7061140     1.0894960    -0.0000070
  C        0.3060350    -1.3272880     0.0000050
  C        2.1126960     0.7529310    -0.0000050
  C        1.6422530    -1.6174930     0.0000090
  C        2.5632190    -0.5392750     0.0000030
  H       -1.6749870     1.3090010    -0.0000250
  H       -3.3054200    -0.0314760     1.3049310
  H       -2.2011690    -1.4127350     1.3198810
  H       -1.7528960     0.0901600     2.1548740
  H       -1.8543962     0.1339147    -2.1843102
  H       -3.3054260    -0.0315150    -1.3049260
  H       -2.2011880    -1.4127830    -1.3198260
  H       -0.4545900    -2.1014670     0.0000100
  H        2.7949640     1.5970390    -0.0000090
  H        1.9701580    -2.6507840     0.0000170
  H        3.6325460    -0.7390360     0.0000060
units angstrom
no_reorient  #important for SAPT in psi4, default
symmetry c1  #important for SAPT in psi4, default
}

set PROPERTIES_ORIGIN ["COM"]
properties('MP2/aug-cc-pvtz', properties = ['dipole'])
--------------------------------------------------------------------------

    Molecular point group: c1
  Charge       = 0
  Multiplicity = 1
  Basis Set: AUG-CC-PVTZ
    Blend: AUG-CC-PVTZ
  Basis Set: (AUG-CC-PVTZ AUX)
    Blend: AUG-CC-PVTZ-JKFIT

    Orbital Energies [Eh]
    ---------------------

    Doubly Occupied:

       1A    -20.505255     2A    -15.621271     3A    -11.349758
       4A    -11.305499     5A    -11.274887     6A    -11.268746
       7A    -11.238152     8A    -11.235056     9A    -11.229173
      10A    -11.228555    11A     -1.366800    12A     -1.277395
      13A     -1.122332    14A     -1.051208    15A     -1.022350
      16A     -0.950722    17A     -0.893322    18A     -0.855933
      19A     -0.804350    20A     -0.711244    21A     -0.699659
      22A     -0.655352    23A     -0.641229    24A     -0.627732
      25A     -0.613894    26A     -0.604280    27A     -0.564560
      28A     -0.562702    29A     -0.545768    30A     -0.541997
      31A     -0.523337    32A     -0.505439    33A     -0.486881
      34A     -0.474027    35A     -0.417616    36A     -0.406570
      37A     -0.306960

  @DF-RHF Final Energy:  -438.81680634357832

   => Energetics <=

    Nuclear Repulsion Energy =            527.7282734653841771
    One-Electron Energy =               -1642.1101411494971671
    Two-Electron Energy =                 675.5650613405344984
    Total Energy =                       -438.8168063435783779
  Basis Set: (AUG-CC-PVTZ AUX)
    Blend: AUG-CC-PVTZ-RI
    Molecular point group: c1

    Geometry (in Angstrom), charge = 0, multiplicity = 1:

       Center              X                  Y                   Z               Mass
    ------------   -----------------  -----------------  -----------------  -----------------
         O            0.191726147057     2.204751739206     0.000204823371    15.994914619570
         N           -0.212494852943    -0.077661260794     0.000212823371    14.003074004430
         C           -1.668124852943     0.180816739206     0.000210823371    12.000000000000
         C           -2.309514852943    -0.358991260794     1.272840823371    12.000000000000
         C           -2.309522852943    -0.359038260794    -1.272395176629    12.000000000000
         C            0.647155147057     1.050944739206     0.000209823371    12.000000000000
         C            0.247076147057    -1.365839260794     0.000221823371    12.000000000000
         C            2.053737147057     0.714379739206     0.000211823371    12.000000000000
         C            1.583294147057    -1.656044260794     0.000225823371    12.000000000000
         C            2.504260147057    -0.577826260794     0.000219823371    12.000000000000
         H           -1.733945852943     1.270449739206     0.000191823371     1.007825032230
         H           -3.364378852943    -0.070027260794     1.305147823371     1.007825032230
         H           -2.260127852943    -1.451286260794     1.320097823371     1.007825032230
         H           -1.811854852943     0.051608739206     2.155090823371     1.007825032230
         H           -1.913355052943     0.095363439206    -2.184093376629     1.007825032230
         H           -3.364384852943    -0.070066260794    -1.304709176629     1.007825032230
         H           -2.260146852943    -1.451334260794    -1.319609176629     1.007825032230
         H           -0.513548852943    -2.140018260794     0.000226823371     1.007825032230
         H            2.736005147057     1.558487739206     0.000207823371     1.007825032230
         H            1.911199147057    -2.689335260794     0.000233823371     1.007825032230
         H            3.573587147057    -0.777587260794     0.000222823371     1.007825032230

  Basis Set: AUG-CC-PVTZ
    Blend: AUG-CC-PVTZ
  Basis Set: (AUG-CC-PVTZ AUX)
    Blend: AUG-CC-PVTZ-JKFIT
	 Reference Energy          =    -438.8168063435783210 [Eh]
	 Singles Energy            =      -0.0000000000000000 [Eh]
	 Same-Spin Energy          =      -0.4679911862734504 [Eh]
	 Opposite-Spin Energy      =      -1.4972534015256704 [Eh]
	 Correlation Energy        =      -1.9652445877991209 [Eh]
	 Total Energy              =    -440.7820509313774551 [Eh]

	 ================> DF-SCS-MP2 Energies <==================
	-----------------------------------------------------------
	 SCS Same-Spin Scale       =       0.3333333333333333 [-]
	 SCS Opposite-Spin Scale   =       1.2000000000000000 [-]
	 SCS Same-Spin Energy      =      -0.1559970620911501 [Eh]
	 SCS Opposite-Spin Energy  =      -1.7967040818308044 [Eh]
	 SCS Correlation Energy    =      -1.9527011439219546 [Eh]
	 SCS Total Energy          =    -440.7695074875002774 [Eh]
	-----------------------------------------------------------

  Dipole Moment: [D]
     X:    -0.7002      Y:    -3.8480      Z:    -0.0141     Total:     3.9112

*** Psi4 exiting successfully. Buy a developer a beer!
