                               Psi4 1.4a3.dev225

  ==> Input File <==

--------------------------------------------------------------------------
#psi4
#
memory 32 gb

molecule  {
0 1
  O        0.2506850     2.2433030    -0.0000120
  N       -0.1535360    -0.0391100    -0.0000040
  C       -1.6091660     0.2193680    -0.0000060
  C       -2.2505560    -0.3204400     1.2726240
  C       -2.2505640    -0.3204870    -1.2726120
  C        0.6758172     1.0497203    -0.0000069
  C        0.3060350    -1.3272880     0.0000050
  C        2.1126960     0.7529310    -0.0000050
  C        1.6422530    -1.6174930     0.0000090
  C        2.5632190    -0.5392750     0.0000030
  H       -1.6749870     1.3090010    -0.0000250
  H       -3.3054200    -0.0314760     1.3049310
  H       -2.2011690    -1.4127350     1.3198810
  H       -1.7528960     0.0901600     2.1548740
  H       -1.7529050     0.0900740    -2.1548810
  H       -3.3054260    -0.0315150    -1.3049260
  H       -2.2011880    -1.4127830    -1.3198260
  H       -0.4545900    -2.1014670     0.0000100
  H        2.7949640     1.5970390    -0.0000090
  H        1.9701580    -2.6507840     0.0000170
  H        3.6325460    -0.7390360     0.0000060
units angstrom
no_reorient  #important for SAPT in psi4, default
symmetry c1  #important for SAPT in psi4, default
}

set PROPERTIES_ORIGIN ["COM"]
properties('MP2/aug-cc-pvtz', properties = ['dipole'])
--------------------------------------------------------------------------

    Molecular point group: c1
  Charge       = 0
  Multiplicity = 1
  Basis Set: AUG-CC-PVTZ
    Blend: AUG-CC-PVTZ
  Basis Set: (AUG-CC-PVTZ AUX)
    Blend: AUG-CC-PVTZ-JKFIT

    Orbital Energies [Eh]
    ---------------------

    Doubly Occupied:

       1A    -20.497735     2A    -15.626310     3A    -11.348042
       4A    -11.306051     5A    -11.276296     6A    -11.266711
       7A    -11.242395     8A    -11.239174     9A    -11.230332
      10A    -11.230317    11A     -1.359769    12A     -1.277258
      13A     -1.124055    14A     -1.055450    15A     -1.024341
      16A     -0.952313    17A     -0.894174    18A     -0.864164
      19A     -0.804327    20A     -0.713104    21A     -0.700771
      22A     -0.655509    23A     -0.642645    24A     -0.633744
      25A     -0.615277    26A     -0.596909    27A     -0.563553
      28A     -0.562503    29A     -0.548071    30A     -0.544745
      31A     -0.522743    32A     -0.503730    33A     -0.490221
      34A     -0.467262    35A     -0.411167    36A     -0.409198
      37A     -0.308556

  @DF-RHF Final Energy:  -438.81529101909013

   => Energetics <=

    Nuclear Repulsion Energy =            528.4066427373344368
    One-Electron Energy =               -1643.4260183929714003
    Two-Electron Energy =                 676.2040846365466678
    Total Energy =                       -438.8152910190901821
  Basis Set: (AUG-CC-PVTZ AUX)
    Blend: AUG-CC-PVTZ-RI
    Molecular point group: c1

    Geometry (in Angstrom), charge = 0, multiplicity = 1:

       Center              X                  Y                   Z               Mass
    ------------   -----------------  -----------------  -----------------  -----------------
         O            0.193632103303     2.208555917020    -0.000011545211    15.994914619570
         N           -0.210588896697    -0.073857082980    -0.000003545211    14.003074004430
         C           -1.666218896697     0.184620917020    -0.000005545211    12.000000000000
         C           -2.307608896697    -0.355187082980     1.272624454789    12.000000000000
         C           -2.307616896697    -0.355234082980    -1.272611545211    12.000000000000
         C            0.618764303303     1.014973217020    -0.000006445211    12.000000000000
         C            0.248982103303    -1.362035082980     0.000005454789    12.000000000000
         C            2.055643103303     0.718183917020    -0.000004545211    12.000000000000
         C            1.585200103303    -1.652240082980     0.000009454789    12.000000000000
         C            2.506166103303    -0.574022082980     0.000003454789    12.000000000000
         H           -1.732039896697     1.274253917020    -0.000024545211     1.007825032230
         H           -3.362472896697    -0.066223082980     1.304931454789     1.007825032230
         H           -2.258221896697    -1.447482082980     1.319881454789     1.007825032230
         H           -1.809948896697     0.055412917020     2.154874454789     1.007825032230
         H           -1.809957896697     0.055326917020    -2.154880545211     1.007825032230
         H           -3.362478896697    -0.066262082980    -1.304925545211     1.007825032230
         H           -2.258240896697    -1.447530082980    -1.319825545211     1.007825032230
         H           -0.511642896697    -2.136214082980     0.000010454789     1.007825032230
         H            2.737911103303     1.562291917020    -0.000008545211     1.007825032230
         H            1.913105103303    -2.685531082980     0.000017454789     1.007825032230
         H            3.575493103303    -0.773783082980     0.000006454789     1.007825032230

  Basis Set: AUG-CC-PVTZ
    Blend: AUG-CC-PVTZ
  Basis Set: (AUG-CC-PVTZ AUX)
    Blend: AUG-CC-PVTZ-JKFIT
	 Reference Energy          =    -438.8152910190901252 [Eh]
	 Singles Energy            =      -0.0000000000000000 [Eh]
	 Same-Spin Energy          =      -0.4678451376101019 [Eh]
	 Opposite-Spin Energy      =      -1.4975556302009552 [Eh]
	 Correlation Energy        =      -1.9654007678110572 [Eh]
	 Total Energy              =    -440.7806917869011727 [Eh]

	 ================> DF-SCS-MP2 Energies <==================
	-----------------------------------------------------------
	 SCS Same-Spin Scale       =       0.3333333333333333 [-]
	 SCS Opposite-Spin Scale   =       1.2000000000000000 [-]
	 SCS Same-Spin Energy      =      -0.1559483792033673 [Eh]
	 SCS Opposite-Spin Energy  =      -1.7970667562411462 [Eh]
	 SCS Correlation Energy    =      -1.9530151354445136 [Eh]
	 SCS Total Energy          =    -440.7683061545346277 [Eh]
	-----------------------------------------------------------

  Dipole Moment: [D]
     X:    -0.6939      Y:    -4.1475      Z:     0.0000     Total:     4.2052

*** Psi4 exiting successfully. Buy a developer a beer!
