                               Psi4 1.4a3.dev225

  ==> Input File <==

--------------------------------------------------------------------------
#psi4
#
memory 32 gb

molecule  {
0 1
  O        0.2506850     2.2433030    -0.0000120
  N       -0.1535360    -0.0391100    -0.0000040
  C       -1.6091660     0.2193680    -0.0000060
  C       -2.2505560    -0.3204400     1.2726240
  C       -2.2505640    -0.3204870    -1.2726120
  C        0.7061140     1.0894960    -0.0000070
  C        0.3060350    -1.3272880     0.0000050
  C        2.1126960     0.7529310    -0.0000050
  C        1.5933921    -1.6068812     0.0000089
  C        2.5632190    -0.5392750     0.0000030
  H       -1.6749870     1.3090010    -0.0000250
  H       -3.3054200    -0.0314760     1.3049310
  H       -2.2011690    -1.4127350     1.3198810
  H       -1.7528960     0.0901600     2.1548740
  H       -1.7529050     0.0900740    -2.1548810
  H       -3.3054260    -0.0315150    -1.3049260
  H       -2.2011880    -1.4127830    -1.3198260
  H       -0.4545900    -2.1014670     0.0000100
  H        2.7949640     1.5970390    -0.0000090
  H        1.9701580    -2.6507840     0.0000170
  H        3.6325460    -0.7390360     0.0000060
units angstrom
no_reorient  #important for SAPT in psi4, default
symmetry c1  #important for SAPT in psi4, default
}

set PROPERTIES_ORIGIN ["COM"]
properties('MP2/aug-cc-pvtz', properties = ['dipole'])
--------------------------------------------------------------------------

    Molecular point group: c1
  Charge       = 0
  Multiplicity = 1
  Basis Set: AUG-CC-PVTZ
    Blend: AUG-CC-PVTZ
  Basis Set: (AUG-CC-PVTZ AUX)
    Blend: AUG-CC-PVTZ-JKFIT

    Orbital Energies [Eh]
    ---------------------

    Doubly Occupied:

       1A    -20.507016     2A    -15.616180     3A    -11.350867
       4A    -11.295246     5A    -11.272400     6A    -11.271689
       7A    -11.237931     8A    -11.236519     9A    -11.227330
      10A    -11.227315    11A     -1.367359    12A     -1.276984
      13A     -1.123125    14A     -1.049140    15A     -1.028815
      16A     -0.949241    17A     -0.890417    18A     -0.854882
      19A     -0.804248    20A     -0.710893    21A     -0.699547
      22A     -0.653956    23A     -0.638490    24A     -0.627661
      25A     -0.610511    26A     -0.607969    27A     -0.568202
      28A     -0.561264    29A     -0.547103    30A     -0.534420
      31A     -0.524960    32A     -0.503514    33A     -0.484322
      34A     -0.476752    35A     -0.418868    36A     -0.404150
      37A     -0.313695

  @DF-RHF Final Energy:  -438.81638985378379

   => Energetics <=

    Nuclear Repulsion Energy =            528.6446844178784659
    One-Electron Energy =               -1643.9761875712983965
    Two-Electron Energy =                 676.5151132996360275
    Total Energy =                       -438.8163898537837895
  Basis Set: (AUG-CC-PVTZ AUX)
    Blend: AUG-CC-PVTZ-RI
    Molecular point group: c1

    Geometry (in Angstrom), charge = 0, multiplicity = 1:

       Center              X                  Y                   Z               Mass
    ------------   -----------------  -----------------  -----------------  -----------------
         O            0.195257158715     2.204145119861    -0.000011527703    15.994914619570
         N           -0.208963841285    -0.078267880139    -0.000003527703    14.003074004430
         C           -1.664593841285     0.180210119861    -0.000005527703    12.000000000000
         C           -2.305983841285    -0.359597880139     1.272624472297    12.000000000000
         C           -2.305991841285    -0.359644880139    -1.272611527703    12.000000000000
         C            0.650686158715     1.050338119861    -0.000006527703    12.000000000000
         C            0.250607158715    -1.366445880139     0.000005472297    12.000000000000
         C            2.057268158715     0.713773119861    -0.000004527703    12.000000000000
         C            1.537964258715    -1.646039080139     0.000009372297    12.000000000000
         C            2.507791158715    -0.578432880139     0.000003472297    12.000000000000
         H           -1.730414841285     1.269843119861    -0.000024527703     1.007825032230
         H           -3.360847841285    -0.070633880139     1.304931472297     1.007825032230
         H           -2.256596841285    -1.451892880139     1.319881472297     1.007825032230
         H           -1.808323841285     0.051002119861     2.154874472297     1.007825032230
         H           -1.808332841285     0.050916119861    -2.154880527703     1.007825032230
         H           -3.360853841285    -0.070672880139    -1.304925527703     1.007825032230
         H           -2.256615841285    -1.451940880139    -1.319825527703     1.007825032230
         H           -0.510017841285    -2.140624880139     0.000010472297     1.007825032230
         H            2.739536158715     1.557881119861    -0.000008527703     1.007825032230
         H            1.914730158715    -2.689941880139     0.000017472297     1.007825032230
         H            3.577118158715    -0.778193880139     0.000006472297     1.007825032230

  Basis Set: AUG-CC-PVTZ
    Blend: AUG-CC-PVTZ
  Basis Set: (AUG-CC-PVTZ AUX)
    Blend: AUG-CC-PVTZ-JKFIT
	 Reference Energy          =    -438.8163898537837895 [Eh]
	 Singles Energy            =      -0.0000000000000000 [Eh]
	 Same-Spin Energy          =      -0.4670439319823999 [Eh]
	 Opposite-Spin Energy      =      -1.4963894718858499 [Eh]
	 Correlation Energy        =      -1.9634334038682497 [Eh]
	 Total Energy              =    -440.7798232576520263 [Eh]

	 ================> DF-SCS-MP2 Energies <==================
	-----------------------------------------------------------
	 SCS Same-Spin Scale       =       0.3333333333333333 [-]
	 SCS Opposite-Spin Scale   =       1.2000000000000000 [-]
	 SCS Same-Spin Energy      =      -0.1556813106607999 [Eh]
	 SCS Opposite-Spin Energy  =      -1.7956673662630198 [Eh]
	 SCS Correlation Energy    =      -1.9513486769238197 [Eh]
	 SCS Total Energy          =    -440.7677385307076179 [Eh]
	-----------------------------------------------------------

  Dipole Moment: [D]
     X:    -0.5564      Y:    -3.8188      Z:     0.0000     Total:     3.8592

*** Psi4 exiting successfully. Buy a developer a beer!
