                               Psi4 1.4a3.dev225

  ==> Input File <==

--------------------------------------------------------------------------
#psi4
#
memory 32 gb

molecule  {
0 1
  O        0.2506850     2.2433030    -0.0000120
  N       -0.1535360    -0.0391100    -0.0000040
  C       -1.6091660     0.2193680    -0.0000060
  C       -2.2505560    -0.3204400     1.2726240
  C       -2.2505640    -0.3204870    -1.2726120
  C        0.7061140     1.0894960    -0.0000070
  C        0.3060350    -1.3272880     0.0000050
  C        2.1126960     0.7529310    -0.0000050
  C        1.6422530    -1.6174930     0.0000090
  C        2.5632190    -0.5392750     0.0000030
  H       -1.6749870     1.3090010    -0.0000250
  H       -3.3054200    -0.0314760     1.3049310
  H       -2.2011690    -1.4127350     1.3198810
  H       -1.7528960     0.0901600     2.1548740
  H       -1.6568663     0.0417351    -2.1157855
  H       -3.3054260    -0.0315150    -1.3049260
  H       -2.2011880    -1.4127830    -1.3198260
  H       -0.4545900    -2.1014670     0.0000100
  H        2.7949640     1.5970390    -0.0000090
  H        1.9701580    -2.6507840     0.0000170
  H        3.6325460    -0.7390360     0.0000060
units angstrom
no_reorient  #important for SAPT in psi4, default
symmetry c1  #important for SAPT in psi4, default
}

set PROPERTIES_ORIGIN ["COM"]
properties('MP2/aug-cc-pvtz', properties = ['dipole'])
--------------------------------------------------------------------------

    Molecular point group: c1
  Charge       = 0
  Multiplicity = 1
  Basis Set: AUG-CC-PVTZ
    Blend: AUG-CC-PVTZ
  Basis Set: (AUG-CC-PVTZ AUX)
    Blend: AUG-CC-PVTZ-JKFIT

    Orbital Energies [Eh]
    ---------------------

    Doubly Occupied:

       1A    -20.505633     2A    -15.621699     3A    -11.350182
       4A    -11.305789     5A    -11.273544     6A    -11.269140
       7A    -11.238537     8A    -11.235460     9A    -11.228996
      10A    -11.228275    11A     -1.367220    12A     -1.277876
      13A     -1.122796    14A     -1.051430    15A     -1.022740
      16A     -0.950852    17A     -0.893276    18A     -0.855900
      19A     -0.803498    20A     -0.711774    21A     -0.699486
      22A     -0.655885    23A     -0.640916    24A     -0.629578
      25A     -0.611393    26A     -0.604298    27A     -0.566444
      28A     -0.560371    29A     -0.551303    30A     -0.544136
      31A     -0.525431    32A     -0.501323    33A     -0.486484
      34A     -0.473355    35A     -0.417902    36A     -0.406729
      37A     -0.307367

  @DF-RHF Final Energy:  -438.81662596123442

   => Energetics <=

    Nuclear Repulsion Energy =            528.1276803856031847
    One-Electron Energy =               -1642.8945735860443165
    Two-Electron Energy =                 675.9502672392068234
    Total Energy =                       -438.8166259612344220
  Basis Set: (AUG-CC-PVTZ AUX)
    Blend: AUG-CC-PVTZ-RI
    Molecular point group: c1

    Geometry (in Angstrom), charge = 0, multiplicity = 1:

       Center              X                  Y                   Z               Mass
    ------------   -----------------  -----------------  -----------------  -----------------
         O            0.190273931737     2.205429432190    -0.000298961723    15.994914619570
         N           -0.213947068263    -0.076983567810    -0.000290961723    14.003074004430
         C           -1.669577068263     0.181494432190    -0.000292961723    12.000000000000
         C           -2.310967068263    -0.358313567810     1.272337038277    12.000000000000
         C           -2.310975068263    -0.358360567810    -1.272898961723    12.000000000000
         C            0.645702931737     1.051622432190    -0.000293961723    12.000000000000
         C            0.245623931737    -1.365161567810    -0.000281961723    12.000000000000
         C            2.052284931737     0.715057432190    -0.000291961723    12.000000000000
         C            1.581841931737    -1.655366567810    -0.000277961723    12.000000000000
         C            2.502807931737    -0.577148567810    -0.000283961723    12.000000000000
         H           -1.735398068263     1.271127432190    -0.000311961723     1.007825032230
         H           -3.365831068263    -0.069349567810     1.304644038277     1.007825032230
         H           -2.261580068263    -1.450608567810     1.319594038277     1.007825032230
         H           -1.813307068263     0.052286432190     2.154587038277     1.007825032230
         H           -1.717277368263     0.003861532190    -2.116072461723     1.007825032230
         H           -3.365837068263    -0.069388567810    -1.305212961723     1.007825032230
         H           -2.261599068263    -1.450656567810    -1.320112961723     1.007825032230
         H           -0.515001068263    -2.139340567810    -0.000276961723     1.007825032230
         H            2.734552931737     1.559165432190    -0.000295961723     1.007825032230
         H            1.909746931737    -2.688657567810    -0.000269961723     1.007825032230
         H            3.572134931737    -0.776909567810    -0.000280961723     1.007825032230

  Basis Set: AUG-CC-PVTZ
    Blend: AUG-CC-PVTZ
  Basis Set: (AUG-CC-PVTZ AUX)
    Blend: AUG-CC-PVTZ-JKFIT
	 Reference Energy          =    -438.8166259612344220 [Eh]
	 Singles Energy            =      -0.0000000000000000 [Eh]
	 Same-Spin Energy          =      -0.4680711704397250 [Eh]
	 Opposite-Spin Energy      =      -1.4974808652071943 [Eh]
	 Correlation Energy        =      -1.9655520356469192 [Eh]
	 Total Energy              =    -440.7821779968813303 [Eh]

	 ================> DF-SCS-MP2 Energies <==================
	-----------------------------------------------------------
	 SCS Same-Spin Scale       =       0.3333333333333333 [-]
	 SCS Opposite-Spin Scale   =       1.2000000000000000 [-]
	 SCS Same-Spin Energy      =      -0.1560237234799083 [Eh]
	 SCS Opposite-Spin Energy  =      -1.7969770382486330 [Eh]
	 SCS Correlation Energy    =      -1.9530007617285412 [Eh]
	 SCS Total Energy          =    -440.7696267229629825 [Eh]
	-----------------------------------------------------------

  Dipole Moment: [D]
     X:    -0.6351      Y:    -3.8902      Z:     0.0180     Total:     3.9417

*** Psi4 exiting successfully. Buy a developer a beer!
