                               Psi4 1.4a3.dev225

  ==> Input File <==

--------------------------------------------------------------------------
#psi4
#
memory 32 gb

molecule  {
0 1
  O        0.2506850     2.2433030    -0.0000120
  N       -0.1535360    -0.0391100    -0.0000040
  C       -1.6091660     0.2193680    -0.0000060
  C       -2.2505560    -0.3204400     1.2726240
  C       -2.2505640    -0.3204870    -1.2726120
  C        0.7061140     1.0894960    -0.0000070
  C        0.3060350    -1.3272880     0.0000050
  C        1.9181867     0.7994729    -0.0000053
  C        1.6422530    -1.6174930     0.0000090
  C        2.5632190    -0.5392750     0.0000030
  H       -1.6749870     1.3090010    -0.0000250
  H       -3.3054200    -0.0314760     1.3049310
  H       -2.2011690    -1.4127350     1.3198810
  H       -1.7528960     0.0901600     2.1548740
  H       -1.7529050     0.0900740    -2.1548810
  H       -3.3054260    -0.0315150    -1.3049260
  H       -2.2011880    -1.4127830    -1.3198260
  H       -0.4545900    -2.1014670     0.0000100
  H        2.7949640     1.5970390    -0.0000090
  H        1.9701580    -2.6507840     0.0000170
  H        3.6325460    -0.7390360     0.0000060
units angstrom
no_reorient  #important for SAPT in psi4, default
symmetry c1  #important for SAPT in psi4, default
}

set PROPERTIES_ORIGIN ["COM"]
properties('MP2/aug-cc-pvtz', properties = ['dipole'])
--------------------------------------------------------------------------

    Molecular point group: c1
  Charge       = 0
  Multiplicity = 1
  Basis Set: AUG-CC-PVTZ
    Blend: AUG-CC-PVTZ
  Basis Set: (AUG-CC-PVTZ AUX)
    Blend: AUG-CC-PVTZ-JKFIT

    Orbital Energies [Eh]
    ---------------------

    Doubly Occupied:

       1A    -20.475374     2A    -15.629161     3A    -11.317728
       4A    -11.313612     5A    -11.296914     6A    -11.274147
       7A    -11.246270     8A    -11.229854     9A    -11.229838
      10A    -11.226661    11A     -1.360102    12A     -1.275067
      13A     -1.124957    14A     -1.049363    15A     -1.042130
      16A     -0.951552    17A     -0.916601    18A     -0.848173
      19A     -0.810185    20A     -0.717355    21A     -0.703248
      22A     -0.659844    23A     -0.631915    24A     -0.629972
      25A     -0.613102    26A     -0.599557    27A     -0.573384
      28A     -0.564551    29A     -0.550867    30A     -0.530830
      31A     -0.505872    32A     -0.504726    33A     -0.477787
      34A     -0.471515    35A     -0.404618    36A     -0.394272
      37A     -0.308946

  @DF-RHF Final Energy:  -438.75349249444287

   => Energetics <=

    Nuclear Repulsion Energy =            531.0480130807377463
    One-Electron Energy =               -1648.6829110278365533
    Two-Electron Energy =                 678.8814054526559403
    Total Energy =                       -438.7534924944428667
  Basis Set: (AUG-CC-PVTZ AUX)
    Blend: AUG-CC-PVTZ-RI
    Molecular point group: c1

    Geometry (in Angstrom), charge = 0, multiplicity = 1:

       Center              X                  Y                   Z               Mass
    ------------   -----------------  -----------------  -----------------  -----------------
         O            0.208006859514     2.200999887749    -0.000011510196    15.994914619570
         N           -0.196214140486    -0.081413112251    -0.000003510196    14.003074004430
         C           -1.651844140486     0.177064887749    -0.000005510196    12.000000000000
         C           -2.293234140486    -0.362743112251     1.272624489804    12.000000000000
         C           -2.293242140486    -0.362790112251    -1.272611510196    12.000000000000
         C            0.663435859514     1.047192887749    -0.000006510196    12.000000000000
         C            0.263356859514    -1.369591112251     0.000005489804    12.000000000000
         C            1.875508559514     0.757169787749    -0.000004810196    12.000000000000
         C            1.599574859514    -1.659796112251     0.000009489804    12.000000000000
         C            2.520540859514    -0.581578112251     0.000003489804    12.000000000000
         H           -1.717665140486     1.266697887749    -0.000024510196     1.007825032230
         H           -3.348098140486    -0.073779112251     1.304931489804     1.007825032230
         H           -2.243847140486    -1.455038112251     1.319881489804     1.007825032230
         H           -1.795574140486     0.047856887749     2.154874489804     1.007825032230
         H           -1.795583140486     0.047770887749    -2.154880510196     1.007825032230
         H           -3.348104140486    -0.073818112251    -1.304925510196     1.007825032230
         H           -2.243866140486    -1.455086112251    -1.319825510196     1.007825032230
         H           -0.497268140486    -2.143770112251     0.000010489804     1.007825032230
         H            2.752285859514     1.554735887749    -0.000008510196     1.007825032230
         H            1.927479859514    -2.693087112251     0.000017489804     1.007825032230
         H            3.589867859514    -0.781339112251     0.000006489804     1.007825032230

  Basis Set: AUG-CC-PVTZ
    Blend: AUG-CC-PVTZ
  Basis Set: (AUG-CC-PVTZ AUX)
    Blend: AUG-CC-PVTZ-JKFIT
	 Reference Energy          =    -438.7534924944428667 [Eh]
	 Singles Energy            =      -0.0000000000000000 [Eh]
	 Same-Spin Energy          =      -0.4729168203673066 [Eh]
	 Opposite-Spin Energy      =      -1.5027399663724423 [Eh]
	 Correlation Energy        =      -1.9756567867397490 [Eh]
	 Total Energy              =    -440.7291492811826288 [Eh]

	 ================> DF-SCS-MP2 Energies <==================
	-----------------------------------------------------------
	 SCS Same-Spin Scale       =       0.3333333333333333 [-]
	 SCS Opposite-Spin Scale   =       1.2000000000000000 [-]
	 SCS Same-Spin Energy      =      -0.1576389401224355 [Eh]
	 SCS Opposite-Spin Energy  =      -1.8032879596469307 [Eh]
	 SCS Correlation Energy    =      -1.9609268997693663 [Eh]
	 SCS Total Energy          =    -440.7144193942122570 [Eh]
	-----------------------------------------------------------

  Dipole Moment: [D]
     X:    -0.5801      Y:    -4.4730      Z:     0.0000     Total:     4.5104

*** Psi4 exiting successfully. Buy a developer a beer!
