                               Psi4 1.4a3.dev225

  ==> Input File <==

--------------------------------------------------------------------------
#psi4
#
memory 32 gb

molecule  {
0 1
  O        0.2506850     2.2433030    -0.0000120
  N       -0.1535360    -0.0391100    -0.0000040
  C       -1.6091660     0.2193680    -0.0000060
  C       -2.2505560    -0.3204400     1.2726240
  C       -2.2505640    -0.3204870    -1.2726120
  C        0.7061140     1.0894960    -0.0000070
  C        0.3060350    -1.3272880     0.0000050
  C        2.1126960     0.7529310    -0.0000050
  C        1.6422530    -1.6174930     0.0000090
  C        2.5632190    -0.5392750     0.0000030
  H       -1.6749870     1.3090010    -0.0000250
  H       -3.3054200    -0.0314760     1.3049310
  H       -2.2011690    -1.4127350     1.3198810
  H       -1.7528960     0.0901600     2.1548740
  H       -1.7529050     0.0900740    -2.1548810
  H       -3.3054260    -0.0315150    -1.3049260
  H       -2.2011880    -1.4127830    -1.3198260
  H       -0.4545900    -2.1014670     0.0000100
  H        2.7949640     1.5970390    -0.0000090
  H        1.9701580    -2.6507840     0.0000170
  H        3.4359470    -0.7023093     0.0000054
units angstrom
no_reorient  #important for SAPT in psi4, default
symmetry c1  #important for SAPT in psi4, default
}

set PROPERTIES_ORIGIN ["COM"]
properties('MP2/aug-cc-pvtz', properties = ['dipole'])
--------------------------------------------------------------------------

    Molecular point group: c1
  Charge       = 0
  Multiplicity = 1
  Basis Set: AUG-CC-PVTZ
    Blend: AUG-CC-PVTZ
  Basis Set: (AUG-CC-PVTZ AUX)
    Blend: AUG-CC-PVTZ-JKFIT

    Orbital Energies [Eh]
    ---------------------

    Doubly Occupied:

       1A    -20.504973     2A    -15.621075     3A    -11.349130
       4A    -11.304647     5A    -11.273888     6A    -11.245716
       7A    -11.236984     8A    -11.234687     9A    -11.228523
      10A    -11.228507    11A     -1.366521    12A     -1.277087
      13A     -1.127125    14A     -1.055395    15A     -1.022047
      16A     -0.950407    17A     -0.906245    18A     -0.861943
      19A     -0.809931    20A     -0.722124    21A     -0.701219
      22A     -0.668332    23A     -0.645412    24A     -0.627699
      25A     -0.612629    26A     -0.604299    27A     -0.575807
      28A     -0.561805    29A     -0.547600    30A     -0.543251
      31A     -0.525868    32A     -0.504298    33A     -0.486846
      34A     -0.473185    35A     -0.418057    36A     -0.406340
      37A     -0.306453

  @DF-RHF Final Energy:  -438.78336467278490

   => Energetics <=

    Nuclear Repulsion Energy =            529.1123909420761038
    One-Electron Energy =               -1644.7194025154412884
    Two-Electron Energy =                 676.8236469005802292
    Total Energy =                       -438.7833646727848418
  Basis Set: (AUG-CC-PVTZ AUX)
    Blend: AUG-CC-PVTZ-RI
    Molecular point group: c1

    Geometry (in Angstrom), charge = 0, multiplicity = 1:

       Center              X                  Y                   Z               Mass
    ------------   -----------------  -----------------  -----------------  -----------------
         O            0.192425367803     2.204804040451    -0.000011532046    15.994914619570
         N           -0.211795632197    -0.077608959549    -0.000003532046    14.003074004430
         C           -1.667425632197     0.180869040451    -0.000005532046    12.000000000000
         C           -2.308815632197    -0.358938959549     1.272624467954    12.000000000000
         C           -2.308823632197    -0.358985959549    -1.272611532046    12.000000000000
         C            0.647854367803     1.050997040451    -0.000006532046    12.000000000000
         C            0.247775367803    -1.365786959549     0.000005467954    12.000000000000
         C            2.054436367803     0.714432040451    -0.000004532046    12.000000000000
         C            1.583993367803    -1.655991959549     0.000009467954    12.000000000000
         C            2.504959367803    -0.577773959549     0.000003467954    12.000000000000
         H           -1.733246632197     1.270502040451    -0.000024532046     1.007825032230
         H           -3.363679632197    -0.069974959549     1.304931467954     1.007825032230
         H           -2.259428632197    -1.451233959549     1.319881467954     1.007825032230
         H           -1.811155632197     0.051661040451     2.154874467954     1.007825032230
         H           -1.811164632197     0.051575040451    -2.154880532046     1.007825032230
         H           -3.363685632197    -0.070013959549    -1.304925532046     1.007825032230
         H           -2.259447632197    -1.451281959549    -1.319825532046     1.007825032230
         H           -0.512849632197    -2.139965959549     0.000010467954     1.007825032230
         H            2.736704367803     1.558540040451    -0.000008532046     1.007825032230
         H            1.911898367803    -2.689282959549     0.000017467954     1.007825032230
         H            3.377687367803    -0.740808259549     0.000005867954     1.007825032230

  Basis Set: AUG-CC-PVTZ
    Blend: AUG-CC-PVTZ
  Basis Set: (AUG-CC-PVTZ AUX)
    Blend: AUG-CC-PVTZ-JKFIT
	 Reference Energy          =    -438.7833646727848986 [Eh]
	 Singles Energy            =      -0.0000000000000000 [Eh]
	 Same-Spin Energy          =      -0.4677897362396514 [Eh]
	 Opposite-Spin Energy      =      -1.4967325484376097 [Eh]
	 Correlation Energy        =      -1.9645222846772610 [Eh]
	 Total Energy              =    -440.7478869574621854 [Eh]

	 ================> DF-SCS-MP2 Energies <==================
	-----------------------------------------------------------
	 SCS Same-Spin Scale       =       0.3333333333333333 [-]
	 SCS Opposite-Spin Scale   =       1.2000000000000000 [-]
	 SCS Same-Spin Energy      =      -0.1559299120798838 [Eh]
	 SCS Opposite-Spin Energy  =      -1.7960790581251316 [Eh]
	 SCS Correlation Energy    =      -1.9520089702050154 [Eh]
	 SCS Total Energy          =    -440.7353736429899413 [Eh]
	-----------------------------------------------------------

  Dipole Moment: [D]
     X:    -0.6250      Y:    -3.8708      Z:     0.0000     Total:     3.9209

*** Psi4 exiting successfully. Buy a developer a beer!
