                               Psi4 1.4a3.dev225

  ==> Input File <==

--------------------------------------------------------------------------
#psi4
#
memory 32 gb

molecule  {
0 1
  O        0.2506850     2.2433030    -0.0000120
  N       -0.1535360    -0.0391100    -0.0000040
  C       -1.6091660     0.2193680    -0.0000060
  C       -2.2505560    -0.3204400     1.2726240
  C       -2.2448791    -0.3452358    -1.2647005
  C        0.7061140     1.0894960    -0.0000070
  C        0.3060350    -1.3272880     0.0000050
  C        2.1126960     0.7529310    -0.0000050
  C        1.6422530    -1.6174930     0.0000090
  C        2.5632190    -0.5392750     0.0000030
  H       -1.6749870     1.3090010    -0.0000250
  H       -3.3054200    -0.0314760     1.3049310
  H       -2.2011690    -1.4127350     1.3198810
  H       -1.7528960     0.0901600     2.1548740
  H       -1.7529050     0.0900740    -2.1548810
  H       -3.3054260    -0.0315150    -1.3049260
  H       -2.2011880    -1.4127830    -1.3198260
  H       -0.4545900    -2.1014670     0.0000100
  H        2.7949640     1.5970390    -0.0000090
  H        1.9701580    -2.6507840     0.0000170
  H        3.6325460    -0.7390360     0.0000060
units angstrom
no_reorient  #important for SAPT in psi4, default
symmetry c1  #important for SAPT in psi4, default
}

set PROPERTIES_ORIGIN ["COM"]
properties('MP2/aug-cc-pvtz', properties = ['dipole'])
--------------------------------------------------------------------------

    Molecular point group: c1
  Charge       = 0
  Multiplicity = 1
  Basis Set: AUG-CC-PVTZ
    Blend: AUG-CC-PVTZ
  Basis Set: (AUG-CC-PVTZ AUX)
    Blend: AUG-CC-PVTZ-JKFIT

    Orbital Energies [Eh]
    ---------------------

    Doubly Occupied:

       1A    -20.505429     2A    -15.621282     3A    -11.349920
       4A    -11.305665     5A    -11.274446     6A    -11.268907
       7A    -11.238389     8A    -11.235249     9A    -11.228770
      10A    -11.228512    11A     -1.367005    12A     -1.277664
      13A     -1.122619    14A     -1.051341    15A     -1.022579
      16A     -0.950351    17A     -0.893507    18A     -0.855792
      19A     -0.804182    20A     -0.711863    21A     -0.699579
      22A     -0.655333    23A     -0.641419    24A     -0.627889
      25A     -0.612006    26A     -0.604364    27A     -0.566727
      28A     -0.563361    29A     -0.546459    30A     -0.543231
      31A     -0.523319    32A     -0.501964    33A     -0.489880
      34A     -0.473560    35A     -0.417831    36A     -0.406298
      37A     -0.307141

  @DF-RHF Final Energy:  -438.81711567678371

   => Energetics <=

    Nuclear Repulsion Energy =            528.0100918729089017
    One-Electron Energy =               -1642.6667495382703237
    Two-Electron Energy =                 675.8395419885775937
    Total Energy =                       -438.8171156767837147
  Basis Set: (AUG-CC-PVTZ AUX)
    Blend: AUG-CC-PVTZ-RI
    Molecular point group: c1

    Geometry (in Angstrom), charge = 0, multiplicity = 1:

       Center              X                  Y                   Z               Mass
    ------------   -----------------  -----------------  -----------------  -----------------
         O            0.190482354256     2.207240499351    -0.000704089605    15.994914619570
         N           -0.213738645744    -0.075172500649    -0.000696089605    14.003074004430
         C           -1.669368645744     0.183305499351    -0.000698089605    12.000000000000
         C           -2.310758645744    -0.356502500649     1.271931910395    12.000000000000
         C           -2.305081745744    -0.381298300649    -1.265392589605    12.000000000000
         C            0.645911354256     1.053433499351    -0.000699089605    12.000000000000
         C            0.245832354256    -1.363350500649    -0.000687089605    12.000000000000
         C            2.052493354256     0.716868499351    -0.000697089605    12.000000000000
         C            1.582050354256    -1.653555500649    -0.000683089605    12.000000000000
         C            2.503016354256    -0.575337500649    -0.000689089605    12.000000000000
         H           -1.735189645744     1.272938499351    -0.000717089605     1.007825032230
         H           -3.365622645744    -0.067538500649     1.304238910395     1.007825032230
         H           -2.261371645744    -1.448797500649     1.319188910395     1.007825032230
         H           -1.813098645744     0.054097499351     2.154181910395     1.007825032230
         H           -1.813107645744     0.054011499351    -2.155573089605     1.007825032230
         H           -3.365628645744    -0.067577500649    -1.305618089605     1.007825032230
         H           -2.261390645744    -1.448845500649    -1.320518089605     1.007825032230
         H           -0.514792645744    -2.137529500649    -0.000682089605     1.007825032230
         H            2.734761354256     1.560976499351    -0.000701089605     1.007825032230
         H            1.909955354256    -2.686846500649    -0.000675089605     1.007825032230
         H            3.572343354256    -0.775098500649    -0.000686089605     1.007825032230

  Basis Set: AUG-CC-PVTZ
    Blend: AUG-CC-PVTZ
  Basis Set: (AUG-CC-PVTZ AUX)
    Blend: AUG-CC-PVTZ-JKFIT
	 Reference Energy          =    -438.8171156767837147 [Eh]
	 Singles Energy            =      -0.0000000000000000 [Eh]
	 Same-Spin Energy          =      -0.4680161971297803 [Eh]
	 Opposite-Spin Energy      =      -1.4973681846608207 [Eh]
	 Correlation Energy        =      -1.9653843817906009 [Eh]
	 Total Energy              =    -440.7825000585743282 [Eh]

	 ================> DF-SCS-MP2 Energies <==================
	-----------------------------------------------------------
	 SCS Same-Spin Scale       =       0.3333333333333333 [-]
	 SCS Opposite-Spin Scale   =       1.2000000000000000 [-]
	 SCS Same-Spin Energy      =      -0.1560053990432601 [Eh]
	 SCS Opposite-Spin Energy  =      -1.7968418215929847 [Eh]
	 SCS Correlation Energy    =      -1.9528472206362448 [Eh]
	 SCS Total Energy          =    -440.7699628974199868 [Eh]
	-----------------------------------------------------------

  Dipole Moment: [D]
     X:    -0.6658      Y:    -3.8831      Z:     0.0008     Total:     3.9398

*** Psi4 exiting successfully. Buy a developer a beer!
