                               Psi4 1.4a3.dev225

  ==> Input File <==

--------------------------------------------------------------------------
#psi4
#
memory 32 gb

molecule  {
0 1
  O        0.2506850     2.2433030    -0.0000120
  N       -0.1535360    -0.0391100    -0.0000040
  C       -1.6091660     0.2193680    -0.0000060
  C       -2.2505560    -0.3204400     1.2726240
  C       -2.2505640    -0.3204870    -1.2726120
  C        0.7061140     1.0894960    -0.0000070
  C        0.3060350    -1.3272880     0.0000050
  C        2.1126960     0.7529310    -0.0000050
  C        1.6422530    -1.6174930     0.0000090
  C        2.5632190    -0.5392750     0.0000030
  H       -1.6749870     1.3090010    -0.0000250
  H       -3.3054200    -0.0314760     1.3049310
  H       -2.2011690    -1.4127350     1.3198810
  H       -1.7528960     0.0901600     2.1548740
  H       -1.7529050     0.0900740    -2.1548810
  H       -3.3054260    -0.0315150    -1.3049260
  H       -2.2011880    -1.4127830    -1.3198260
  H       -0.4545900    -2.1014670     0.0000100
  H        2.7949640     1.5970390    -0.0000090
  H        1.9701580    -2.6507840     0.0000170
  H        3.8291450    -0.7757627     0.0000066
units angstrom
no_reorient  #important for SAPT in psi4, default
symmetry c1  #important for SAPT in psi4, default
}

set PROPERTIES_ORIGIN ["COM"]
properties('MP2/aug-cc-pvtz', properties = ['dipole'])
--------------------------------------------------------------------------

    Molecular point group: c1
  Charge       = 0
  Multiplicity = 1
  Basis Set: AUG-CC-PVTZ
    Blend: AUG-CC-PVTZ
  Basis Set: (AUG-CC-PVTZ AUX)
    Blend: AUG-CC-PVTZ-JKFIT

    Orbital Energies [Eh]
    ---------------------

    Doubly Occupied:

       1A    -20.506561     2A    -15.622460     3A    -11.351603
       4A    -11.307190     5A    -11.289867     6A    -11.274850
       7A    -11.240621     8A    -11.237010     9A    -11.229308
      10A    -11.229293    11A     -1.368099    12A     -1.278708
      13A     -1.121684    14A     -1.049954    15A     -1.023850
      16A     -0.951211    17A     -0.889433    18A     -0.852556
      19A     -0.800580    20A     -0.708472    21A     -0.698310
      22A     -0.651987    23A     -0.629081    24A     -0.628882
      25A     -0.613701    26A     -0.604725    27A     -0.562808
      28A     -0.550330    29A     -0.548667    30A     -0.542468
      31A     -0.518621    32A     -0.505262    33A     -0.486550
      34A     -0.475012    35A     -0.417518    36A     -0.407839
      37A     -0.308389

  @DF-RHF Final Energy:  -438.79573305734181

   => Energetics <=

    Nuclear Repulsion Energy =            526.9777086361460761
    One-Electron Energy =               -1640.5799678644912092
    Two-Electron Energy =                 674.8065261710033838
    Total Energy =                       -438.7957330573418631
  Basis Set: (AUG-CC-PVTZ AUX)
    Blend: AUG-CC-PVTZ-RI
    Molecular point group: c1

    Geometry (in Angstrom), charge = 0, multiplicity = 1:

       Center              X                  Y                   Z               Mass
    ------------   -----------------  -----------------  -----------------  -----------------
         O            0.189534624886     2.205344060736    -0.000011540868    15.994914619570
         N           -0.214686375114    -0.077068939264    -0.000003540868    14.003074004430
         C           -1.670316375114     0.181409060736    -0.000005540868    12.000000000000
         C           -2.311706375114    -0.358398939264     1.272624459132    12.000000000000
         C           -2.311714375114    -0.358445939264    -1.272611540868    12.000000000000
         C            0.644963624886     1.051537060736    -0.000006540868    12.000000000000
         C            0.244884624886    -1.365246939264     0.000005459132    12.000000000000
         C            2.051545624886     0.714972060736    -0.000004540868    12.000000000000
         C            1.581102624886    -1.655451939264     0.000009459132    12.000000000000
         C            2.502068624886    -0.577233939264     0.000003459132    12.000000000000
         H           -1.736137375114     1.271042060736    -0.000024540868     1.007825032230
         H           -3.366570375114    -0.069434939264     1.304931459132     1.007825032230
         H           -2.262319375114    -1.450693939264     1.319881459132     1.007825032230
         H           -1.814046375114     0.052201060736     2.154874459132     1.007825032230
         H           -1.814055375114     0.052115060736    -2.154880540868     1.007825032230
         H           -3.366576375114    -0.069473939264    -1.304925540868     1.007825032230
         H           -2.262338375114    -1.450741939264    -1.319825540868     1.007825032230
         H           -0.515740375114    -2.139425939264     0.000010459132     1.007825032230
         H            2.733813624886     1.559080060736    -0.000008540868     1.007825032230
         H            1.909007624886    -2.688742939264     0.000017459132     1.007825032230
         H            3.767994624886    -0.813721639264     0.000007059132     1.007825032230

  Basis Set: AUG-CC-PVTZ
    Blend: AUG-CC-PVTZ
  Basis Set: (AUG-CC-PVTZ AUX)
    Blend: AUG-CC-PVTZ-JKFIT
	 Reference Energy          =    -438.7957330573418062 [Eh]
	 Singles Energy            =      -0.0000000000000000 [Eh]
	 Same-Spin Energy          =      -0.4685079859030417 [Eh]
	 Opposite-Spin Energy      =      -1.4995134327371671 [Eh]
	 Correlation Energy        =      -1.9680214186402087 [Eh]
	 Total Energy              =    -440.7637544759820116 [Eh]

	 ================> DF-SCS-MP2 Energies <==================
	-----------------------------------------------------------
	 SCS Same-Spin Scale       =       0.3333333333333333 [-]
	 SCS Opposite-Spin Scale   =       1.2000000000000000 [-]
	 SCS Same-Spin Energy      =      -0.1561693286343472 [Eh]
	 SCS Opposite-Spin Energy  =      -1.7994161192846005 [Eh]
	 SCS Correlation Energy    =      -1.9555854479189478 [Eh]
	 SCS Total Energy          =    -440.7513185052607696 [Eh]
	-----------------------------------------------------------

  Dipole Moment: [D]
     X:    -0.7812      Y:    -3.8493      Z:     0.0000     Total:     3.9277

*** Psi4 exiting successfully. Buy a developer a beer!
