                               Psi4 1.4a3.dev225

  ==> Input File <==

--------------------------------------------------------------------------
#psi4
#
memory 32 gb

molecule  {
0 1
  O        0.2506850     2.2433030    -0.0000120
  N       -0.1535360    -0.0391100    -0.0000040
  C       -1.6091660     0.2193680    -0.0000060
  C       -2.2505560    -0.3204400     1.2726240
  C       -2.2505640    -0.3204870    -1.2726120
  C        0.7061140     1.0894960    -0.0000070
  C        0.3060350    -1.3272880     0.0000050
  C        2.1126960     0.7529310    -0.0000050
  C        1.8376967    -1.6599402     0.0000096
  C        2.5632190    -0.5392750     0.0000030
  H       -1.6749870     1.3090010    -0.0000250
  H       -3.3054200    -0.0314760     1.3049310
  H       -2.2011690    -1.4127350     1.3198810
  H       -1.7528960     0.0901600     2.1548740
  H       -1.7529050     0.0900740    -2.1548810
  H       -3.3054260    -0.0315150    -1.3049260
  H       -2.2011880    -1.4127830    -1.3198260
  H       -0.4545900    -2.1014670     0.0000100
  H        2.7949640     1.5970390    -0.0000090
  H        1.9701580    -2.6507840     0.0000170
  H        3.6325460    -0.7390360     0.0000060
units angstrom
no_reorient  #important for SAPT in psi4, default
symmetry c1  #important for SAPT in psi4, default
}

set PROPERTIES_ORIGIN ["COM"]
properties('MP2/aug-cc-pvtz', properties = ['dipole'])
--------------------------------------------------------------------------

    Molecular point group: c1
  Charge       = 0
  Multiplicity = 1
  Basis Set: AUG-CC-PVTZ
    Blend: AUG-CC-PVTZ
  Basis Set: (AUG-CC-PVTZ AUX)
    Blend: AUG-CC-PVTZ-JKFIT

    Orbital Energies [Eh]
    ---------------------

    Doubly Occupied:

       1A    -20.499373     2A    -15.642852     3A    -11.345580
       4A    -11.339744     5A    -11.281265     6A    -11.257579
       7A    -11.244792     8A    -11.234773     9A    -11.234757
      10A    -11.221566    11A     -1.366190    12A     -1.281935
      13A     -1.122150    14A     -1.060816    15A     -1.005368
      16A     -0.956591    17A     -0.906664    18A     -0.856735
      19A     -0.804152    20A     -0.714034    21A     -0.700640
      22A     -0.671119    23A     -0.647142    24A     -0.631250
      25A     -0.623490    26A     -0.590016    27A     -0.567691
      28A     -0.566413    29A     -0.551160    30A     -0.551093
      31A     -0.509213    32A     -0.507097    33A     -0.491424
      34A     -0.466641    35A     -0.418254    36A     -0.411747
      37A     -0.286472

  @DF-RHF Final Energy:  -438.76856266682739

   => Energetics <=

    Nuclear Repulsion Energy =            525.3281098269258109
    One-Electron Energy =               -1637.0577885111322303
    Two-Electron Energy =                 672.9611160173790267
    Total Energy =                       -438.7685626668273926
  Basis Set: (AUG-CC-PVTZ AUX)
    Blend: AUG-CC-PVTZ-RI
    Molecular point group: c1

    Geometry (in Angstrom), charge = 0, multiplicity = 1:

       Center              X                  Y                   Z               Mass
    ------------   -----------------  -----------------  -----------------  -----------------
         O            0.173871338110     2.208789773525    -0.000011588979    15.994914619570
         N           -0.230349661890    -0.073623226475    -0.000003588979    14.003074004430
         C           -1.685979661890     0.184854773525    -0.000005588979    12.000000000000
         C           -2.327369661890    -0.354953226475     1.272624411021    12.000000000000
         C           -2.327377661890    -0.355000226475    -1.272611588979    12.000000000000
         C            0.629300338110     1.054982773525    -0.000006588979    12.000000000000
         C            0.229221338110    -1.361801226475     0.000005411021    12.000000000000
         C            2.035882338110     0.718417773525    -0.000004588979    12.000000000000
         C            1.760883038110    -1.694453426475     0.000010011021    12.000000000000
         C            2.486405338110    -0.573788226475     0.000003411021    12.000000000000
         H           -1.751800661890     1.274487773525    -0.000024588979     1.007825032230
         H           -3.382233661890    -0.065989226475     1.304931411021     1.007825032230
         H           -2.277982661890    -1.447248226475     1.319881411021     1.007825032230
         H           -1.829709661890     0.055646773525     2.154874411021     1.007825032230
         H           -1.829718661890     0.055560773525    -2.154880588979     1.007825032230
         H           -3.382239661890    -0.066028226475    -1.304925588979     1.007825032230
         H           -2.278001661890    -1.447296226475    -1.319825588979     1.007825032230
         H           -0.531403661890    -2.135980226475     0.000010411021     1.007825032230
         H            2.718150338110     1.562525773525    -0.000008588979     1.007825032230
         H            1.893344338110    -2.685297226475     0.000017411021     1.007825032230
         H            3.555732338110    -0.773549226475     0.000006411021     1.007825032230

  Basis Set: AUG-CC-PVTZ
    Blend: AUG-CC-PVTZ
  Basis Set: (AUG-CC-PVTZ AUX)
    Blend: AUG-CC-PVTZ-JKFIT
	 Reference Energy          =    -438.7685626668273926 [Eh]
	 Singles Energy            =      -0.0000000000000000 [Eh]
	 Same-Spin Energy          =      -0.4711932477204538 [Eh]
	 Opposite-Spin Energy      =      -1.5016443448835894 [Eh]
	 Correlation Energy        =      -1.9728375926040433 [Eh]
	 Total Energy              =    -440.7414002594314297 [Eh]

	 ================> DF-SCS-MP2 Energies <==================
	-----------------------------------------------------------
	 SCS Same-Spin Scale       =       0.3333333333333333 [-]
	 SCS Opposite-Spin Scale   =       1.2000000000000000 [-]
	 SCS Same-Spin Energy      =      -0.1570644159068179 [Eh]
	 SCS Opposite-Spin Energy  =      -1.8019732138603073 [Eh]
	 SCS Correlation Energy    =      -1.9590376297671253 [Eh]
	 SCS Total Energy          =    -440.7276002965945167 [Eh]
	-----------------------------------------------------------

  Dipole Moment: [D]
     X:    -1.0073      Y:    -4.0377      Z:     0.0000     Total:     4.1615

*** Psi4 exiting successfully. Buy a developer a beer!
