                               Psi4 1.4a3.dev225

  ==> Input File <==

--------------------------------------------------------------------------
#psi4
#
memory 32 gb

molecule  {
0 1
  O        0.2506850     2.2433030    -0.0000120
  N       -0.1535360    -0.0391100    -0.0000040
  C       -1.6091660     0.2193680    -0.0000060
  C       -2.2505560    -0.3204400     1.2726240
  C       -2.2505640    -0.3204870    -1.2726120
  C        0.7061140     1.0894960    -0.0000070
  C        0.3060350    -1.3272880     0.0000050
  C        2.1126960     0.7529310    -0.0000050
  C        1.6422530    -1.6174930     0.0000090
  C        2.5632190    -0.5392750     0.0000030
  H       -1.6689573     1.2091829    -0.0000233
  H       -3.3054200    -0.0314760     1.3049310
  H       -2.2011690    -1.4127350     1.3198810
  H       -1.7528960     0.0901600     2.1548740
  H       -1.7529050     0.0900740    -2.1548810
  H       -3.3054260    -0.0315150    -1.3049260
  H       -2.2011880    -1.4127830    -1.3198260
  H       -0.4545900    -2.1014670     0.0000100
  H        2.7949640     1.5970390    -0.0000090
  H        1.9701580    -2.6507840     0.0000170
  H        3.6325460    -0.7390360     0.0000060
units angstrom
no_reorient  #important for SAPT in psi4, default
symmetry c1  #important for SAPT in psi4, default
}

set PROPERTIES_ORIGIN ["COM"]
properties('MP2/aug-cc-pvtz', properties = ['dipole'])
--------------------------------------------------------------------------

    Molecular point group: c1
  Charge       = 0
  Multiplicity = 1
  Basis Set: AUG-CC-PVTZ
    Blend: AUG-CC-PVTZ
  Basis Set: (AUG-CC-PVTZ AUX)
    Blend: AUG-CC-PVTZ-JKFIT

    Orbital Energies [Eh]
    ---------------------

    Doubly Occupied:

       1A    -20.505291     2A    -15.620934     3A    -11.349808
       4A    -11.305306     5A    -11.268753     6A    -11.264346
       7A    -11.238116     8A    -11.235047     9A    -11.228882
      10A    -11.228865    11A     -1.366881    12A     -1.277814
      13A     -1.124351    14A     -1.054402    15A     -1.022351
      16A     -0.950997    17A     -0.895753    18A     -0.855710
      19A     -0.812488    20A     -0.716124    21A     -0.699603
      22A     -0.656915    23A     -0.643180    24A     -0.628175
      25A     -0.615171    26A     -0.604315    27A     -0.564402
      28A     -0.562562    29A     -0.548140    30A     -0.544069
      31A     -0.525803    32A     -0.504710    33A     -0.496880
      34A     -0.473539    35A     -0.419068    36A     -0.406485
      37A     -0.306913

  @DF-RHF Final Energy:  -438.81271793538832

   => Energetics <=

    Nuclear Repulsion Energy =            528.4315123383951232
    One-Electron Energy =               -1643.4441618822124838
    Two-Electron Energy =                 676.1999316084290967
    Total Energy =                       -438.8127179353882639
  Basis Set: (AUG-CC-PVTZ AUX)
    Blend: AUG-CC-PVTZ-RI
    Molecular point group: c1

    Geometry (in Angstrom), charge = 0, multiplicity = 1:

       Center              X                  Y                   Z               Mass
    ------------   -----------------  -----------------  -----------------  -----------------
         O            0.190935666738     2.205807900882    -0.000011548955    15.994914619570
         N           -0.213285333262    -0.076605099118    -0.000003548955    14.003074004430
         C           -1.668915333262     0.181872900882    -0.000005548955    12.000000000000
         C           -2.310305333262    -0.357935099118     1.272624451045    12.000000000000
         C           -2.310313333262    -0.357982099118    -1.272611548955    12.000000000000
         C            0.646364666738     1.052000900882    -0.000006548955    12.000000000000
         C            0.246285666738    -1.364783099118     0.000005451045    12.000000000000
         C            2.052946666738     0.715435900882    -0.000004548955    12.000000000000
         C            1.582503666738    -1.654988099118     0.000009451045    12.000000000000
         C            2.503469666738    -0.576770099118     0.000003451045    12.000000000000
         H           -1.728706633262     1.171687800882    -0.000022848955     1.007825032230
         H           -3.365169333262    -0.068971099118     1.304931451045     1.007825032230
         H           -2.260918333262    -1.450230099118     1.319881451045     1.007825032230
         H           -1.812645333262     0.052664900882     2.154874451045     1.007825032230
         H           -1.812654333262     0.052578900882    -2.154880548955     1.007825032230
         H           -3.365175333262    -0.069010099118    -1.304925548955     1.007825032230
         H           -2.260937333262    -1.450278099118    -1.319825548955     1.007825032230
         H           -0.514339333262    -2.138962099118     0.000010451045     1.007825032230
         H            2.735214666738     1.559543900882    -0.000008548955     1.007825032230
         H            1.910408666738    -2.688279099118     0.000017451045     1.007825032230
         H            3.572796666738    -0.776531099118     0.000006451045     1.007825032230

  Basis Set: AUG-CC-PVTZ
    Blend: AUG-CC-PVTZ
  Basis Set: (AUG-CC-PVTZ AUX)
    Blend: AUG-CC-PVTZ-JKFIT
	 Reference Energy          =    -438.8127179353883207 [Eh]
	 Singles Energy            =      -0.0000000000000000 [Eh]
	 Same-Spin Energy          =      -0.4675049404594143 [Eh]
	 Opposite-Spin Energy      =      -1.4962726220540747 [Eh]
	 Correlation Energy        =      -1.9637775625134890 [Eh]
	 Total Energy              =    -440.7764954979018057 [Eh]

	 ================> DF-SCS-MP2 Energies <==================
	-----------------------------------------------------------
	 SCS Same-Spin Scale       =       0.3333333333333333 [-]
	 SCS Opposite-Spin Scale   =       1.2000000000000000 [-]
	 SCS Same-Spin Energy      =      -0.1558349801531381 [Eh]
	 SCS Opposite-Spin Energy  =      -1.7955271464648896 [Eh]
	 SCS Correlation Energy    =      -1.9513621266180277 [Eh]
	 SCS Total Energy          =    -440.7640800620063715 [Eh]
	-----------------------------------------------------------

  Dipole Moment: [D]
     X:    -0.7036      Y:    -3.9014      Z:     0.0000     Total:     3.9643

*** Psi4 exiting successfully. Buy a developer a beer!
