                               Psi4 1.4a3.dev225

  ==> Input File <==

--------------------------------------------------------------------------
#psi4
#
memory 32 gb

molecule  {
0 1
  O        0.2506850     2.2433030    -0.0000120
  N       -0.1535360    -0.0391100    -0.0000040
  C       -1.6091660     0.2193680    -0.0000060
  C       -2.2505560    -0.3204400     1.2726240
  C       -2.2505640    -0.3204870    -1.2726120
  C        0.6939953     1.0735857    -0.0000070
  C        0.3060350    -1.3272880     0.0000050
  C        2.1126960     0.7529310    -0.0000050
  C        1.6422530    -1.6174930     0.0000090
  C        2.5632190    -0.5392750     0.0000030
  H       -1.6749870     1.3090010    -0.0000250
  H       -3.3054200    -0.0314760     1.3049310
  H       -2.2011690    -1.4127350     1.3198810
  H       -1.7528960     0.0901600     2.1548740
  H       -1.7529050     0.0900740    -2.1548810
  H       -3.3054260    -0.0315150    -1.3049260
  H       -2.2011880    -1.4127830    -1.3198260
  H       -0.4545900    -2.1014670     0.0000100
  H        2.7949640     1.5970390    -0.0000090
  H        1.9701580    -2.6507840     0.0000170
  H        3.6325460    -0.7390360     0.0000060
units angstrom
no_reorient  #important for SAPT in psi4, default
symmetry c1  #important for SAPT in psi4, default
}

set PROPERTIES_ORIGIN ["COM"]
properties('MP2/aug-cc-pvtz', properties = ['dipole'])
--------------------------------------------------------------------------

    Molecular point group: c1
  Charge       = 0
  Multiplicity = 1
  Basis Set: AUG-CC-PVTZ
    Blend: AUG-CC-PVTZ
  Basis Set: (AUG-CC-PVTZ AUX)
    Blend: AUG-CC-PVTZ-JKFIT

    Orbital Energies [Eh]
    ---------------------

    Doubly Occupied:

       1A    -20.502376     2A    -15.623484     3A    -11.349226
       4A    -11.305823     5A    -11.275024     6A    -11.268036
       7A    -11.239917     8A    -11.236771     9A    -11.229388
      10A    -11.229373    11A     -1.363168    12A     -1.278215
      13A     -1.123117    14A     -1.052800    15A     -1.023272
      16A     -0.951316    17A     -0.893488    18A     -0.859212
      19A     -0.804136    20A     -0.711930    21A     -0.700194
      22A     -0.655488    23A     -0.641539    24A     -0.630276
      25A     -0.613889    26A     -0.601206    27A     -0.563688
      28A     -0.562649    29A     -0.547860    30A     -0.544269
      31A     -0.523880    32A     -0.504126    33A     -0.488200
      34A     -0.471367    35A     -0.415323    36A     -0.407689
      37A     -0.307706

  @DF-RHF Final Energy:  -438.81756094516271

   => Energetics <=

    Nuclear Repulsion Energy =            528.1092187420654227
    One-Electron Energy =               -1642.8547122605345976
    Two-Electron Energy =                 675.9279325733064070
    Total Energy =                       -438.8175609451627679
  Basis Set: (AUG-CC-PVTZ AUX)
    Blend: AUG-CC-PVTZ-RI
    Molecular point group: c1

    Geometry (in Angstrom), charge = 0, multiplicity = 1:

       Center              X                  Y                   Z               Mass
    ------------   -----------------  -----------------  -----------------  -----------------
         O            0.192040837377     2.206466798915    -0.000011536457    15.994914619570
         N           -0.212180162623    -0.075946201085    -0.000003536457    14.003074004430
         C           -1.667810162623     0.182531798915    -0.000005536457    12.000000000000
         C           -2.309200162623    -0.357276201085     1.272624463543    12.000000000000
         C           -2.309208162623    -0.357323201085    -1.272611536457    12.000000000000
         C            0.635351137377     1.036749498915    -0.000006536457    12.000000000000
         C            0.247390837377    -1.364124201085     0.000005463543    12.000000000000
         C            2.054051837377     0.716094798915    -0.000004536457    12.000000000000
         C            1.583608837377    -1.654329201085     0.000009463543    12.000000000000
         C            2.504574837377    -0.576111201085     0.000003463543    12.000000000000
         H           -1.733631162623     1.272164798915    -0.000024536457     1.007825032230
         H           -3.364064162623    -0.068312201085     1.304931463543     1.007825032230
         H           -2.259813162623    -1.449571201085     1.319881463543     1.007825032230
         H           -1.811540162623     0.053323798915     2.154874463543     1.007825032230
         H           -1.811549162623     0.053237798915    -2.154880536457     1.007825032230
         H           -3.364070162623    -0.068351201085    -1.304925536457     1.007825032230
         H           -2.259832162623    -1.449619201085    -1.319825536457     1.007825032230
         H           -0.513234162623    -2.138303201085     0.000010463543     1.007825032230
         H            2.736319837377     1.560202798915    -0.000008536457     1.007825032230
         H            1.911513837377    -2.687620201085     0.000017463543     1.007825032230
         H            3.573901837377    -0.775872201085     0.000006463543     1.007825032230

  Basis Set: AUG-CC-PVTZ
    Blend: AUG-CC-PVTZ
  Basis Set: (AUG-CC-PVTZ AUX)
    Blend: AUG-CC-PVTZ-JKFIT
	 Reference Energy          =    -438.8175609451627111 [Eh]
	 Singles Energy            =      -0.0000000000000000 [Eh]
	 Same-Spin Energy          =      -0.4679042462966394 [Eh]
	 Opposite-Spin Energy      =      -1.4973606649258140 [Eh]
	 Correlation Energy        =      -1.9652649112224534 [Eh]
	 Total Energy              =    -440.7828258563851591 [Eh]

	 ================> DF-SCS-MP2 Energies <==================
	-----------------------------------------------------------
	 SCS Same-Spin Scale       =       0.3333333333333333 [-]
	 SCS Opposite-Spin Scale   =       1.2000000000000000 [-]
	 SCS Same-Spin Energy      =      -0.1559680820988798 [Eh]
	 SCS Opposite-Spin Energy  =      -1.7968327979109768 [Eh]
	 SCS Correlation Energy    =      -1.9528008800098566 [Eh]
	 SCS Total Energy          =    -440.7703618251725857 [Eh]
	-----------------------------------------------------------

  Dipole Moment: [D]
     X:    -0.6767      Y:    -3.9806      Z:     0.0000     Total:     4.0377

*** Psi4 exiting successfully. Buy a developer a beer!
