                               Psi4 1.4a3.dev225

  ==> Input File <==

--------------------------------------------------------------------------
#psi4
#
memory 32 gb

molecule  {
0 1
  O        0.2506850     2.2433030    -0.0000120
  N       -0.1535360    -0.0391100    -0.0000040
  C       -1.6091660     0.2193680    -0.0000060
  C       -2.2505560    -0.3204400     1.2726240
  C       -2.2505640    -0.3204870    -1.2726120
  C        0.7061140     1.0894960    -0.0000070
  C        0.3060350    -1.3272880     0.0000050
  C        2.1126960     0.7529310    -0.0000050
  C        1.6422530    -1.6174930     0.0000090
  C        2.5307449    -0.5772939     0.0000032
  H       -1.6749870     1.3090010    -0.0000250
  H       -3.3054200    -0.0314760     1.3049310
  H       -2.2011690    -1.4127350     1.3198810
  H       -1.7528960     0.0901600     2.1548740
  H       -1.7529050     0.0900740    -2.1548810
  H       -3.3054260    -0.0315150    -1.3049260
  H       -2.2011880    -1.4127830    -1.3198260
  H       -0.4545900    -2.1014670     0.0000100
  H        2.7949640     1.5970390    -0.0000090
  H        1.9701580    -2.6507840     0.0000170
  H        3.6325460    -0.7390360     0.0000060
units angstrom
no_reorient  #important for SAPT in psi4, default
symmetry c1  #important for SAPT in psi4, default
}

set PROPERTIES_ORIGIN ["COM"]
properties('MP2/aug-cc-pvtz', properties = ['dipole'])
--------------------------------------------------------------------------

    Molecular point group: c1
  Charge       = 0
  Multiplicity = 1
  Basis Set: AUG-CC-PVTZ
    Blend: AUG-CC-PVTZ
  Basis Set: (AUG-CC-PVTZ AUX)
    Blend: AUG-CC-PVTZ-JKFIT

    Orbital Energies [Eh]
    ---------------------

    Doubly Occupied:

       1A    -20.501462     2A    -15.624915     3A    -11.346721
       4A    -11.309590     5A    -11.275153     6A    -11.269259
       7A    -11.235589     8A    -11.235022     9A    -11.229709
      10A    -11.229694    11A     -1.365189    12A     -1.278786
      13A     -1.126960    14A     -1.052415    15A     -1.021846
      16A     -0.951575    17A     -0.897622    18A     -0.853095
      19A     -0.804608    20A     -0.712949    21A     -0.701798
      22A     -0.653463    23A     -0.639511    24A     -0.628954
      25A     -0.614187    26A     -0.602676    27A     -0.563022
      28A     -0.558963    29A     -0.548764    30A     -0.548361
      31A     -0.524205    32A     -0.504929    33A     -0.488357
      34A     -0.476355    35A     -0.414187    36A     -0.406952
      37A     -0.304202

  @DF-RHF Final Energy:  -438.81317376988528

   => Energetics <=

    Nuclear Repulsion Energy =            528.3920219508814853
    One-Electron Energy =               -1643.4083006659423063
    Two-Electron Energy =                 676.2031049451753688
    Total Energy =                       -438.8131737698853385
  Basis Set: (AUG-CC-PVTZ AUX)
    Blend: AUG-CC-PVTZ-RI
    Molecular point group: c1

    Geometry (in Angstrom), charge = 0, multiplicity = 1:

       Center              X                  Y                   Z               Mass
    ------------   -----------------  -----------------  -----------------  -----------------
         O            0.193822698762     2.208402131092    -0.000011553964    15.994914619570
         N           -0.210398301238    -0.074010868908    -0.000003553964    14.003074004430
         C           -1.666028301238     0.184467131092    -0.000005553964    12.000000000000
         C           -2.307418301238    -0.355340868908     1.272624446036    12.000000000000
         C           -2.307426301238    -0.355387868908    -1.272611553964    12.000000000000
         C            0.649251698762     1.054595131092    -0.000006553964    12.000000000000
         C            0.249172698762    -1.362188868908     0.000005446036    12.000000000000
         C            2.055833698762     0.718030131092    -0.000004553964    12.000000000000
         C            1.585390698762    -1.652393868908     0.000009446036    12.000000000000
         C            2.473882598762    -0.612194768908     0.000003646036    12.000000000000
         H           -1.731849301238     1.274100131092    -0.000024553964     1.007825032230
         H           -3.362282301238    -0.066376868908     1.304931446036     1.007825032230
         H           -2.258031301238    -1.447635868908     1.319881446036     1.007825032230
         H           -1.809758301238     0.055259131092     2.154874446036     1.007825032230
         H           -1.809767301238     0.055173131092    -2.154880553964     1.007825032230
         H           -3.362288301238    -0.066415868908    -1.304925553964     1.007825032230
         H           -2.258050301238    -1.447683868908    -1.319825553964     1.007825032230
         H           -0.511452301238    -2.136367868908     0.000010446036     1.007825032230
         H            2.738101698762     1.562138131092    -0.000008553964     1.007825032230
         H            1.913295698762    -2.685684868908     0.000017446036     1.007825032230
         H            3.575683698762    -0.773936868908     0.000006446036     1.007825032230

  Basis Set: AUG-CC-PVTZ
    Blend: AUG-CC-PVTZ
  Basis Set: (AUG-CC-PVTZ AUX)
    Blend: AUG-CC-PVTZ-JKFIT
	 Reference Energy          =    -438.8131737698852817 [Eh]
	 Singles Energy            =      -0.0000000000000000 [Eh]
	 Same-Spin Energy          =      -0.4690784687331050 [Eh]
	 Opposite-Spin Energy      =      -1.4981221765804846 [Eh]
	 Correlation Energy        =      -1.9672006453135897 [Eh]
	 Total Energy              =    -440.7803744151988781 [Eh]

	 ================> DF-SCS-MP2 Energies <==================
	-----------------------------------------------------------
	 SCS Same-Spin Scale       =       0.3333333333333333 [-]
	 SCS Opposite-Spin Scale   =       1.2000000000000000 [-]
	 SCS Same-Spin Energy      =      -0.1563594895777017 [Eh]
	 SCS Opposite-Spin Energy  =      -1.7977466118965815 [Eh]
	 SCS Correlation Energy    =      -1.9541061014742831 [Eh]
	 SCS Total Energy          =    -440.7672798713595625 [Eh]
	-----------------------------------------------------------

  Dipole Moment: [D]
     X:    -0.7389      Y:    -3.9628      Z:     0.0000     Total:     4.0311

*** Psi4 exiting successfully. Buy a developer a beer!
