                               Psi4 1.4a3.dev225

  ==> Input File <==

--------------------------------------------------------------------------
#psi4
#
memory 32 gb

molecule  {
0 1
  O        0.2506850     2.2433030    -0.0000120
  N       -0.1535360    -0.0391100    -0.0000040
  C       -1.6091660     0.2193680    -0.0000060
  C       -2.2505560    -0.3204400     1.2726240
  C       -2.2505640    -0.3204870    -1.2726120
  C        0.7061140     1.0894960    -0.0000070
  C        0.3060350    -1.3272880     0.0000050
  C        2.1126960     0.7529310    -0.0000050
  C        1.6422530    -1.6174930     0.0000090
  C        2.5632190    -0.5392750     0.0000030
  H       -1.6749870     1.3090010    -0.0000250
  H       -3.3054200    -0.0314760     1.3049310
  H       -2.2011690    -1.4127350     1.3198810
  H       -1.7528960     0.0901600     2.1548740
  H       -1.7529050     0.0900740    -2.1548810
  H       -3.3054260    -0.0315150    -1.3049260
  H       -2.2011880    -1.4127830    -1.3198260
  H       -0.4545900    -2.1014670     0.0000100
  H        2.7949640     1.5970390    -0.0000090
  H        1.9701580    -2.6507840     0.0000170
  H        3.6522059    -0.7427087     0.0000061
units angstrom
no_reorient  #important for SAPT in psi4, default
symmetry c1  #important for SAPT in psi4, default
}

set PROPERTIES_ORIGIN ["COM"]
properties('MP2/aug-cc-pvtz', properties = ['dipole'])
--------------------------------------------------------------------------

    Molecular point group: c1
  Charge       = 0
  Multiplicity = 1
  Basis Set: AUG-CC-PVTZ
    Blend: AUG-CC-PVTZ
  Basis Set: (AUG-CC-PVTZ AUX)
    Blend: AUG-CC-PVTZ-JKFIT

    Orbital Energies [Eh]
    ---------------------

    Doubly Occupied:

       1A    -20.505512     2A    -15.621546     3A    -11.350082
       4A    -11.305755     5A    -11.274227     6A    -11.271184
       7A    -11.238512     8A    -11.235365     9A    -11.228806
      10A    -11.228790    11A     -1.367074    12A     -1.277686
      13A     -1.122320    14A     -1.051034    15A     -1.022620
      16A     -0.950698    17A     -0.892602    18A     -0.855410
      19A     -0.803408    20A     -0.710900    21A     -0.699365
      22A     -0.654680    23A     -0.639805    24A     -0.628221
      25A     -0.613029    26A     -0.604335    27A     -0.562934
      28A     -0.562177    29A     -0.547990    30A     -0.543896
      31A     -0.524063    32A     -0.504645    33A     -0.486808
      34A     -0.473872    35A     -0.417727    36A     -0.406706
      37A     -0.307244

  @DF-RHF Final Energy:  -438.81732673827594

   => Energetics <=

    Nuclear Repulsion Energy =            527.8147793163749384
    One-Electron Energy =               -1642.2821514263528115
    Two-Electron Energy =                 675.6500453717020491
    Total Energy =                       -438.8173267382759377
  Basis Set: (AUG-CC-PVTZ AUX)
    Blend: AUG-CC-PVTZ-RI
    Molecular point group: c1

    Geometry (in Angstrom), charge = 0, multiplicity = 1:

       Center              X                  Y                   Z               Mass
    ------------   -----------------  -----------------  -----------------  -----------------
         O            0.190835459199     2.205101051828    -0.000011537192    15.994914619570
         N           -0.213385540801    -0.077311948172    -0.000003537192    14.003074004430
         C           -1.669015540801     0.181166051828    -0.000005537192    12.000000000000
         C           -2.310405540801    -0.358641948172     1.272624462808    12.000000000000
         C           -2.310413540801    -0.358688948172    -1.272611537192    12.000000000000
         C            0.646264459199     1.051294051828    -0.000006537192    12.000000000000
         C            0.246185459199    -1.365489948172     0.000005462808    12.000000000000
         C            2.052846459199     0.714729051828    -0.000004537192    12.000000000000
         C            1.582403459199    -1.655694948172     0.000009462808    12.000000000000
         C            2.503369459199    -0.577476948172     0.000003462808    12.000000000000
         H           -1.734836540801     1.270799051828    -0.000024537192     1.007825032230
         H           -3.365269540801    -0.069677948172     1.304931462808     1.007825032230
         H           -2.261018540801    -1.450936948172     1.319881462808     1.007825032230
         H           -1.812745540801     0.051958051828     2.154874462808     1.007825032230
         H           -1.812754540801     0.051872051828    -2.154880537192     1.007825032230
         H           -3.365275540801    -0.069716948172    -1.304925537192     1.007825032230
         H           -2.261037540801    -1.450984948172    -1.319825537192     1.007825032230
         H           -0.514439540801    -2.139668948172     0.000010462808     1.007825032230
         H            2.735114459199     1.558837051828    -0.000008537192     1.007825032230
         H            1.910308459199    -2.688985948172     0.000017462808     1.007825032230
         H            3.592356359199    -0.780910648172     0.000006562808     1.007825032230

  Basis Set: AUG-CC-PVTZ
    Blend: AUG-CC-PVTZ
  Basis Set: (AUG-CC-PVTZ AUX)
    Blend: AUG-CC-PVTZ-JKFIT
	 Reference Energy          =    -438.8173267382759377 [Eh]
	 Singles Energy            =      -0.0000000000000000 [Eh]
	 Same-Spin Energy          =      -0.4680087871339901 [Eh]
	 Opposite-Spin Energy      =      -1.4974372620764194 [Eh]
	 Correlation Energy        =      -1.9654460492104096 [Eh]
	 Total Energy              =    -440.7827727874863513 [Eh]

	 ================> DF-SCS-MP2 Energies <==================
	-----------------------------------------------------------
	 SCS Same-Spin Scale       =       0.3333333333333333 [-]
	 SCS Opposite-Spin Scale   =       1.2000000000000000 [-]
	 SCS Same-Spin Energy      =      -0.1560029290446634 [Eh]
	 SCS Opposite-Spin Energy  =      -1.7969247144917031 [Eh]
	 SCS Correlation Energy    =      -1.9529276435363665 [Eh]
	 SCS Total Energy          =    -440.7702543818123218 [Eh]
	-----------------------------------------------------------

  Dipole Moment: [D]
     X:    -0.6737      Y:    -3.8685      Z:     0.0000     Total:     3.9267

*** Psi4 exiting successfully. Buy a developer a beer!
