                               Psi4 1.4a3.dev225

  ==> Input File <==

--------------------------------------------------------------------------
#psi4
#
memory 32 gb

molecule  {
0 1
  O        0.2506850     2.2433030    -0.0000120
  N       -0.1535360    -0.0391100    -0.0000040
  C       -1.6091660     0.2193680    -0.0000060
  C       -2.2505560    -0.3204400     1.2726240
  C       -2.2505640    -0.3204870    -1.2726120
  C        0.7061140     1.0894960    -0.0000070
  C        0.3060350    -1.3272880     0.0000050
  C        2.1126960     0.7529310    -0.0000050
  C        1.6422530    -1.6174930     0.0000090
  C        2.5632190    -0.5392750     0.0000030
  H       -1.6749870     1.3090010    -0.0000250
  H       -3.3054200    -0.0314760     1.3049310
  H       -2.2011690    -1.4127350     1.3198810
  H       -1.7073639     0.1277267     2.2355931
  H       -1.7529050     0.0900740    -2.1548810
  H       -3.3054260    -0.0315150    -1.3049260
  H       -2.2011880    -1.4127830    -1.3198260
  H       -0.4545900    -2.1014670     0.0000100
  H        2.7949640     1.5970390    -0.0000090
  H        1.9701580    -2.6507840     0.0000170
  H        3.6325460    -0.7390360     0.0000060
units angstrom
no_reorient  #important for SAPT in psi4, default
symmetry c1  #important for SAPT in psi4, default
}

set PROPERTIES_ORIGIN ["COM"]
properties('MP2/aug-cc-pvtz', properties = ['dipole'])
--------------------------------------------------------------------------

    Molecular point group: c1
  Charge       = 0
  Multiplicity = 1
  Basis Set: AUG-CC-PVTZ
    Blend: AUG-CC-PVTZ
  Basis Set: (AUG-CC-PVTZ AUX)
    Blend: AUG-CC-PVTZ-JKFIT

    Orbital Energies [Eh]
    ---------------------

    Doubly Occupied:

       1A    -20.505413     2A    -15.621497     3A    -11.349949
       4A    -11.305690     5A    -11.275232     6A    -11.268911
       7A    -11.240354     8A    -11.238332     9A    -11.235229
      10A    -11.229771    11A     -1.366968    12A     -1.277618
      13A     -1.122434    14A     -1.050562    15A     -1.022506
      16A     -0.945687    17A     -0.892827    18A     -0.855646
      19A     -0.802952    20A     -0.711550    21A     -0.699398
      22A     -0.654430    23A     -0.641210    24A     -0.628464
      25A     -0.606648    26A     -0.603758    27A     -0.564690
      28A     -0.560571    29A     -0.547454    30A     -0.542786
      31A     -0.524575    32A     -0.497974    33A     -0.485601
      34A     -0.473399    35A     -0.417778    36A     -0.406796
      37A     -0.307140

  @DF-RHF Final Energy:  -438.81141794390527

   => Energetics <=

    Nuclear Repulsion Energy =            527.5210489745768427
    One-Electron Energy =               -1641.7013314351120243
    Two-Electron Energy =                 675.3688645166299693
    Total Energy =                       -438.8114179439052123
  Basis Set: (AUG-CC-PVTZ AUX)
    Blend: AUG-CC-PVTZ-RI
    Molecular point group: c1

    Geometry (in Angstrom), charge = 0, multiplicity = 1:

       Center              X                  Y                   Z               Mass
    ------------   -----------------  -----------------  -----------------  -----------------
         O            0.190645249994     2.204797864876    -0.000604973266    15.994914619570
         N           -0.213575750006    -0.077615135124    -0.000596973266    14.003074004430
         C           -1.669205750006     0.180862864876    -0.000598973266    12.000000000000
         C           -2.310595750006    -0.358945135124     1.272031026734    12.000000000000
         C           -2.310603750006    -0.358992135124    -1.273204973266    12.000000000000
         C            0.646074249994     1.050990864876    -0.000599973266    12.000000000000
         C            0.245995249994    -1.365793135124    -0.000587973266    12.000000000000
         C            2.052656249994     0.714425864876    -0.000597973266    12.000000000000
         C            1.582213249994    -1.655998135124    -0.000583973266    12.000000000000
         C            2.503179249994    -0.577780135124    -0.000589973266    12.000000000000
         H           -1.735026750006     1.270495864876    -0.000617973266     1.007825032230
         H           -3.365459750006    -0.069981135124     1.304338026734     1.007825032230
         H           -2.261208750006    -1.451240135124     1.319288026734     1.007825032230
         H           -1.767403650006     0.089221564876     2.235000126734     1.007825032230
         H           -1.812944750006     0.051568864876    -2.155473973266     1.007825032230
         H           -3.365465750006    -0.070020135124    -1.305518973266     1.007825032230
         H           -2.261227750006    -1.451288135124    -1.320418973266     1.007825032230
         H           -0.514629750006    -2.139972135124    -0.000582973266     1.007825032230
         H            2.734924249994     1.558533864876    -0.000601973266     1.007825032230
         H            1.910118249994    -2.689289135124    -0.000575973266     1.007825032230
         H            3.572506249994    -0.777541135124    -0.000586973266     1.007825032230

  Basis Set: AUG-CC-PVTZ
    Blend: AUG-CC-PVTZ
  Basis Set: (AUG-CC-PVTZ AUX)
    Blend: AUG-CC-PVTZ-JKFIT
	 Reference Energy          =    -438.8114179439052691 [Eh]
	 Singles Energy            =      -0.0000000000000000 [Eh]
	 Same-Spin Energy          =      -0.4679894097172117 [Eh]
	 Opposite-Spin Energy      =      -1.4980275736510622 [Eh]
	 Correlation Energy        =      -1.9660169833682739 [Eh]
	 Total Energy              =    -440.7774349272735321 [Eh]

	 ================> DF-SCS-MP2 Energies <==================
	-----------------------------------------------------------
	 SCS Same-Spin Scale       =       0.3333333333333333 [-]
	 SCS Opposite-Spin Scale   =       1.2000000000000000 [-]
	 SCS Same-Spin Energy      =      -0.1559964699057372 [Eh]
	 SCS Opposite-Spin Energy  =      -1.7976330883812746 [Eh]
	 SCS Correlation Energy    =      -1.9536295582870118 [Eh]
	 SCS Total Energy          =    -440.7650475021922603 [Eh]
	-----------------------------------------------------------

  Dipole Moment: [D]
     X:    -0.6781      Y:    -3.8794      Z:    -0.0536     Total:     3.9386

*** Psi4 exiting successfully. Buy a developer a beer!
