                               Psi4 1.4a3.dev225

  ==> Input File <==

--------------------------------------------------------------------------
#psi4
#
memory 32 gb

molecule  {
0 1
  O        0.2506850     2.2433030    -0.0000120
  N       -0.1489443     0.0073458    -0.0920319
  C       -1.6091660     0.2193680    -0.0000060
  C       -2.2505560    -0.3204400     1.2726240
  C       -2.2505640    -0.3204870    -1.2726120
  C        0.7061140     1.0894960    -0.0000070
  C        0.3060350    -1.3272880     0.0000050
  C        2.1126960     0.7529310    -0.0000050
  C        1.6422530    -1.6174930     0.0000090
  C        2.5632190    -0.5392750     0.0000030
  H       -1.6749870     1.3090010    -0.0000250
  H       -3.3054200    -0.0314760     1.3049310
  H       -2.2011690    -1.4127350     1.3198810
  H       -1.7528960     0.0901600     2.1548740
  H       -1.7529050     0.0900740    -2.1548810
  H       -3.3054260    -0.0315150    -1.3049260
  H       -2.2011880    -1.4127830    -1.3198260
  H       -0.4545900    -2.1014670     0.0000100
  H        2.7949640     1.5970390    -0.0000090
  H        1.9701580    -2.6507840     0.0000170
  H        3.6325460    -0.7390360     0.0000060
units angstrom
no_reorient  #important for SAPT in psi4, default
symmetry c1  #important for SAPT in psi4, default
}

set PROPERTIES_ORIGIN ["COM"]
properties('MP2/aug-cc-pvtz', properties = ['dipole'])
--------------------------------------------------------------------------

    Molecular point group: c1
  Charge       = 0
  Multiplicity = 1
  Basis Set: AUG-CC-PVTZ
    Blend: AUG-CC-PVTZ
  Basis Set: (AUG-CC-PVTZ AUX)
    Blend: AUG-CC-PVTZ-JKFIT

    Orbital Energies [Eh]
    ---------------------

    Doubly Occupied:

       1A    -20.500084     2A    -15.619461     3A    -11.345015
       4A    -11.307575     5A    -11.272661     6A    -11.269513
       7A    -11.243362     8A    -11.238123     9A    -11.230318
      10A    -11.226113    11A     -1.367287    12A     -1.268799
      13A     -1.123512    14A     -1.050617    15A     -1.024330
      16A     -0.949911    17A     -0.893799    18A     -0.855303
      19A     -0.801742    20A     -0.709807    21A     -0.702000
      22A     -0.656753    23A     -0.636869    24A     -0.626817
      25A     -0.613748    26A     -0.603652    27A     -0.563464
      28A     -0.561301    29A     -0.547822    30A     -0.545414
      31A     -0.521049    32A     -0.502316    33A     -0.486657
      34A     -0.469303    35A     -0.416049    36A     -0.405316
      37A     -0.311674

  @DF-RHF Final Energy:  -438.81386737061047

   => Energetics <=

    Nuclear Repulsion Energy =            527.8772571501921220
    One-Electron Energy =               -1642.4471702120190457
    Two-Electron Energy =                 675.7560456912162863
    Total Energy =                       -438.8138673706105237
  Basis Set: (AUG-CC-PVTZ AUX)
    Blend: AUG-CC-PVTZ-RI
    Molecular point group: c1

    Geometry (in Angstrom), charge = 0, multiplicity = 1:

       Center              X                  Y                   Z               Mass
    ------------   -----------------  -----------------  -----------------  -----------------
         O            0.190510956304     2.200328612018     0.009389071147    15.994914619570
         N           -0.209118343696    -0.035628587982    -0.082630828853    14.003074004430
         C           -1.669340043696     0.176393612018     0.009395071147    12.000000000000
         C           -2.310730043696    -0.363414387982     1.282025071147    12.000000000000
         C           -2.310738043696    -0.363461387982    -1.263210928853    12.000000000000
         C            0.645939956304     1.046521612018     0.009394071147    12.000000000000
         C            0.245860956304    -1.370262387982     0.009406071147    12.000000000000
         C            2.052521956304     0.709956612018     0.009396071147    12.000000000000
         C            1.582078956304    -1.660467387982     0.009410071147    12.000000000000
         C            2.503044956304    -0.582249387982     0.009404071147    12.000000000000
         H           -1.735161043696     1.266026612018     0.009376071147     1.007825032230
         H           -3.365594043696    -0.074450387982     1.314332071147     1.007825032230
         H           -2.261343043696    -1.455709387982     1.329282071147     1.007825032230
         H           -1.813070043696     0.047185612018     2.164275071147     1.007825032230
         H           -1.813079043696     0.047099612018    -2.145479928853     1.007825032230
         H           -3.365600043696    -0.074489387982    -1.295524928853     1.007825032230
         H           -2.261362043696    -1.455757387982    -1.310424928853     1.007825032230
         H           -0.514764043696    -2.144441387982     0.009411071147     1.007825032230
         H            2.734789956304     1.554064612018     0.009392071147     1.007825032230
         H            1.909983956304    -2.693758387982     0.009418071147     1.007825032230
         H            3.572371956304    -0.782010387982     0.009407071147     1.007825032230

  Basis Set: AUG-CC-PVTZ
    Blend: AUG-CC-PVTZ
  Basis Set: (AUG-CC-PVTZ AUX)
    Blend: AUG-CC-PVTZ-JKFIT
	 Reference Energy          =    -438.8138673706104669 [Eh]
	 Singles Energy            =      -0.0000000000000000 [Eh]
	 Same-Spin Energy          =      -0.4673374202747535 [Eh]
	 Opposite-Spin Energy      =      -1.4972880034405751 [Eh]
	 Correlation Energy        =      -1.9646254237153287 [Eh]
	 Total Energy              =    -440.7784927943258140 [Eh]

	 ================> DF-SCS-MP2 Energies <==================
	-----------------------------------------------------------
	 SCS Same-Spin Scale       =       0.3333333333333333 [-]
	 SCS Opposite-Spin Scale   =       1.2000000000000000 [-]
	 SCS Same-Spin Energy      =      -0.1557791400915845 [Eh]
	 SCS Opposite-Spin Energy  =      -1.7967456041286900 [Eh]
	 SCS Correlation Energy    =      -1.9525247442202744 [Eh]
	 SCS Total Energy          =    -440.7663921148307509 [Eh]
	-----------------------------------------------------------

  Dipole Moment: [D]
     X:    -0.5336      Y:    -4.0332      Z:     0.0868     Total:     4.0692

*** Psi4 exiting successfully. Buy a developer a beer!
