                               Psi4 1.4a3.dev225

  ==> Input File <==

--------------------------------------------------------------------------
#psi4
#
memory 32 gb

molecule  {
0 1
  O        0.2506850     2.2433030    -0.0000120
  N       -0.1535360    -0.0391100    -0.0000040
  C       -1.6091660     0.2193680    -0.0000060
  C       -2.2505560    -0.3204400     1.2726240
  C       -2.2505640    -0.3204870    -1.2726120
  C        0.7061140     1.0894960    -0.0000070
  C        0.3060350    -1.3272880     0.0000050
  C        2.3072053     0.7063891    -0.0000047
  C        1.6422530    -1.6174930     0.0000090
  C        2.5632190    -0.5392750     0.0000030
  H       -1.6749870     1.3090010    -0.0000250
  H       -3.3054200    -0.0314760     1.3049310
  H       -2.2011690    -1.4127350     1.3198810
  H       -1.7528960     0.0901600     2.1548740
  H       -1.7529050     0.0900740    -2.1548810
  H       -3.3054260    -0.0315150    -1.3049260
  H       -2.2011880    -1.4127830    -1.3198260
  H       -0.4545900    -2.1014670     0.0000100
  H        2.7949640     1.5970390    -0.0000090
  H        1.9701580    -2.6507840     0.0000170
  H        3.6325460    -0.7390360     0.0000060
units angstrom
no_reorient  #important for SAPT in psi4, default
symmetry c1  #important for SAPT in psi4, default
}

set PROPERTIES_ORIGIN ["COM"]
properties('MP2/aug-cc-pvtz', properties = ['dipole'])
--------------------------------------------------------------------------

    Molecular point group: c1
  Charge       = 0
  Multiplicity = 1
  Basis Set: AUG-CC-PVTZ
    Blend: AUG-CC-PVTZ
  Basis Set: (AUG-CC-PVTZ AUX)
    Blend: AUG-CC-PVTZ-JKFIT

    Orbital Energies [Eh]
    ---------------------

    Doubly Occupied:

       1A    -20.520908     2A    -15.615539     3A    -11.362984
       4A    -11.301115     5A    -11.273425     6A    -11.248053
       7A    -11.239103     8A    -11.235398     9A    -11.227775
      10A    -11.227759    11A     -1.370401    12A     -1.276397
      13A     -1.126041    14A     -1.057358    15A     -1.015410
      16A     -0.949774    17A     -0.881562    18A     -0.854834
      19A     -0.798899    20A     -0.712318    21A     -0.700202
      22A     -0.662047    23A     -0.644037    24A     -0.625294
      25A     -0.613159    26A     -0.597038    27A     -0.573705
      28A     -0.560501    29A     -0.550131    30A     -0.545673
      31A     -0.520174    32A     -0.503493    33A     -0.484645
      34A     -0.478116    35A     -0.421411    36A     -0.403016
      37A     -0.308814

  @DF-RHF Final Energy:  -438.78431853388156

   => Energetics <=

    Nuclear Repulsion Energy =            525.3936079266112529
    One-Electron Energy =               -1637.3828294662876033
    Two-Electron Energy =                 673.2049030057946766
    Total Energy =                       -438.7843185338815601
  Basis Set: (AUG-CC-PVTZ AUX)
    Blend: AUG-CC-PVTZ-RI
    Molecular point group: c1

    Geometry (in Angstrom), charge = 0, multiplicity = 1:

       Center              X                  Y                   Z               Mass
    ------------   -----------------  -----------------  -----------------  -----------------
         O            0.173953133176     2.209148213438    -0.000011562718    15.994914619570
         N           -0.230267866824    -0.073264786562    -0.000003562718    14.003074004430
         C           -1.685897866824     0.185213213438    -0.000005562718    12.000000000000
         C           -2.327287866824    -0.354594786562     1.272624437282    12.000000000000
         C           -2.327295866824    -0.354641786562    -1.272611562718    12.000000000000
         C            0.629382133176     1.055341213438    -0.000006562718    12.000000000000
         C            0.229303133176    -1.361442786562     0.000005437282    12.000000000000
         C            2.230473433176     0.672234313438    -0.000004262718    12.000000000000
         C            1.565521133176    -1.651647786562     0.000009437282    12.000000000000
         C            2.486487133176    -0.573429786562     0.000003437282    12.000000000000
         H           -1.751718866824     1.274846213438    -0.000024562718     1.007825032230
         H           -3.382151866824    -0.065630786562     1.304931437282     1.007825032230
         H           -2.277900866824    -1.446889786562     1.319881437282     1.007825032230
         H           -1.829627866824     0.056005213438     2.154874437282     1.007825032230
         H           -1.829636866824     0.055919213438    -2.154880562718     1.007825032230
         H           -3.382157866824    -0.065669786562    -1.304925562718     1.007825032230
         H           -2.277919866824    -1.446937786562    -1.319825562718     1.007825032230
         H           -0.531321866824    -2.135621786562     0.000010437282     1.007825032230
         H            2.718232133176     1.562884213438    -0.000008562718     1.007825032230
         H            1.893426133176    -2.684938786562     0.000017437282     1.007825032230
         H            3.555814133176    -0.773190786562     0.000006437282     1.007825032230

  Basis Set: AUG-CC-PVTZ
    Blend: AUG-CC-PVTZ
  Basis Set: (AUG-CC-PVTZ AUX)
    Blend: AUG-CC-PVTZ-JKFIT
	 Reference Energy          =    -438.7843185338815601 [Eh]
	 Singles Energy            =      -0.0000000000000000 [Eh]
	 Same-Spin Energy          =      -0.4653977872129514 [Eh]
	 Opposite-Spin Energy      =      -1.4960928150557955 [Eh]
	 Correlation Energy        =      -1.9614906022687468 [Eh]
	 Total Energy              =    -440.7458091361502852 [Eh]

	 ================> DF-SCS-MP2 Energies <==================
	-----------------------------------------------------------
	 SCS Same-Spin Scale       =       0.3333333333333333 [-]
	 SCS Opposite-Spin Scale   =       1.2000000000000000 [-]
	 SCS Same-Spin Energy      =      -0.1551325957376505 [Eh]
	 SCS Opposite-Spin Energy  =      -1.7953113780669545 [Eh]
	 SCS Correlation Energy    =      -1.9504439738046049 [Eh]
	 SCS Total Energy          =    -440.7347625076861846 [Eh]
	-----------------------------------------------------------

  Dipole Moment: [D]
     X:    -0.7802      Y:    -3.3747      Z:     0.0000     Total:     3.4637

*** Psi4 exiting successfully. Buy a developer a beer!
