                               Psi4 1.4a3.dev225

  ==> Input File <==

--------------------------------------------------------------------------
#psi4
#
memory 32 gb

molecule  {
0 1
  O        0.2506850     2.2433030    -0.0000120
  N       -0.1535360    -0.0391100    -0.0000040
  C       -1.6091660     0.2193680    -0.0000060
  C       -2.2505560    -0.3204400     1.2726240
  C       -2.2505640    -0.3204870    -1.2726120
  C        0.7061140     1.0894960    -0.0000070
  C        0.3060350    -1.3272880     0.0000050
  C        2.0154414     0.7762020    -0.0000051
  C        1.6422530    -1.6174930     0.0000090
  C        2.5632190    -0.5392750     0.0000030
  H       -1.6749870     1.3090010    -0.0000250
  H       -3.3054200    -0.0314760     1.3049310
  H       -2.2011690    -1.4127350     1.3198810
  H       -1.7528960     0.0901600     2.1548740
  H       -1.7529050     0.0900740    -2.1548810
  H       -3.3054260    -0.0315150    -1.3049260
  H       -2.2011880    -1.4127830    -1.3198260
  H       -0.4545900    -2.1014670     0.0000100
  H        2.7949640     1.5970390    -0.0000090
  H        1.9701580    -2.6507840     0.0000170
  H        3.6325460    -0.7390360     0.0000060
units angstrom
no_reorient  #important for SAPT in psi4, default
symmetry c1  #important for SAPT in psi4, default
}

set PROPERTIES_ORIGIN ["COM"]
properties('MP2/aug-cc-pvtz', properties = ['dipole'])
--------------------------------------------------------------------------

    Molecular point group: c1
  Charge       = 0
  Multiplicity = 1
  Basis Set: AUG-CC-PVTZ
    Blend: AUG-CC-PVTZ
  Basis Set: (AUG-CC-PVTZ AUX)
    Blend: AUG-CC-PVTZ-JKFIT

    Orbital Energies [Eh]
    ---------------------

    Doubly Occupied:

       1A    -20.492295     2A    -15.625005     3A    -11.334777
       4A    -11.310623     5A    -11.282653     6A    -11.274215
       7A    -11.241527     8A    -11.232174     9A    -11.229263
      10A    -11.229247    11A     -1.363579    12A     -1.276989
      13A     -1.123010    14A     -1.049020    15A     -1.031118
      16A     -0.951068    17A     -0.904615    18A     -0.852538
      19A     -0.807253    20A     -0.713582    21A     -0.701768
      22A     -0.657243    23A     -0.634742    24A     -0.629749
      25A     -0.613072    26A     -0.603346    27A     -0.568935
      28A     -0.563140    29A     -0.549199    30A     -0.532263
      31A     -0.519581    32A     -0.505094    33A     -0.485447
      34A     -0.472202    35A     -0.414313    36A     -0.399948
      37A     -0.307507

  @DF-RHF Final Energy:  -438.80157902446683

   => Energetics <=

    Nuclear Repulsion Energy =            529.3825056283610593
    One-Electron Energy =               -1645.4039682394275133
    Two-Electron Energy =                 677.2198835865996216
    Total Energy =                       -438.8015790244668324
  Basis Set: (AUG-CC-PVTZ AUX)
    Blend: AUG-CC-PVTZ-RI
    Molecular point group: c1

    Geometry (in Angstrom), charge = 0, multiplicity = 1:

       Center              X                  Y                   Z               Mass
    ------------   -----------------  -----------------  -----------------  -----------------
         O            0.199493423552     2.203036964795    -0.000011527703    15.994914619570
         N           -0.204727576448    -0.079376035205    -0.000003527703    14.003074004430
         C           -1.660357576448     0.179101964795    -0.000005527703    12.000000000000
         C           -2.301747576448    -0.360706035205     1.272624472297    12.000000000000
         C           -2.301755576448    -0.360753035205    -1.272611527703    12.000000000000
         C            0.654922423552     1.049229964795    -0.000006527703    12.000000000000
         C            0.254843423552    -1.367554035205     0.000005472297    12.000000000000
         C            1.964249823552     0.735935964795    -0.000004627703    12.000000000000
         C            1.591061423552    -1.657759035205     0.000009472297    12.000000000000
         C            2.512027423552    -0.579541035205     0.000003472297    12.000000000000
         H           -1.726178576448     1.268734964795    -0.000024527703     1.007825032230
         H           -3.356611576448    -0.071742035205     1.304931472297     1.007825032230
         H           -2.252360576448    -1.453001035205     1.319881472297     1.007825032230
         H           -1.804087576448     0.049893964795     2.154874472297     1.007825032230
         H           -1.804096576448     0.049807964795    -2.154880527703     1.007825032230
         H           -3.356617576448    -0.071781035205    -1.304925527703     1.007825032230
         H           -2.252379576448    -1.453049035205    -1.319825527703     1.007825032230
         H           -0.505781576448    -2.141733035205     0.000010472297     1.007825032230
         H            2.743772423552     1.556772964795    -0.000008527703     1.007825032230
         H            1.918966423552    -2.691050035205     0.000017472297     1.007825032230
         H            3.581354423552    -0.779302035205     0.000006472297     1.007825032230

  Basis Set: AUG-CC-PVTZ
    Blend: AUG-CC-PVTZ
  Basis Set: (AUG-CC-PVTZ AUX)
    Blend: AUG-CC-PVTZ-JKFIT
	 Reference Energy          =    -438.8015790244668324 [Eh]
	 Singles Energy            =      -0.0000000000000000 [Eh]
	 Same-Spin Energy          =      -0.4703290638757324 [Eh]
	 Opposite-Spin Energy      =      -1.4996520307436003 [Eh]
	 Correlation Energy        =      -1.9699810946193326 [Eh]
	 Total Energy              =    -440.7715601190861889 [Eh]

	 ================> DF-SCS-MP2 Energies <==================
	-----------------------------------------------------------
	 SCS Same-Spin Scale       =       0.3333333333333333 [-]
	 SCS Opposite-Spin Scale   =       1.2000000000000000 [-]
	 SCS Same-Spin Energy      =      -0.1567763546252441 [Eh]
	 SCS Opposite-Spin Energy  =      -1.7995824368923203 [Eh]
	 SCS Correlation Energy    =      -1.9563587915175644 [Eh]
	 SCS Total Energy          =    -440.7579378159844055 [Eh]
	-----------------------------------------------------------

  Dipole Moment: [D]
     X:    -0.6070      Y:    -4.1601      Z:     0.0000     Total:     4.2042

*** Psi4 exiting successfully. Buy a developer a beer!
