                               Psi4 1.3.2 release

  ==> Input File <==

--------------------------------------------------------------------------
#psi4
#
memory 32 gb

molecule  {
0 1
  N        0.1723510    -0.9422650    -0.0110160
  N       -0.2210270     1.4224780    -0.0033780
  C        2.0395230     0.5887340     0.0077330
  C        2.9514110    -0.3582210    -0.7410450
  C        2.9437130    -0.3688660     0.7522200
  C        0.5840210     0.3414150    -0.0010850
  C       -2.0855860    -0.1066610    -0.0107410
  C       -1.1516460    -1.1458400    -0.0150190
  C       -1.5403890     1.1790090    -0.0074550
  C       -3.5629974    -0.3552370     0.2690560
  H        2.3036370     1.6413390     0.0163460
  H        3.8028480     0.0735720    -1.2571040
  H        2.4662660    -1.1861320    -1.2466910
  H        2.4535620    -1.2039700     1.2409480
  H        3.7897520     0.0554290     1.2831630
  H       -1.4774160    -2.1870700    -0.0286840
  H       -2.1879510     2.0569620    -0.0148810
  H       -3.8167460    -1.2890820    -0.4911310
  H       -4.1087150     0.4576500    -0.4717300
  H       -3.9321000    -0.4275930     1.0483980
units angstrom
no_reorient  #important for SAPT in psi4, default
symmetry c1  #important for SAPT in psi4, default
}

set PROPERTIES_ORIGIN ["COM"]
properties('MP2/aug-cc-pvtz', properties = ['dipole'])
--------------------------------------------------------------------------

    Molecular point group: c1
  Charge       = 0
  Multiplicity = 1
  Basis Set: AUG-CC-PVTZ
    Blend: AUG-CC-PVTZ
  Basis Set: (AUG-CC-PVTZ AUX)
    Blend: AUG-CC-PVTZ-JKFIT

    Orbital Energies [Eh]
    ---------------------

    Doubly Occupied:

       1A    -15.564881     2A    -15.564829     3A    -11.316000
       4A    -11.293459     5A    -11.292041     6A    -11.249286
       7A    -11.245616     8A    -11.232609     9A    -11.227084
      10A    -11.226396    11A     -1.303194    12A     -1.183956
      13A     -1.148301    14A     -1.087674    15A     -0.974058
      16A     -0.893110    17A     -0.882562    18A     -0.819769
      19A     -0.798502    20A     -0.716550    21A     -0.698399
      22A     -0.664342    23A     -0.642066    24A     -0.608902
      25A     -0.585892    26A     -0.581883    27A     -0.557276
      28A     -0.524405    29A     -0.512397    30A     -0.491472
      31A     -0.472774    32A     -0.435108    33A     -0.425215
      34A     -0.415528    35A     -0.402294    36A     -0.337605

  @DF-RHF Final Energy:  -417.69572132596863

   => Energetics <=

    Nuclear Repulsion Energy =            493.3715732214766376
    One-Electron Energy =               -1543.3837180293953679
    Two-Electron Energy =                 632.3164234819500962
    Total Energy =                       -417.6957213259686341
  Basis Set: (AUG-CC-PVTZ AUX)
    Blend: AUG-CC-PVTZ-RI
    Molecular point group: c1

    Geometry (in Angstrom), charge = 0, multiplicity = 1:

       Center              X                  Y                   Z               Mass
    ------------   -----------------  -----------------  -----------------  -----------------
         N            0.166812791579    -0.957120117624    -0.032805686964    14.003074004430
         N           -0.226565208421     1.407622882376    -0.025167686964    14.003074004430
         C            2.033984791579     0.573878882376    -0.014056686964    12.000000000000
         C            2.945872791579    -0.373076117624    -0.762834686964    12.000000000000
         C            2.938174791579    -0.383721117624     0.730430313036    12.000000000000
         C            0.578482791579     0.326559882376    -0.022874686964    12.000000000000
         C           -2.091124208421    -0.121516117624    -0.032530686964    12.000000000000
         C           -1.157184208421    -1.160695117624    -0.036808686964    12.000000000000
         C           -1.545927208421     1.164153882376    -0.029244686964    12.000000000000
         C           -3.568535608421    -0.370092117624     0.247266313036    12.000000000000
         H            2.298098791579     1.626483882376    -0.005443686964     1.007825032230
         H            3.797309791579     0.058716882376    -1.278893686964     1.007825032230
         H            2.460727791579    -1.200987117624    -1.268480686964     1.007825032230
         H            2.448023791579    -1.218825117624     1.219158313036     1.007825032230
         H            3.784213791579     0.040573882376     1.261373313036     1.007825032230
         H           -1.482954208421    -2.201925117624    -0.050473686964     1.007825032230
         H           -2.193489208421     2.042106882376    -0.036670686964     1.007825032230
         H           -3.822284208421    -1.303937117624    -0.512920686964     1.007825032230
         H           -4.114253208421     0.442794882376    -0.493519686964     1.007825032230
         H           -3.937638208421    -0.442448117624     1.026608313036     1.007825032230

  Basis Set: AUG-CC-PVTZ
    Blend: AUG-CC-PVTZ
  Basis Set: (AUG-CC-PVTZ AUX)
    Blend: AUG-CC-PVTZ-JKFIT
	 Reference Energy          =    -417.6957213259686341 [Eh]
	 Singles Energy            =      -0.0000000000000000 [Eh]
	 Same-Spin Energy          =      -0.4583196797878181 [Eh]
	 Opposite-Spin Energy      =      -1.4503940526694339 [Eh]
	 Correlation Energy        =      -1.9087137324572521 [Eh]
	 Total Energy              =    -419.6044350584259064 [Eh]

	 ================> DF-SCS-MP2 Energies <==================
	-----------------------------------------------------------
	 SCS Same-Spin Scale       =       0.3333333333333333 [-]
	 SCS Opposite-Spin Scale   =       1.2000000000000000 [-]
	 SCS Same-Spin Energy      =      -0.1527732265959394 [Eh]
	 SCS Opposite-Spin Energy  =      -1.7404728632033206 [Eh]
	 SCS Correlation Energy    =      -1.8932460897992600 [Eh]
	 SCS Total Energy          =    -419.5889674157679110 [Eh]
	-----------------------------------------------------------

  Dipole Moment: [D]
     X:    -1.7958      Y:    -0.5380      Z:     0.0898     Total:     1.8769

*** Psi4 exiting successfully. Buy a developer a beer!
