                               Psi4 1.3.2 release

  ==> Input File <==

--------------------------------------------------------------------------
#psi4
#
memory 32 gb

molecule  {
0 1
  N        0.1723510    -0.9422650    -0.0110160
  N       -0.2210270     1.4224780    -0.0033780
  C        2.0401735     0.5891652    -0.0922640
  C        2.9514110    -0.3582210    -0.7410450
  C        2.9437130    -0.3688660     0.7522200
  C        0.5840210     0.3414150    -0.0010850
  C       -2.0855860    -0.1066610    -0.0107410
  C       -1.1516460    -1.1458400    -0.0150190
  C       -1.5403890     1.1790090    -0.0074550
  C       -3.5664500    -0.3550010     0.0190800
  H        2.3036370     1.6413390     0.0163460
  H        3.8028480     0.0735720    -1.2571040
  H        2.4662660    -1.1861320    -1.2466910
  H        2.4535620    -1.2039700     1.2409480
  H        3.7897520     0.0554290     1.2831630
  H       -1.4774160    -2.1870700    -0.0286840
  H       -2.1879510     2.0569620    -0.0148810
  H       -3.8167460    -1.2890820    -0.4911310
  H       -4.1087150     0.4576500    -0.4717300
  H       -3.9321000    -0.4275930     1.0483980
units angstrom
no_reorient  #important for SAPT in psi4, default
symmetry c1  #important for SAPT in psi4, default
}

set PROPERTIES_ORIGIN ["COM"]
properties('MP2/aug-cc-pvtz', properties = ['dipole'])
--------------------------------------------------------------------------

    Molecular point group: c1
  Charge       = 0
  Multiplicity = 1
  Basis Set: AUG-CC-PVTZ
    Blend: AUG-CC-PVTZ
  Basis Set: (AUG-CC-PVTZ AUX)
    Blend: AUG-CC-PVTZ-JKFIT

    Orbital Energies [Eh]
    ---------------------

    Doubly Occupied:

       1A    -15.564081     2A    -15.563981     3A    -11.314154
       4A    -11.291880     5A    -11.290427     6A    -11.245574
       7A    -11.238143     8A    -11.232899     9A    -11.226427
      10A    -11.225203    11A     -1.301728    12A     -1.182601
      13A     -1.147516    14A     -1.088206    15A     -0.966968
      16A     -0.891319    17A     -0.874455    18A     -0.819732
      19A     -0.795893    20A     -0.715626    21A     -0.694644
      22A     -0.645992    23A     -0.613323    24A     -0.598421
      25A     -0.591432    26A     -0.582486    27A     -0.558628
      28A     -0.555018    29A     -0.522309    30A     -0.510970
      31A     -0.472655    32A     -0.447691    33A     -0.414881
      34A     -0.411278    35A     -0.402552    36A     -0.332344

  @DF-RHF Final Energy:  -417.77494349549437

   => Energetics <=

    Nuclear Repulsion Energy =            493.4647780142998954
    One-Electron Energy =               -1543.8165622847525356
    Two-Electron Energy =                 632.5768407749584412
    Total Energy =                       -417.7749434954943126
  Basis Set: (AUG-CC-PVTZ AUX)
    Blend: AUG-CC-PVTZ-RI
    Molecular point group: c1

    Geometry (in Angstrom), charge = 0, multiplicity = 1:

       Center              X                  Y                   Z               Mass
    ------------   -----------------  -----------------  -----------------  -----------------
         N            0.167063567958    -0.957179829269    -0.001484548544    14.003074004430
         N           -0.226314432042     1.407563170731     0.006153451456    14.003074004430
         C            2.034886067958     0.574250370731    -0.082732548544    12.000000000000
         C            2.946123567958    -0.373135829269    -0.731513548544    12.000000000000
         C            2.938425567958    -0.383780829269     0.761751451456    12.000000000000
         C            0.578733567958     0.326500170731     0.008446451456    12.000000000000
         C           -2.090873432042    -0.121575829269    -0.001209548544    12.000000000000
         C           -1.156933432042    -1.160754829269    -0.005487548544    12.000000000000
         C           -1.545676432042     1.164094170731     0.002076451456    12.000000000000
         C           -3.571737432042    -0.369915829269     0.028611451456    12.000000000000
         H            2.298349567958     1.626424170731     0.025877451456     1.007825032230
         H            3.797560567958     0.058657170731    -1.247572548544     1.007825032230
         H            2.460978567958    -1.201046829269    -1.237159548544     1.007825032230
         H            2.448274567958    -1.218884829269     1.250479451456     1.007825032230
         H            3.784464567958     0.040514170731     1.292694451456     1.007825032230
         H           -1.482703432042    -2.201984829269    -0.019152548544     1.007825032230
         H           -2.193238432042     2.042047170731    -0.005349548544     1.007825032230
         H           -3.822033432042    -1.303996829269    -0.481599548544     1.007825032230
         H           -4.114002432042     0.442735170731    -0.462198548544     1.007825032230
         H           -3.937387432042    -0.442507829269     1.057929451456     1.007825032230

  Basis Set: AUG-CC-PVTZ
    Blend: AUG-CC-PVTZ
  Basis Set: (AUG-CC-PVTZ AUX)
    Blend: AUG-CC-PVTZ-JKFIT
	 Reference Energy          =    -417.7749434954943695 [Eh]
	 Singles Energy            =      -0.0000000000000000 [Eh]
	 Same-Spin Energy          =      -0.4579710711366188 [Eh]
	 Opposite-Spin Energy      =      -1.4480957326946866 [Eh]
	 Correlation Energy        =      -1.9060668038313056 [Eh]
	 Total Energy              =    -419.6810102993256919 [Eh]

	 ================> DF-SCS-MP2 Energies <==================
	-----------------------------------------------------------
	 SCS Same-Spin Scale       =       0.3333333333333333 [-]
	 SCS Opposite-Spin Scale   =       1.2000000000000000 [-]
	 SCS Same-Spin Energy      =      -0.1526570237122063 [Eh]
	 SCS Opposite-Spin Energy  =      -1.7377148792336239 [Eh]
	 SCS Correlation Energy    =      -1.8903719029458301 [Eh]
	 SCS Total Energy          =    -419.6653153984402138 [Eh]
	-----------------------------------------------------------

  Dipole Moment: [D]
     X:    -2.0411      Y:    -0.5746      Z:    -0.0021     Total:     2.1204

*** Psi4 exiting successfully. Buy a developer a beer!
