                               Psi4 1.3.2 release

  ==> Input File <==

--------------------------------------------------------------------------
#psi4
#
memory 32 gb

molecule  {
0 1
  N        0.1723510    -0.9422650    -0.0110160
  N       -0.2210270     1.4224780    -0.0033780
  C        2.0395230     0.5887340     0.0077330
  C        2.9514110    -0.3582210    -0.7410450
  C        2.9437130    -0.3688660     0.7522200
  C        0.5840210     0.3414150    -0.0010850
  C       -2.0855860    -0.1066610    -0.0107410
  C       -1.1516460    -1.1458400    -0.0150190
  C       -1.5403890     1.1790090    -0.0074550
  C       -3.5650690    -0.3550954     0.1190704
  H        2.3036370     1.6413390     0.0163460
  H        3.8028480     0.0735720    -1.2571040
  H        2.4662660    -1.1861320    -1.2466910
  H        2.4535620    -1.2039700     1.2409480
  H        3.7897520     0.0554290     1.2831630
  H       -1.4774160    -2.1870700    -0.0286840
  H       -2.1879510     2.0569620    -0.0148810
  H       -3.8167460    -1.2890820    -0.4911310
  H       -4.1087150     0.4576500    -0.4717300
  H       -3.9321000    -0.4275930     1.0483980
units angstrom
no_reorient  #important for SAPT in psi4, default
symmetry c1  #important for SAPT in psi4, default
}

set PROPERTIES_ORIGIN ["COM"]
properties('MP2/aug-cc-pvtz', properties = ['dipole'])
--------------------------------------------------------------------------

    Molecular point group: c1
  Charge       = 0
  Multiplicity = 1
  Basis Set: AUG-CC-PVTZ
    Blend: AUG-CC-PVTZ
  Basis Set: (AUG-CC-PVTZ AUX)
    Blend: AUG-CC-PVTZ-JKFIT

    Orbital Energies [Eh]
    ---------------------

    Doubly Occupied:

       1A    -15.564109     2A    -15.564060     3A    -11.314270
       4A    -11.292192     5A    -11.290728     6A    -11.245752
       7A    -11.238959     8A    -11.231671     9A    -11.226200
      10A    -11.225518    11A     -1.302036    12A     -1.182855
      13A     -1.147448    14A     -1.087835    15A     -0.967780
      16A     -0.891445    17A     -0.875825    18A     -0.818955
      19A     -0.796787    20A     -0.715477    21A     -0.694877
      22A     -0.646698    23A     -0.623657    24A     -0.607908
      25A     -0.590149    26A     -0.581487    27A     -0.563105
      28A     -0.529643    29A     -0.523312    30A     -0.511559
      31A     -0.471936    32A     -0.434990    33A     -0.424540
      34A     -0.414515    35A     -0.402442    36A     -0.336197

  @DF-RHF Final Energy:  -417.76821169359380

   => Energetics <=

    Nuclear Repulsion Energy =            493.5098448904664679
    One-Electron Energy =               -1543.8822804697945230
    Two-Electron Energy =                 632.6042238857343136
    Total Energy =                       -417.7682116935937984
  Basis Set: (AUG-CC-PVTZ AUX)
    Blend: AUG-CC-PVTZ-RI
    Molecular point group: c1

    Geometry (in Angstrom), charge = 0, multiplicity = 1:

       Center              X                  Y                   Z               Mass
    ------------   -----------------  -----------------  -----------------  -----------------
         N            0.166998191225    -0.957132790239    -0.019382595072    14.003074004430
         N           -0.226379808775     1.407610209761    -0.011744595072    14.003074004430
         C            2.034170191225     0.573866209761    -0.000633595072    12.000000000000
         C            2.946058191225    -0.373088790239    -0.749411595072    12.000000000000
         C            2.938360191225    -0.383733790239     0.743853404928    12.000000000000
         C            0.578668191225     0.326547209761    -0.009451595072    12.000000000000
         C           -2.090938808775    -0.121528790239    -0.019107595072    12.000000000000
         C           -1.156998808775    -1.160707790239    -0.023385595072    12.000000000000
         C           -1.545741808775     1.164141209761    -0.015821595072    12.000000000000
         C           -3.570421808775    -0.369963190239     0.110703804928    12.000000000000
         H            2.298284191225     1.626471209761     0.007979404928     1.007825032230
         H            3.797495191225     0.058704209761    -1.265470595072     1.007825032230
         H            2.460913191225    -1.200999790239    -1.255057595072     1.007825032230
         H            2.448209191225    -1.218837790239     1.232581404928     1.007825032230
         H            3.784399191225     0.040561209761     1.274796404928     1.007825032230
         H           -1.482768808775    -2.201937790239    -0.037050595072     1.007825032230
         H           -2.193303808775     2.042094209761    -0.023247595072     1.007825032230
         H           -3.822098808775    -1.303949790239    -0.499497595072     1.007825032230
         H           -4.114067808775     0.442782209761    -0.480096595072     1.007825032230
         H           -3.937452808775    -0.442460790239     1.040031404928     1.007825032230

  Basis Set: AUG-CC-PVTZ
    Blend: AUG-CC-PVTZ
  Basis Set: (AUG-CC-PVTZ AUX)
    Blend: AUG-CC-PVTZ-JKFIT
	 Reference Energy          =    -417.7682116935937984 [Eh]
	 Singles Energy            =      -0.0000000000000000 [Eh]
	 Same-Spin Energy          =      -0.4577454716103180 [Eh]
	 Opposite-Spin Energy      =      -1.4478944268677525 [Eh]
	 Correlation Energy        =      -1.9056398984780705 [Eh]
	 Total Energy              =    -419.6738515920718555 [Eh]

	 ================> DF-SCS-MP2 Energies <==================
	-----------------------------------------------------------
	 SCS Same-Spin Scale       =       0.3333333333333333 [-]
	 SCS Opposite-Spin Scale   =       1.2000000000000000 [-]
	 SCS Same-Spin Energy      =      -0.1525818238701060 [Eh]
	 SCS Opposite-Spin Energy  =      -1.7374733122413029 [Eh]
	 SCS Correlation Energy    =      -1.8900551361114089 [Eh]
	 SCS Total Energy          =    -419.6582668297052123 [Eh]
	-----------------------------------------------------------

  Dipole Moment: [D]
     X:    -1.9750      Y:    -0.5636      Z:     0.0768     Total:     2.0553

*** Psi4 exiting successfully. Buy a developer a beer!
