                               Psi4 1.3.2 release

  ==> Input File <==

--------------------------------------------------------------------------
#psi4
#
memory 32 gb

molecule  {
0 1
  N        0.1723510    -0.9422650    -0.0110160
  N       -0.2210270     1.4224780    -0.0033780
  C        2.0395230     0.5887340     0.0077330
  C        2.9514110    -0.3582210    -0.7410450
  C        2.9437130    -0.3688660     0.7522200
  C        0.5840210     0.3414150    -0.0010850
  C       -2.0855860    -0.1066610    -0.0107410
  C       -1.1516460    -1.1458400    -0.0150190
  C       -1.5403890     1.1790090    -0.0074550
  C       -3.5664500    -0.3550010     0.0190800
  H        2.3036370     1.6413390     0.0163460
  H        3.8028480     0.0735720    -1.2571040
  H        2.4662660    -1.1861320    -1.2466910
  H        2.4535620    -1.2039700     1.2409480
  H        3.7897520     0.0554290     1.2831630
  H       -1.4782766    -2.1894776     0.2213029
  H       -2.1879510     2.0569620    -0.0148810
  H       -3.8167460    -1.2890820    -0.4911310
  H       -4.1087150     0.4576500    -0.4717300
  H       -3.9321000    -0.4275930     1.0483980
units angstrom
no_reorient  #important for SAPT in psi4, default
symmetry c1  #important for SAPT in psi4, default
}

set PROPERTIES_ORIGIN ["COM"]
properties('MP2/aug-cc-pvtz', properties = ['dipole'])
--------------------------------------------------------------------------

    Molecular point group: c1
  Charge       = 0
  Multiplicity = 1
  Basis Set: AUG-CC-PVTZ
    Blend: AUG-CC-PVTZ
  Basis Set: (AUG-CC-PVTZ AUX)
    Blend: AUG-CC-PVTZ-JKFIT

    Orbital Energies [Eh]
    ---------------------

    Doubly Occupied:

       1A    -15.564420     2A    -15.564391     3A    -11.313826
       4A    -11.294561     5A    -11.290575     6A    -11.246029
       7A    -11.238072     8A    -11.231467     9A    -11.225971
      10A    -11.225284    11A     -1.301990    12A     -1.182703
      13A     -1.147223    14A     -1.088153    15A     -0.967082
      16A     -0.889734    17A     -0.874630    18A     -0.818759
      19A     -0.795687    20A     -0.714638    21A     -0.693794
      22A     -0.645822    23A     -0.613085    24A     -0.599688
      25A     -0.590939    26A     -0.579231    27A     -0.557785
      28A     -0.554517    29A     -0.523275    30A     -0.511149
      31A     -0.472086    32A     -0.434290    33A     -0.424388
      34A     -0.414996    35A     -0.401412    36A     -0.334266

  @DF-RHF Final Energy:  -417.77513594940103

   => Energetics <=

    Nuclear Repulsion Energy =            493.4306705058494913
    One-Electron Energy =               -1543.7597827823426542
    Two-Electron Energy =                 632.5539763270920730
    Total Energy =                       -417.7751359494010330
  Basis Set: (AUG-CC-PVTZ AUX)
    Blend: AUG-CC-PVTZ-RI
    Molecular point group: c1

    Geometry (in Angstrom), charge = 0, multiplicity = 1:

       Center              X                  Y                   Z               Mass
    ------------   -----------------  -----------------  -----------------  -----------------
         N            0.167128253592    -0.957123142290    -0.012312855742    14.003074004430
         N           -0.226249746408     1.407619857710    -0.004674855742    14.003074004430
         C            2.034300253592     0.573875857710     0.006436144258    12.000000000000
         C            2.946188253592    -0.373079142290    -0.742341855742    12.000000000000
         C            2.938490253592    -0.383724142290     0.750923144258    12.000000000000
         C            0.578798253592     0.326556857710    -0.002381855742    12.000000000000
         C           -2.090808746408    -0.121519142290    -0.012037855742    12.000000000000
         C           -1.156868746408    -1.160698142290    -0.016315855742    12.000000000000
         C           -1.545611746408     1.164150857710    -0.008751855742    12.000000000000
         C           -3.571672746408    -0.369859142290     0.017783144258    12.000000000000
         H            2.298414253592     1.626480857710     0.015049144258     1.007825032230
         H            3.797625253592     0.058713857710    -1.258400855742     1.007825032230
         H            2.461043253592    -1.200990142290    -1.247987855742     1.007825032230
         H            2.448339253592    -1.218828142290     1.239651144258     1.007825032230
         H            3.784529253592     0.040570857710     1.281866144258     1.007825032230
         H           -1.483499346408    -2.204335742290     0.220006044258     1.007825032230
         H           -2.193173746408     2.042103857710    -0.016177855742     1.007825032230
         H           -3.821968746408    -1.303940142290    -0.492427855742     1.007825032230
         H           -4.113937746408     0.442791857710    -0.473026855742     1.007825032230
         H           -3.937322746408    -0.442451142290     1.047101144258     1.007825032230

  Basis Set: AUG-CC-PVTZ
    Blend: AUG-CC-PVTZ
  Basis Set: (AUG-CC-PVTZ AUX)
    Blend: AUG-CC-PVTZ-JKFIT
	 Reference Energy          =    -417.7751359494010330 [Eh]
	 Singles Energy            =      -0.0000000000000000 [Eh]
	 Same-Spin Energy          =      -0.4579936405684595 [Eh]
	 Opposite-Spin Energy      =      -1.4481613609143886 [Eh]
	 Correlation Energy        =      -1.9061550014828481 [Eh]
	 Total Energy              =    -419.6812909508838629 [Eh]

	 ================> DF-SCS-MP2 Energies <==================
	-----------------------------------------------------------
	 SCS Same-Spin Scale       =       0.3333333333333333 [-]
	 SCS Opposite-Spin Scale   =       1.2000000000000000 [-]
	 SCS Same-Spin Energy      =      -0.1526645468561532 [Eh]
	 SCS Opposite-Spin Energy  =      -1.7377936330972663 [Eh]
	 SCS Correlation Energy    =      -1.8904581799534195 [Eh]
	 SCS Total Energy          =    -419.6655941293544743 [Eh]
	-----------------------------------------------------------

  Dipole Moment: [D]
     X:    -2.0287      Y:    -0.5370      Z:     0.1502     Total:     2.1040

*** Psi4 exiting successfully. Buy a developer a beer!
