                               Psi4 1.3.2 release

  ==> Input File <==

--------------------------------------------------------------------------
#psi4
#
memory 32 gb

molecule  {
0 1
  N        0.1723510    -0.9422650    -0.0110160
  N       -0.2210270     1.4224780    -0.0033780
  C        2.0395230     0.5887340     0.0077330
  C        2.9514110    -0.3582210    -0.7410450
  C        2.9437130    -0.3688660     0.7522200
  C        0.5840210     0.3414150    -0.0010850
  C       -2.0855860    -0.1066610    -0.0107410
  C       -1.1516460    -1.1458400    -0.0150190
  C       -1.5403890     1.1790090    -0.0074550
  C       -3.5664500    -0.3550010     0.0190800
  H        2.3036370     1.6413390     0.0163460
  H        3.8028480     0.0735720    -1.2571040
  H        2.4662660    -1.1861320    -1.2466910
  H        2.4535620    -1.2039700     1.2409480
  H        3.7897520     0.0554290     1.2831630
  H       -1.4777602    -2.1880331     0.0713108
  H       -2.1879510     2.0569620    -0.0148810
  H       -3.8167460    -1.2890820    -0.4911310
  H       -4.1087150     0.4576500    -0.4717300
  H       -3.9321000    -0.4275930     1.0483980
units angstrom
no_reorient  #important for SAPT in psi4, default
symmetry c1  #important for SAPT in psi4, default
}

set PROPERTIES_ORIGIN ["COM"]
properties('MP2/aug-cc-pvtz', properties = ['dipole'])
--------------------------------------------------------------------------

    Molecular point group: c1
  Charge       = 0
  Multiplicity = 1
  Basis Set: AUG-CC-PVTZ
    Blend: AUG-CC-PVTZ
  Basis Set: (AUG-CC-PVTZ AUX)
    Blend: AUG-CC-PVTZ-JKFIT

    Orbital Energies [Eh]
    ---------------------

    Doubly Occupied:

       1A    -15.564104     2A    -15.564067     3A    -11.313572
       4A    -11.292273     5A    -11.290385     6A    -11.245656
       7A    -11.238112     8A    -11.231344     9A    -11.225873
      10A    -11.225191    11A     -1.301758    12A     -1.182582
      13A     -1.147160    14A     -1.088123    15A     -0.967099
      16A     -0.891087    17A     -0.874701    18A     -0.818663
      19A     -0.796321    20A     -0.715603    21A     -0.694625
      22A     -0.645878    23A     -0.613482    24A     -0.598365
      25A     -0.591803    26A     -0.581941    27A     -0.558206
      28A     -0.554936    29A     -0.523464    30A     -0.511098
      31A     -0.471856    32A     -0.434163    33A     -0.424280
      34A     -0.414361    35A     -0.402568    36A     -0.334325

  @DF-RHF Final Energy:  -417.77890870677629

   => Energetics <=

    Nuclear Repulsion Energy =            493.5243864712853110
    One-Electron Energy =               -1543.9485433224467670
    Two-Electron Energy =                 632.6452481443852776
    Total Energy =                       -417.7789087067762921
  Basis Set: (AUG-CC-PVTZ AUX)
    Blend: AUG-CC-PVTZ-RI
    Molecular point group: c1

    Geometry (in Angstrom), charge = 0, multiplicity = 1:

       Center              X                  Y                   Z               Mass
    ------------   -----------------  -----------------  -----------------  -----------------
         N            0.167124372150    -0.957133999655    -0.011185462884    14.003074004430
         N           -0.226253627850     1.407609000345    -0.003547462884    14.003074004430
         C            2.034296372150     0.573865000345     0.007563537116    12.000000000000
         C            2.946184372150    -0.373089999655    -0.741214462884    12.000000000000
         C            2.938486372150    -0.383734999655     0.752050537116    12.000000000000
         C            0.578794372150     0.326546000345    -0.001254462884    12.000000000000
         C           -2.090812627850    -0.121529999655    -0.010910462884    12.000000000000
         C           -1.156872627850    -1.160708999655    -0.015188462884    12.000000000000
         C           -1.545615627850     1.164140000345    -0.007624462884    12.000000000000
         C           -3.571676627850    -0.369869999655     0.018910537116    12.000000000000
         H            2.298410372150     1.626470000345     0.016176537116     1.007825032230
         H            3.797621372150     0.058703000345    -1.257273462884     1.007825032230
         H            2.461039372150    -1.201000999655    -1.246860462884     1.007825032230
         H            2.448335372150    -1.218838999655     1.240778537116     1.007825032230
         H            3.784525372150     0.040560000345     1.282993537116     1.007825032230
         H           -1.482986827850    -2.202902099655     0.071141337116     1.007825032230
         H           -2.193177627850     2.042093000345    -0.015050462884     1.007825032230
         H           -3.821972627850    -1.303950999655    -0.491300462884     1.007825032230
         H           -4.113941627850     0.442781000345    -0.471899462884     1.007825032230
         H           -3.937326627850    -0.442461999655     1.048228537116     1.007825032230

  Basis Set: AUG-CC-PVTZ
    Blend: AUG-CC-PVTZ
  Basis Set: (AUG-CC-PVTZ AUX)
    Blend: AUG-CC-PVTZ-JKFIT
	 Reference Energy          =    -417.7789087067762921 [Eh]
	 Singles Energy            =      -0.0000000000000000 [Eh]
	 Same-Spin Energy          =      -0.4577520503076712 [Eh]
	 Opposite-Spin Energy      =      -1.4476316133186606 [Eh]
	 Correlation Energy        =      -1.9053836636263317 [Eh]
	 Total Energy              =    -419.6842923704026020 [Eh]

	 ================> DF-SCS-MP2 Energies <==================
	-----------------------------------------------------------
	 SCS Same-Spin Scale       =       0.3333333333333333 [-]
	 SCS Opposite-Spin Scale   =       1.2000000000000000 [-]
	 SCS Same-Spin Energy      =      -0.1525840167692237 [Eh]
	 SCS Opposite-Spin Energy  =      -1.7371579359823928 [Eh]
	 SCS Correlation Energy    =      -1.8897419527516166 [Eh]
	 SCS Total Energy          =    -419.6686506595278843 [Eh]
	-----------------------------------------------------------

  Dipole Moment: [D]
     X:    -2.0454      Y:    -0.5690      Z:     0.0884     Total:     2.1249

*** Psi4 exiting successfully. Buy a developer a beer!
