                               Psi4 1.3.2 release

  ==> Input File <==

--------------------------------------------------------------------------
#psi4
#
memory 32 gb

molecule  {
0 1
  N        0.1723510    -0.9422650    -0.0110160
  N       -0.2210270     1.4224780    -0.0033780
  C        2.0404988     0.5893808    -0.1422624
  C        2.9514110    -0.3582210    -0.7410450
  C        2.9437130    -0.3688660     0.7522200
  C        0.5840210     0.3414150    -0.0010850
  C       -2.0855860    -0.1066610    -0.0107410
  C       -1.1516460    -1.1458400    -0.0150190
  C       -1.5403890     1.1790090    -0.0074550
  C       -3.5664500    -0.3550010     0.0190800
  H        2.3036370     1.6413390     0.0163460
  H        3.8028480     0.0735720    -1.2571040
  H        2.4662660    -1.1861320    -1.2466910
  H        2.4535620    -1.2039700     1.2409480
  H        3.7897520     0.0554290     1.2831630
  H       -1.4774160    -2.1870700    -0.0286840
  H       -2.1879510     2.0569620    -0.0148810
  H       -3.8167460    -1.2890820    -0.4911310
  H       -4.1087150     0.4576500    -0.4717300
  H       -3.9321000    -0.4275930     1.0483980
units angstrom
no_reorient  #important for SAPT in psi4, default
symmetry c1  #important for SAPT in psi4, default
}

set PROPERTIES_ORIGIN ["COM"]
properties('MP2/aug-cc-pvtz', properties = ['dipole'])
--------------------------------------------------------------------------

    Molecular point group: c1
  Charge       = 0
  Multiplicity = 1
  Basis Set: AUG-CC-PVTZ
    Blend: AUG-CC-PVTZ
  Basis Set: (AUG-CC-PVTZ AUX)
    Blend: AUG-CC-PVTZ-JKFIT

    Orbital Energies [Eh]
    ---------------------

    Doubly Occupied:

       1A    -15.564094     2A    -15.563920     3A    -11.314898
       4A    -11.291893     5A    -11.290490     6A    -11.245495
       7A    -11.238119     8A    -11.234811     9A    -11.226970
      10A    -11.225461    11A     -1.301711    12A     -1.182621
      13A     -1.147907    14A     -1.088274    15A     -0.966780
      16A     -0.891248    17A     -0.874125    18A     -0.821045
      19A     -0.795230    20A     -0.715384    21A     -0.694455
      22A     -0.646093    23A     -0.612998    24A     -0.598394
      25A     -0.591330    26A     -0.582470    27A     -0.558892
      28A     -0.554977    29A     -0.521199    30A     -0.510665
      31A     -0.474280    32A     -0.455256    33A     -0.414700
      34A     -0.405443    35A     -0.401480    36A     -0.329791

  @DF-RHF Final Energy:  -417.76921985922303

   => Energetics <=

    Nuclear Repulsion Energy =            493.3668715465122432
    One-Electron Energy =               -1543.6063877613951263
    Two-Electron Energy =                 632.4702963556596842
    Total Energy =                       -417.7692198592230852
  Basis Set: (AUG-CC-PVTZ AUX)
    Blend: AUG-CC-PVTZ-RI
    Molecular point group: c1

    Geometry (in Angstrom), charge = 0, multiplicity = 1:

       Center              X                  Y                   Z               Mass
    ------------   -----------------  -----------------  -----------------  -----------------
         N            0.167034454952    -0.957199124579     0.002990101806    14.003074004430
         N           -0.226343545048     1.407543875421     0.010628101806    14.003074004430
         C            2.035182254952     0.574446675421    -0.128256298194    12.000000000000
         C            2.946094454952    -0.373155124579    -0.727038898194    12.000000000000
         C            2.938396454952    -0.383800124579     0.766226101806    12.000000000000
         C            0.578704454952     0.326480875421     0.012921101806    12.000000000000
         C           -2.090902545048    -0.121595124579     0.003265101806    12.000000000000
         C           -1.156962545048    -1.160774124579    -0.001012898194    12.000000000000
         C           -1.545705545048     1.164074875421     0.006551101806    12.000000000000
         C           -3.571766545048    -0.369935124579     0.033086101806    12.000000000000
         H            2.298320454952     1.626404875421     0.030352101806     1.007825032230
         H            3.797531454952     0.058637875421    -1.243097898194     1.007825032230
         H            2.460949454952    -1.201066124579    -1.232684898194     1.007825032230
         H            2.448245454952    -1.218904124579     1.254954101806     1.007825032230
         H            3.784435454952     0.040494875421     1.297169101806     1.007825032230
         H           -1.482732545048    -2.202004124579    -0.014677898194     1.007825032230
         H           -2.193267545048     2.042027875421    -0.000874898194     1.007825032230
         H           -3.822062545048    -1.304016124579    -0.477124898194     1.007825032230
         H           -4.114031545048     0.442715875421    -0.457723898194     1.007825032230
         H           -3.937416545048    -0.442527124579     1.062404101806     1.007825032230

  Basis Set: AUG-CC-PVTZ
    Blend: AUG-CC-PVTZ
  Basis Set: (AUG-CC-PVTZ AUX)
    Blend: AUG-CC-PVTZ-JKFIT
	 Reference Energy          =    -417.7692198592230284 [Eh]
	 Singles Energy            =      -0.0000000000000000 [Eh]
	 Same-Spin Energy          =      -0.4582941693820725 [Eh]
	 Opposite-Spin Energy      =      -1.4487931166364469 [Eh]
	 Correlation Energy        =      -1.9070872860185193 [Eh]
	 Total Energy              =    -419.6763071452415375 [Eh]

	 ================> DF-SCS-MP2 Energies <==================
	-----------------------------------------------------------
	 SCS Same-Spin Scale       =       0.3333333333333333 [-]
	 SCS Opposite-Spin Scale   =       1.2000000000000000 [-]
	 SCS Same-Spin Energy      =      -0.1527647231273575 [Eh]
	 SCS Opposite-Spin Energy  =      -1.7385517399637362 [Eh]
	 SCS Correlation Energy    =      -1.8913164630910937 [Eh]
	 SCS Total Energy          =    -419.6605363223141012 [Eh]
	-----------------------------------------------------------

  Dipole Moment: [D]
     X:    -2.0318      Y:    -0.5776      Z:    -0.0242     Total:     2.1125

*** Psi4 exiting successfully. Buy a developer a beer!
