                               Psi4 1.3.2 release

  ==> Input File <==

--------------------------------------------------------------------------
#psi4
#
memory 32 gb

molecule  {
0 1
  N        0.1723510    -0.9422650    -0.0110160
  N       -0.2210270     1.4224780    -0.0033780
  C        2.0395230     0.5887340     0.0077330
  C        2.9514110    -0.3582210    -0.7410450
  C        2.9437130    -0.3688660     0.7522200
  C        0.5840210     0.3414150    -0.0010850
  C       -2.0855860    -0.1066610    -0.0107410
  C       -1.1516460    -1.1458400    -0.0150190
  C       -1.5403890     1.1790090    -0.0074550
  C       -3.5657595    -0.3550482     0.0690752
  H        2.3036370     1.6413390     0.0163460
  H        3.8028480     0.0735720    -1.2571040
  H        2.4662660    -1.1861320    -1.2466910
  H        2.4535620    -1.2039700     1.2409480
  H        3.7897520     0.0554290     1.2831630
  H       -1.4774160    -2.1870700    -0.0286840
  H       -2.1879510     2.0569620    -0.0148810
  H       -3.8167460    -1.2890820    -0.4911310
  H       -4.1087150     0.4576500    -0.4717300
  H       -3.9321000    -0.4275930     1.0483980
units angstrom
no_reorient  #important for SAPT in psi4, default
symmetry c1  #important for SAPT in psi4, default
}

set PROPERTIES_ORIGIN ["COM"]
properties('MP2/aug-cc-pvtz', properties = ['dipole'])
--------------------------------------------------------------------------

    Molecular point group: c1
  Charge       = 0
  Multiplicity = 1
  Basis Set: AUG-CC-PVTZ
    Blend: AUG-CC-PVTZ
  Basis Set: (AUG-CC-PVTZ AUX)
    Blend: AUG-CC-PVTZ-JKFIT

    Orbital Energies [Eh]
    ---------------------

    Doubly Occupied:

       1A    -15.564038     2A    -15.563991     3A    -11.313865
       4A    -11.291980     5A    -11.290501     6A    -11.245471
       7A    -11.238193     8A    -11.231473     9A    -11.226007
      10A    -11.225325    11A     -1.301838    12A     -1.182671
      13A     -1.147276    14A     -1.087972    15A     -0.967199
      16A     -0.891338    17A     -0.874970    18A     -0.818780
      19A     -0.796551    20A     -0.715564    21A     -0.694691
      22A     -0.646024    23A     -0.615636    24A     -0.604588
      25A     -0.591559    26A     -0.581767    27A     -0.562024
      28A     -0.542348    29A     -0.523507    30A     -0.511327
      31A     -0.471830    32A     -0.434662    33A     -0.424387
      34A     -0.414357    35A     -0.402576    36A     -0.335384

  @DF-RHF Final Energy:  -417.77688199301707

   => Energetics <=

    Nuclear Repulsion Energy =            493.5339495311005180
    One-Electron Energy =               -1543.9583186859936177
    Two-Electron Energy =                 632.6474871618761426
    Total Energy =                       -417.7768819930170139
  Basis Set: (AUG-CC-PVTZ AUX)
    Blend: AUG-CC-PVTZ-RI
    Molecular point group: c1

    Geometry (in Angstrom), charge = 0, multiplicity = 1:

       Center              X                  Y                   Z               Mass
    ------------   -----------------  -----------------  -----------------  -----------------
         N            0.167059988124    -0.957137014445    -0.014908231109    14.003074004430
         N           -0.226318011876     1.407605985555    -0.007270231109    14.003074004430
         C            2.034231988124     0.573861985555     0.003840768891    12.000000000000
         C            2.946119988124    -0.373093014445    -0.744937231109    12.000000000000
         C            2.938421988124    -0.383738014445     0.748327768891    12.000000000000
         C            0.578729988124     0.326542985555    -0.004977231109    12.000000000000
         C           -2.090877011876    -0.121533014445    -0.014633231109    12.000000000000
         C           -1.156937011876    -1.160712014445    -0.018911231109    12.000000000000
         C           -1.545680011876     1.164136985555    -0.011347231109    12.000000000000
         C           -3.571050511876    -0.369920214445     0.065182968891    12.000000000000
         H            2.298345988124     1.626466985555     0.012453768891     1.007825032230
         H            3.797556988124     0.058699985555    -1.260996231109     1.007825032230
         H            2.460974988124    -1.201004014445    -1.250583231109     1.007825032230
         H            2.448270988124    -1.218842014445     1.237055768891     1.007825032230
         H            3.784460988124     0.040556985555     1.279270768891     1.007825032230
         H           -1.482707011876    -2.201942014445    -0.032576231109     1.007825032230
         H           -2.193242011876     2.042089985555    -0.018773231109     1.007825032230
         H           -3.822037011876    -1.303954014445    -0.495023231109     1.007825032230
         H           -4.114006011876     0.442777985555    -0.475622231109     1.007825032230
         H           -3.937391011876    -0.442465014445     1.044505768891     1.007825032230

  Basis Set: AUG-CC-PVTZ
    Blend: AUG-CC-PVTZ
  Basis Set: (AUG-CC-PVTZ AUX)
    Blend: AUG-CC-PVTZ-JKFIT
	 Reference Energy          =    -417.7768819930170707 [Eh]
	 Singles Energy            =      -0.0000000000000000 [Eh]
	 Same-Spin Energy          =      -0.4576962642638374 [Eh]
	 Opposite-Spin Energy      =      -1.4475988652219780 [Eh]
	 Correlation Energy        =      -1.9052951294858154 [Eh]
	 Total Energy              =    -419.6821771225028783 [Eh]

	 ================> DF-SCS-MP2 Energies <==================
	-----------------------------------------------------------
	 SCS Same-Spin Scale       =       0.3333333333333333 [-]
	 SCS Opposite-Spin Scale   =       1.2000000000000000 [-]
	 SCS Same-Spin Energy      =      -0.1525654214212791 [Eh]
	 SCS Opposite-Spin Energy  =      -1.7371186382663735 [Eh]
	 SCS Correlation Energy    =      -1.8896840596876525 [Eh]
	 SCS Total Energy          =    -419.6665660527046953 [Eh]
	-----------------------------------------------------------

  Dipole Moment: [D]
     X:    -2.0154      Y:    -0.5691      Z:     0.0635     Total:     2.0952

*** Psi4 exiting successfully. Buy a developer a beer!
