                               Psi4 1.3.2 release

  ==> Input File <==

--------------------------------------------------------------------------
#psi4
#
memory 32 gb

molecule  {
0 1
  N        0.1723510    -0.9422650    -0.0110160
  N       -0.2210270     1.4224780    -0.0033780
  C        2.0411494     0.5898120    -0.2422594
  C        2.9514110    -0.3582210    -0.7410450
  C        2.9437130    -0.3688660     0.7522200
  C        0.5840210     0.3414150    -0.0010850
  C       -2.0855860    -0.1066610    -0.0107410
  C       -1.1516460    -1.1458400    -0.0150190
  C       -1.5403890     1.1790090    -0.0074550
  C       -3.5664500    -0.3550010     0.0190800
  H        2.3036370     1.6413390     0.0163460
  H        3.8028480     0.0735720    -1.2571040
  H        2.4662660    -1.1861320    -1.2466910
  H        2.4535620    -1.2039700     1.2409480
  H        3.7897520     0.0554290     1.2831630
  H       -1.4774160    -2.1870700    -0.0286840
  H       -2.1879510     2.0569620    -0.0148810
  H       -3.8167460    -1.2890820    -0.4911310
  H       -4.1087150     0.4576500    -0.4717300
  H       -3.9321000    -0.4275930     1.0483980
units angstrom
no_reorient  #important for SAPT in psi4, default
symmetry c1  #important for SAPT in psi4, default
}

set PROPERTIES_ORIGIN ["COM"]
properties('MP2/aug-cc-pvtz', properties = ['dipole'])
--------------------------------------------------------------------------

    Molecular point group: c1
  Charge       = 0
  Multiplicity = 1
  Basis Set: AUG-CC-PVTZ
    Blend: AUG-CC-PVTZ
  Basis Set: (AUG-CC-PVTZ AUX)
    Blend: AUG-CC-PVTZ-JKFIT

    Orbital Energies [Eh]
    ---------------------

    Doubly Occupied:

       1A    -15.564086     2A    -15.563690     3A    -11.317100
       4A    -11.291903     5A    -11.290651     6A    -11.245216
       7A    -11.240528     8A    -11.238018     9A    -11.228253
      10A    -11.226834    11A     -1.301608    12A     -1.182636
      13A     -1.148988    14A     -1.088418    15A     -0.966144
      16A     -0.891003    17A     -0.873049    18A     -0.825047
      19A     -0.793228    20A     -0.714625    21A     -0.693797
      22A     -0.646404    23A     -0.611911    24A     -0.598133
      25A     -0.591045    26A     -0.582383    27A     -0.559407
      28A     -0.554847    29A     -0.519385    30A     -0.508840
      31A     -0.483913    32A     -0.462863    33A     -0.414809
      34A     -0.403288    35A     -0.392009    36A     -0.322049

  @DF-RHF Final Energy:  -417.75128229491088

   => Energetics <=

    Nuclear Repulsion Energy =            493.0538666791595688
    One-Electron Energy =               -1542.9380790561187951
    Two-Electron Energy =                 632.1329300820482331
    Total Energy =                       -417.7512822949108795
  Basis Set: (AUG-CC-PVTZ AUX)
    Blend: AUG-CC-PVTZ-RI
    Molecular point group: c1

    Geometry (in Angstrom), charge = 0, multiplicity = 1:

       Center              X                  Y                   Z               Mass
    ------------   -----------------  -----------------  -----------------  -----------------
         N            0.166976228938    -0.957237715198     0.011939420406    14.003074004430
         N           -0.226401771062     1.407505284802     0.019577420406    14.003074004430
         C            2.035774628938     0.574839284802    -0.219303979594    12.000000000000
         C            2.946036228938    -0.373193715198    -0.718089579594    12.000000000000
         C            2.938338228938    -0.383838715198     0.775175420406    12.000000000000
         C            0.578646228938     0.326442284802     0.021870420406    12.000000000000
         C           -2.090960771062    -0.121633715198     0.012214420406    12.000000000000
         C           -1.157020771062    -1.160812715198     0.007936420406    12.000000000000
         C           -1.545763771062     1.164036284802     0.015500420406    12.000000000000
         C           -3.571824771062    -0.369973715198     0.042035420406    12.000000000000
         H            2.298262228938     1.626366284802     0.039301420406     1.007825032230
         H            3.797473228938     0.058599284802    -1.234148579594     1.007825032230
         H            2.460891228938    -1.201104715198    -1.223735579594     1.007825032230
         H            2.448187228938    -1.218942715198     1.263903420406     1.007825032230
         H            3.784377228938     0.040456284802     1.306118420406     1.007825032230
         H           -1.482790771062    -2.202042715198    -0.005728579594     1.007825032230
         H           -2.193325771062     2.041989284802     0.008074420406     1.007825032230
         H           -3.822120771062    -1.304054715198    -0.468175579594     1.007825032230
         H           -4.114089771062     0.442677284802    -0.448774579594     1.007825032230
         H           -3.937474771062    -0.442565715198     1.071353420406     1.007825032230

  Basis Set: AUG-CC-PVTZ
    Blend: AUG-CC-PVTZ
  Basis Set: (AUG-CC-PVTZ AUX)
    Blend: AUG-CC-PVTZ-JKFIT
	 Reference Energy          =    -417.7512822949108795 [Eh]
	 Singles Energy            =      -0.0000000000000000 [Eh]
	 Same-Spin Energy          =      -0.4593054248174487 [Eh]
	 Opposite-Spin Energy      =      -1.4509942466715522 [Eh]
	 Correlation Energy        =      -1.9102996714890010 [Eh]
	 Total Energy              =    -419.6615819663998650 [Eh]

	 ================> DF-SCS-MP2 Energies <==================
	-----------------------------------------------------------
	 SCS Same-Spin Scale       =       0.3333333333333333 [-]
	 SCS Opposite-Spin Scale   =       1.2000000000000000 [-]
	 SCS Same-Spin Energy      =      -0.1531018082724829 [Eh]
	 SCS Opposite-Spin Energy  =      -1.7411930960058626 [Eh]
	 SCS Correlation Energy    =      -1.8942949042783455 [Eh]
	 SCS Total Energy          =    -419.6455771991892334 [Eh]
	-----------------------------------------------------------

  Dipole Moment: [D]
     X:    -1.9988      Y:    -0.5928      Z:    -0.0588     Total:     2.0857

*** Psi4 exiting successfully. Buy a developer a beer!
