                               Psi4 1.3.2 release

  ==> Input File <==

--------------------------------------------------------------------------
#psi4
#
memory 32 gb

molecule  {
0 1
  N        0.1723510    -0.9422650    -0.0110160
  N       -0.2210270     1.4224780    -0.0033780
  C        2.0395230     0.5887340     0.0077330
  C        2.9514110    -0.3582210    -0.7410450
  C        2.9437130    -0.3688660     0.7522200
  C        0.5840210     0.3414150    -0.0010850
  C       -2.0855860    -0.1066610    -0.0107410
  C       -1.1516460    -1.1458400    -0.0150190
  C       -1.5403890     1.1790090    -0.0074550
  C       -3.5664500    -0.3550010     0.0190800
  H        2.3036370     1.6413390     0.0163460
  H        3.8028480     0.0735720    -1.2571040
  H        2.4662660    -1.1861320    -1.2466910
  H        2.4535620    -1.2039700     1.2409480
  H        3.7897520     0.0554290     1.2831630
  H       -1.4775881    -2.1875515     0.0213134
  H       -2.1879510     2.0569620    -0.0148810
  H       -3.8167460    -1.2890820    -0.4911310
  H       -4.1087150     0.4576500    -0.4717300
  H       -3.9321000    -0.4275930     1.0483980
units angstrom
no_reorient  #important for SAPT in psi4, default
symmetry c1  #important for SAPT in psi4, default
}

set PROPERTIES_ORIGIN ["COM"]
properties('MP2/aug-cc-pvtz', properties = ['dipole'])
--------------------------------------------------------------------------

    Molecular point group: c1
  Charge       = 0
  Multiplicity = 1
  Basis Set: AUG-CC-PVTZ
    Blend: AUG-CC-PVTZ
  Basis Set: (AUG-CC-PVTZ AUX)
    Blend: AUG-CC-PVTZ-JKFIT

    Orbital Energies [Eh]
    ---------------------

    Doubly Occupied:

       1A    -15.564064     2A    -15.564022     3A    -11.313542
       4A    -11.291953     5A    -11.290366     6A    -11.245615
       7A    -11.238129     8A    -11.231330     9A    -11.225862
      10A    -11.225181    11A     -1.301730    12A     -1.182570
      13A     -1.147154    14A     -1.088125    15A     -0.967106
      16A     -0.891299    17A     -0.874714    18A     -0.818652
      19A     -0.796420    20A     -0.715762    21A     -0.694743
      22A     -0.645893    23A     -0.613568    24A     -0.598231
      25A     -0.591803    26A     -0.582336    27A     -0.558286
      28A     -0.555004    29A     -0.523484    30A     -0.511094
      31A     -0.471826    32A     -0.434152    33A     -0.424268
      34A     -0.414283    35A     -0.402727    36A     -0.334345

  @DF-RHF Final Energy:  -417.77940475691656

   => Energetics <=

    Nuclear Repulsion Energy =            493.5379285218627956
    One-Electron Energy =               -1543.9753804896324709
    Two-Electron Energy =                 632.6580472108530557
    Total Energy =                       -417.7794047569166196
  Basis Set: (AUG-CC-PVTZ AUX)
    Blend: AUG-CC-PVTZ-RI
    Molecular point group: c1

    Geometry (in Angstrom), charge = 0, multiplicity = 1:

       Center              X                  Y                   Z               Mass
    ------------   -----------------  -----------------  -----------------  -----------------
         N            0.167123078586    -0.957137619528    -0.010809665015    14.003074004430
         N           -0.226254921414     1.407605380472    -0.003171665015    14.003074004430
         C            2.034295078586     0.573861380472     0.007939334985    12.000000000000
         C            2.946183078586    -0.373093619528    -0.740838665015    12.000000000000
         C            2.938485078586    -0.383738619528     0.752426334985    12.000000000000
         C            0.578793078586     0.326542380472    -0.000878665015    12.000000000000
         C           -2.090813921414    -0.121533619528    -0.010534665015    12.000000000000
         C           -1.156873921414    -1.160712619528    -0.014812665015    12.000000000000
         C           -1.545616921414     1.164136380472    -0.007248665015    12.000000000000
         C           -3.571677921414    -0.369873619528     0.019286334985    12.000000000000
         H            2.298409078586     1.626466380472     0.016552334985     1.007825032230
         H            3.797620078586     0.058699380472    -1.256897665015     1.007825032230
         H            2.461038078586    -1.201004619528    -1.246484665015     1.007825032230
         H            2.448334078586    -1.218842619528     1.241154334985     1.007825032230
         H            3.784524078586     0.040556380472     1.283369334985     1.007825032230
         H           -1.482816021414    -2.202424119528     0.021519734985     1.007825032230
         H           -2.193178921414     2.042089380472    -0.014674665015     1.007825032230
         H           -3.821973921414    -1.303954619528    -0.490924665015     1.007825032230
         H           -4.113942921414     0.442777380472    -0.471523665015     1.007825032230
         H           -3.937327921414    -0.442465619528     1.048604334985     1.007825032230

  Basis Set: AUG-CC-PVTZ
    Blend: AUG-CC-PVTZ
  Basis Set: (AUG-CC-PVTZ AUX)
    Blend: AUG-CC-PVTZ-JKFIT
	 Reference Energy          =    -417.7794047569165627 [Eh]
	 Singles Energy            =      -0.0000000000000000 [Eh]
	 Same-Spin Energy          =      -0.4577191168098800 [Eh]
	 Opposite-Spin Energy      =      -1.4475585581715733 [Eh]
	 Correlation Energy        =      -1.9052776749814533 [Eh]
	 Total Energy              =    -419.6846824318980111 [Eh]

	 ================> DF-SCS-MP2 Energies <==================
	-----------------------------------------------------------
	 SCS Same-Spin Scale       =       0.3333333333333333 [-]
	 SCS Opposite-Spin Scale   =       1.2000000000000000 [-]
	 SCS Same-Spin Energy      =      -0.1525730389366267 [Eh]
	 SCS Opposite-Spin Energy  =      -1.7370702698058880 [Eh]
	 SCS Correlation Energy    =      -1.8896433087425146 [Eh]
	 SCS Total Energy          =    -419.6690480656590694 [Eh]
	-----------------------------------------------------------

  Dipole Moment: [D]
     X:    -2.0473      Y:    -0.5728      Z:     0.0673     Total:     2.1270

*** Psi4 exiting successfully. Buy a developer a beer!
