                               Psi4 1.3.2 release

  ==> Input File <==

--------------------------------------------------------------------------
#psi4
#
memory 32 gb

molecule  {
0 1
  N        0.1723510    -0.9422650    -0.0110160
  N       -0.2210270     1.4224780    -0.0033780
  C        2.0395230     0.5887340     0.0077330
  C        2.9514110    -0.3582210    -0.7410450
  C        2.9437130    -0.3688660     0.7522200
  C        0.5840210     0.3414150    -0.0010850
  C       -2.0855860    -0.1066610    -0.0107410
  C       -1.1516460    -1.1458400    -0.0150190
  C       -1.5403890     1.1790090    -0.0074550
  C       -3.5643785    -0.3551426     0.1690656
  H        2.3036370     1.6413390     0.0163460
  H        3.8028480     0.0735720    -1.2571040
  H        2.4662660    -1.1861320    -1.2466910
  H        2.4535620    -1.2039700     1.2409480
  H        3.7897520     0.0554290     1.2831630
  H       -1.4774160    -2.1870700    -0.0286840
  H       -2.1879510     2.0569620    -0.0148810
  H       -3.8167460    -1.2890820    -0.4911310
  H       -4.1087150     0.4576500    -0.4717300
  H       -3.9321000    -0.4275930     1.0483980
units angstrom
no_reorient  #important for SAPT in psi4, default
symmetry c1  #important for SAPT in psi4, default
}

set PROPERTIES_ORIGIN ["COM"]
properties('MP2/aug-cc-pvtz', properties = ['dipole'])
--------------------------------------------------------------------------

    Molecular point group: c1
  Charge       = 0
  Multiplicity = 1
  Basis Set: AUG-CC-PVTZ
    Blend: AUG-CC-PVTZ
  Basis Set: (AUG-CC-PVTZ AUX)
    Blend: AUG-CC-PVTZ-JKFIT

    Orbital Energies [Eh]
    ---------------------

    Doubly Occupied:

       1A    -15.564271     2A    -15.564220     3A    -11.314758
       4A    -11.292505     5A    -11.291056     6A    -11.246474
       7A    -11.240437     8A    -11.231925     9A    -11.226442
      10A    -11.225759    11A     -1.302326    12A     -1.183128
      13A     -1.147674    14A     -1.087730    15A     -0.968989
      16A     -0.891723    17A     -0.877379    18A     -0.819177
      19A     -0.797184    20A     -0.715579    21A     -0.695441
      22A     -0.648994    23A     -0.633793    24A     -0.608551
      25A     -0.588528    26A     -0.581452    27A     -0.562410
      28A     -0.524263    29A     -0.515948    30A     -0.511804
      31A     -0.472133    32A     -0.435162    33A     -0.424729
      34A     -0.414761    35A     -0.402355    36A     -0.336826

  @DF-RHF Final Energy:  -417.75257910177214

   => Energetics <=

    Nuclear Repulsion Energy =            493.4727315394545144
    One-Electron Energy =               -1543.7588450912005555
    Two-Electron Energy =                 632.5335344499737857
    Total Energy =                       -417.7525791017721986
  Basis Set: (AUG-CC-PVTZ AUX)
    Blend: AUG-CC-PVTZ-RI
    Molecular point group: c1

    Geometry (in Angstrom), charge = 0, multiplicity = 1:

       Center              X                  Y                   Z               Mass
    ------------   -----------------  -----------------  -----------------  -----------------
         N            0.166936394326    -0.957128566034    -0.023856959036    14.003074004430
         N           -0.226441605674     1.407614433966    -0.016218959036    14.003074004430
         C            2.034108394326     0.573870433966    -0.005107959036    12.000000000000
         C            2.945996394326    -0.373084566034    -0.753885959036    12.000000000000
         C            2.938298394326    -0.383729566034     0.739379040964    12.000000000000
         C            0.578606394326     0.326551433966    -0.013925959036    12.000000000000
         C           -2.091000605674    -0.121524566034    -0.023581959036    12.000000000000
         C           -1.157060605674    -1.160703566034    -0.027859959036    12.000000000000
         C           -1.545803605674     1.164145433966    -0.020295959036    12.000000000000
         C           -3.569793105674    -0.370006166034     0.156224640964    12.000000000000
         H            2.298222394326     1.626475433966     0.003505040964     1.007825032230
         H            3.797433394326     0.058708433966    -1.269944959036     1.007825032230
         H            2.460851394326    -1.200995566034    -1.259531959036     1.007825032230
         H            2.448147394326    -1.218833566034     1.228107040964     1.007825032230
         H            3.784337394326     0.040565433966     1.270322040964     1.007825032230
         H           -1.482830605674    -2.201933566034    -0.041524959036     1.007825032230
         H           -2.193365605674     2.042098433966    -0.027721959036     1.007825032230
         H           -3.822160605674    -1.303945566034    -0.503971959036     1.007825032230
         H           -4.114129605674     0.442786433966    -0.484570959036     1.007825032230
         H           -3.937514605674    -0.442456566034     1.035557040964     1.007825032230

  Basis Set: AUG-CC-PVTZ
    Blend: AUG-CC-PVTZ
  Basis Set: (AUG-CC-PVTZ AUX)
    Blend: AUG-CC-PVTZ-JKFIT
	 Reference Energy          =    -417.7525791017721417 [Eh]
	 Singles Energy            =      -0.0000000000000000 [Eh]
	 Same-Spin Energy          =      -0.4578629664157841 [Eh]
	 Opposite-Spin Energy      =      -1.4484438081162008 [Eh]
	 Correlation Energy        =      -1.9063067745319848 [Eh]
	 Total Energy              =    -419.6588858763041117 [Eh]

	 ================> DF-SCS-MP2 Energies <==================
	-----------------------------------------------------------
	 SCS Same-Spin Scale       =       0.3333333333333333 [-]
	 SCS Opposite-Spin Scale   =       1.2000000000000000 [-]
	 SCS Same-Spin Energy      =      -0.1526209888052613 [Eh]
	 SCS Opposite-Spin Energy  =      -1.7381325697394410 [Eh]
	 SCS Correlation Energy    =      -1.8907535585447024 [Eh]
	 SCS Total Energy          =    -419.6433326603168439 [Eh]
	-----------------------------------------------------------

  Dipole Moment: [D]
     X:    -1.9253      Y:    -0.5567      Z:     0.0857     Total:     2.0060

*** Psi4 exiting successfully. Buy a developer a beer!
