                               Psi4 1.3.2 release

  ==> Input File <==

--------------------------------------------------------------------------
#psi4
#
memory 32 gb

molecule  {
0 1
  N        0.1723510    -0.9422650    -0.0110160
  N       -0.2210270     1.4224780    -0.0033780
  C        2.0395230     0.5887340     0.0077330
  C        2.9514110    -0.3582210    -0.7410450
  C        2.9437130    -0.3688660     0.7522200
  C        0.5840210     0.3414150    -0.0010850
  C       -2.0855860    -0.1066610    -0.0107410
  C       -1.1516460    -1.1458400    -0.0150190
  C       -1.5403890     1.1790090    -0.0074550
  C       -3.5664500    -0.3550010     0.0190800
  H        2.3036370     1.6413390     0.0163460
  H        3.8028480     0.0735720    -1.2571040
  H        2.4662660    -1.1861320    -1.2466910
  H        2.4535620    -1.2039700     1.2409480
  H        3.7897520     0.0554290     1.2831630
  H       -1.4781044    -2.1889961     0.1713055
  H       -2.1879510     2.0569620    -0.0148810
  H       -3.8167460    -1.2890820    -0.4911310
  H       -4.1087150     0.4576500    -0.4717300
  H       -3.9321000    -0.4275930     1.0483980
units angstrom
no_reorient  #important for SAPT in psi4, default
symmetry c1  #important for SAPT in psi4, default
}

set PROPERTIES_ORIGIN ["COM"]
properties('MP2/aug-cc-pvtz', properties = ['dipole'])
--------------------------------------------------------------------------

    Molecular point group: c1
  Charge       = 0
  Multiplicity = 1
  Basis Set: AUG-CC-PVTZ
    Blend: AUG-CC-PVTZ
  Basis Set: (AUG-CC-PVTZ AUX)
    Blend: AUG-CC-PVTZ-JKFIT

    Orbital Energies [Eh]
    ---------------------

    Doubly Occupied:

       1A    -15.564278     2A    -15.564254     3A    -11.313713
       4A    -11.293584     5A    -11.290488     6A    -11.245862
       7A    -11.238083     8A    -11.231413     9A    -11.225928
      10A    -11.225243    11A     -1.301887    12A     -1.182647
      13A     -1.147193    14A     -1.088136    15A     -0.967085
      16A     -0.890286    17A     -0.874660    18A     -0.818716
      19A     -0.795947    20A     -0.715024    21A     -0.694151
      22A     -0.645841    23A     -0.613237    24A     -0.599169
      25A     -0.591277    26A     -0.580395    27A     -0.557955
      28A     -0.554704    29A     -0.523363    30A     -0.511125
      31A     -0.471986    32A     -0.434231    33A     -0.424339
      34A     -0.414727    35A     -0.401899    36A     -0.334284

  @DF-RHF Final Energy:  -417.77680692986405

   => Energetics <=

    Nuclear Repulsion Energy =            493.4704100515828600
    One-Electron Energy =               -1543.8402112212759221
    Two-Electron Energy =                 632.5929942398290677
    Total Energy =                       -417.7768069298640512
  Basis Set: (AUG-CC-PVTZ AUX)
    Blend: AUG-CC-PVTZ-RI
    Molecular point group: c1

    Geometry (in Angstrom), charge = 0, multiplicity = 1:

       Center              X                  Y                   Z               Mass
    ------------   -----------------  -----------------  -----------------  -----------------
         N            0.167126959277    -0.957126761411    -0.011937057872    14.003074004430
         N           -0.226251040723     1.407616238589    -0.004299057872    14.003074004430
         C            2.034298959277     0.573872238589     0.006811942128    12.000000000000
         C            2.946186959277    -0.373082761411    -0.741966057872    12.000000000000
         C            2.938488959277    -0.383727761411     0.751298942128    12.000000000000
         C            0.578796959277     0.326553238589    -0.002006057872    12.000000000000
         C           -2.090810040723    -0.121522761411    -0.011662057872    12.000000000000
         C           -1.156870040723    -1.160701761411    -0.015940057872    12.000000000000
         C           -1.545613040723     1.164147238589    -0.008376057872    12.000000000000
         C           -3.571674040723    -0.369862761411     0.018158942128    12.000000000000
         H            2.298412959277     1.626477238589     0.015424942128     1.007825032230
         H            3.797623959277     0.058710238589    -1.258025057872     1.007825032230
         H            2.461041959277    -1.200993761411    -1.247612057872     1.007825032230
         H            2.448337959277    -1.218831761411     1.240026942128     1.007825032230
         H            3.784527959277     0.040567238589     1.282241942128     1.007825032230
         H           -1.483328440723    -2.203857861411     0.170384442128     1.007825032230
         H           -2.193175040723     2.042100238589    -0.015802057872     1.007825032230
         H           -3.821970040723    -1.303943761411    -0.492052057872     1.007825032230
         H           -4.113939040723     0.442788238589    -0.472651057872     1.007825032230
         H           -3.937324040723    -0.442454761411     1.047476942128     1.007825032230

  Basis Set: AUG-CC-PVTZ
    Blend: AUG-CC-PVTZ
  Basis Set: (AUG-CC-PVTZ AUX)
    Blend: AUG-CC-PVTZ-JKFIT
	 Reference Energy          =    -417.7768069298640512 [Eh]
	 Singles Energy            =      -0.0000000000000000 [Eh]
	 Same-Spin Energy          =      -0.4578898438826315 [Eh]
	 Opposite-Spin Energy      =      -1.4479307465868247 [Eh]
	 Correlation Energy        =      -1.9058205904694563 [Eh]
	 Total Energy              =    -419.6826275203334831 [Eh]

	 ================> DF-SCS-MP2 Energies <==================
	-----------------------------------------------------------
	 SCS Same-Spin Scale       =       0.3333333333333333 [-]
	 SCS Opposite-Spin Scale   =       1.2000000000000000 [-]
	 SCS Same-Spin Energy      =      -0.1526299479608772 [Eh]
	 SCS Opposite-Spin Energy  =      -1.7375168959041896 [Eh]
	 SCS Correlation Energy    =      -1.8901468438650668 [Eh]
	 SCS Total Energy          =    -419.6669537737291193 [Eh]
	-----------------------------------------------------------

  Dipole Moment: [D]
     X:    -2.0361      Y:    -0.5511      Z:     0.1299     Total:     2.1134

*** Psi4 exiting successfully. Buy a developer a beer!
