                               Psi4 1.3.2 release

  ==> Input File <==

--------------------------------------------------------------------------
#psi4
#
memory 32 gb

molecule  {
0 1
  N        0.1723510    -0.9422650    -0.0110160
  N       -0.2210270     1.4224780    -0.0033780
  C        2.0398483     0.5889496    -0.0422655
  C        2.9514110    -0.3582210    -0.7410450
  C        2.9437130    -0.3688660     0.7522200
  C        0.5840210     0.3414150    -0.0010850
  C       -2.0855860    -0.1066610    -0.0107410
  C       -1.1516460    -1.1458400    -0.0150190
  C       -1.5403890     1.1790090    -0.0074550
  C       -3.5664500    -0.3550010     0.0190800
  H        2.3036370     1.6413390     0.0163460
  H        3.8028480     0.0735720    -1.2571040
  H        2.4662660    -1.1861320    -1.2466910
  H        2.4535620    -1.2039700     1.2409480
  H        3.7897520     0.0554290     1.2831630
  H       -1.4774160    -2.1870700    -0.0286840
  H       -2.1879510     2.0569620    -0.0148810
  H       -3.8167460    -1.2890820    -0.4911310
  H       -4.1087150     0.4576500    -0.4717300
  H       -3.9321000    -0.4275930     1.0483980
units angstrom
no_reorient  #important for SAPT in psi4, default
symmetry c1  #important for SAPT in psi4, default
}

set PROPERTIES_ORIGIN ["COM"]
properties('MP2/aug-cc-pvtz', properties = ['dipole'])
--------------------------------------------------------------------------

    Molecular point group: c1
  Charge       = 0
  Multiplicity = 1
  Basis Set: AUG-CC-PVTZ
    Blend: AUG-CC-PVTZ
  Basis Set: (AUG-CC-PVTZ AUX)
    Blend: AUG-CC-PVTZ-JKFIT

    Orbital Energies [Eh]
    ---------------------

    Doubly Occupied:

       1A    -15.564067     2A    -15.564011     3A    -11.313695
       4A    -11.291869     5A    -11.290386     6A    -11.245615
       7A    -11.238152     8A    -11.231723     9A    -11.226019
      10A    -11.225148    11A     -1.301732    12A     -1.182584
      13A     -1.147261    14A     -1.088156    15A     -0.967078
      16A     -0.891359    17A     -0.874654    18A     -0.818925
      19A     -0.796308    20A     -0.715772    21A     -0.694751
      22A     -0.645929    23A     -0.613528    24A     -0.598401
      25A     -0.591505    26A     -0.582491    27A     -0.558429
      28A     -0.555042    29A     -0.523129    30A     -0.511082
      31A     -0.472014    32A     -0.439487    33A     -0.419316
      34A     -0.414196    35A     -0.402733    36A     -0.333879

  @DF-RHF Final Energy:  -417.77840307042300

   => Energetics <=

    Nuclear Repulsion Energy =            493.5232793307072825
    One-Electron Energy =               -1543.9425153697920905
    Two-Electron Energy =                 632.6408329686618117
    Total Energy =                       -417.7784030704229963
  Basis Set: (AUG-CC-PVTZ AUX)
    Blend: AUG-CC-PVTZ-RI
    Molecular point group: c1

    Geometry (in Angstrom), charge = 0, multiplicity = 1:

       Center              X                  Y                   Z               Mass
    ------------   -----------------  -----------------  -----------------  -----------------
         N            0.167092672016    -0.957160533959    -0.005959207845    14.003074004430
         N           -0.226285327984     1.407582466041     0.001678792155    14.003074004430
         C            2.034589972016     0.574054066041    -0.037208707845    12.000000000000
         C            2.946152672016    -0.373116533959    -0.735988207845    12.000000000000
         C            2.938454672016    -0.383761533959     0.757276792155    12.000000000000
         C            0.578762672016     0.326519466041     0.003971792155    12.000000000000
         C           -2.090844327984    -0.121556533959    -0.005684207845    12.000000000000
         C           -1.156904327984    -1.160735533959    -0.009962207845    12.000000000000
         C           -1.545647327984     1.164113466041    -0.002398207845    12.000000000000
         C           -3.571708327984    -0.369896533959     0.024136792155    12.000000000000
         H            2.298378672016     1.626443466041     0.021402792155     1.007825032230
         H            3.797589672016     0.058676466041    -1.252047207845     1.007825032230
         H            2.461007672016    -1.201027533959    -1.241634207845     1.007825032230
         H            2.448303672016    -1.218865533959     1.246004792155     1.007825032230
         H            3.784493672016     0.040533466041     1.288219792155     1.007825032230
         H           -1.482674327984    -2.201965533959    -0.023627207845     1.007825032230
         H           -2.193209327984     2.042066466041    -0.009824207845     1.007825032230
         H           -3.822004327984    -1.303977533959    -0.486074207845     1.007825032230
         H           -4.113973327984     0.442754466041    -0.466673207845     1.007825032230
         H           -3.937358327984    -0.442488533959     1.053454792155     1.007825032230

  Basis Set: AUG-CC-PVTZ
    Blend: AUG-CC-PVTZ
  Basis Set: (AUG-CC-PVTZ AUX)
    Blend: AUG-CC-PVTZ-JKFIT
	 Reference Energy          =    -417.7784030704229963 [Eh]
	 Singles Energy            =      -0.0000000000000000 [Eh]
	 Same-Spin Energy          =      -0.4577757202091713 [Eh]
	 Opposite-Spin Energy      =      -1.4476742432968228 [Eh]
	 Correlation Energy        =      -1.9054499635059940 [Eh]
	 Total Energy              =    -419.6838530339289832 [Eh]

	 ================> DF-SCS-MP2 Energies <==================
	-----------------------------------------------------------
	 SCS Same-Spin Scale       =       0.3333333333333333 [-]
	 SCS Opposite-Spin Scale   =       1.2000000000000000 [-]
	 SCS Same-Spin Energy      =      -0.1525919067363904 [Eh]
	 SCS Opposite-Spin Energy  =      -1.7372090919561873 [Eh]
	 SCS Correlation Energy    =      -1.8898009986925777 [Eh]
	 SCS Total Energy          =    -419.6682040691155748 [Eh]
	-----------------------------------------------------------

  Dipole Moment: [D]
     X:    -2.0462      Y:    -0.5733      Z:     0.0216     Total:     2.1251

*** Psi4 exiting successfully. Buy a developer a beer!
