                               Psi4 1.3.2 release

  ==> Input File <==

--------------------------------------------------------------------------
#psi4
#
memory 32 gb

molecule  {
0 1
  N        0.1723510    -0.9422650    -0.0110160
  N       -0.2210270     1.4224780    -0.0033780
  C        2.0395230     0.5887340     0.0077330
  C        2.9514110    -0.3582210    -0.7410450
  C        2.9437130    -0.3688660     0.7522200
  C        0.5840210     0.3414150    -0.0010850
  C       -2.0855860    -0.1066610    -0.0107410
  C       -1.1516460    -1.1458400    -0.0150190
  C       -1.5403890     1.1790090    -0.0074550
  C       -3.5664500    -0.3550010     0.0190800
  H        2.3036370     1.6413390     0.0163460
  H        3.8028480     0.0735720    -1.2571040
  H        2.4662660    -1.1861320    -1.2466910
  H        2.4535620    -1.2039700     1.2409480
  H        3.7897520     0.0554290     1.2831630
  H       -1.4779323    -2.1885146     0.1213082
  H       -2.1879510     2.0569620    -0.0148810
  H       -3.8167460    -1.2890820    -0.4911310
  H       -4.1087150     0.4576500    -0.4717300
  H       -3.9321000    -0.4275930     1.0483980
units angstrom
no_reorient  #important for SAPT in psi4, default
symmetry c1  #important for SAPT in psi4, default
}

set PROPERTIES_ORIGIN ["COM"]
properties('MP2/aug-cc-pvtz', properties = ['dipole'])
--------------------------------------------------------------------------

    Molecular point group: c1
  Charge       = 0
  Multiplicity = 1
  Basis Set: AUG-CC-PVTZ
    Blend: AUG-CC-PVTZ
  Basis Set: (AUG-CC-PVTZ AUX)
    Blend: AUG-CC-PVTZ-JKFIT

    Orbital Energies [Eh]
    ---------------------

    Doubly Occupied:

       1A    -15.564175     2A    -15.564145     3A    -11.313628
       4A    -11.292819     5A    -11.290425     6A    -11.245738
       7A    -11.238097     8A    -11.231372     9A    -11.225895
      10A    -11.225212    11A     -1.301810    12A     -1.182607
      13A     -1.147173    14A     -1.088126    15A     -0.967092
      16A     -0.890744    17A     -0.874683    18A     -0.818685
      19A     -0.796161    20A     -0.715353    21A     -0.694428
      22A     -0.645860    23A     -0.613371    24A     -0.598704
      25A     -0.591595    26A     -0.581297    27A     -0.558095
      28A     -0.554839    29A     -0.523425    30A     -0.511108
      31A     -0.471910    32A     -0.434189    33A     -0.424303
      34A     -0.414512    35A     -0.402288    36A     -0.334304

  @DF-RHF Final Energy:  -417.77805245226159

   => Energetics <=

    Nuclear Repulsion Energy =            493.5017814801018403
    One-Electron Energy =               -1543.9033364093811542
    Two-Electron Energy =                 632.6235024770178370
    Total Energy =                       -417.7780524522615906
  Basis Set: (AUG-CC-PVTZ AUX)
    Blend: AUG-CC-PVTZ-RI
    Molecular point group: c1

    Geometry (in Angstrom), charge = 0, multiplicity = 1:

       Center              X                  Y                   Z               Mass
    ------------   -----------------  -----------------  -----------------  -----------------
         N            0.167125665713    -0.957130380533    -0.011561260754    14.003074004430
         N           -0.226252334287     1.407612619467    -0.003923260754    14.003074004430
         C            2.034297665713     0.573868619467     0.007187739246    12.000000000000
         C            2.946185665713    -0.373086380533    -0.741590260754    12.000000000000
         C            2.938487665713    -0.383731380533     0.751674739246    12.000000000000
         C            0.578795665713     0.326549619467    -0.001630260754    12.000000000000
         C           -2.090811334287    -0.121526380533    -0.011286260754    12.000000000000
         C           -1.156871334287    -1.160705380533    -0.015564260754    12.000000000000
         C           -1.545614334287     1.164143619467    -0.008000260754    12.000000000000
         C           -3.571675334287    -0.369866380533     0.018534739246    12.000000000000
         H            2.298411665713     1.626473619467     0.015800739246     1.007825032230
         H            3.797622665713     0.058706619467    -1.257649260754     1.007825032230
         H            2.461040665713    -1.200997380533    -1.247236260754     1.007825032230
         H            2.448336665713    -1.218835380533     1.240402739246     1.007825032230
         H            3.784526665713     0.040563619467     1.282617739246     1.007825032230
         H           -1.483157634287    -2.203379980533     0.120762939246     1.007825032230
         H           -2.193176334287     2.042096619467    -0.015426260754     1.007825032230
         H           -3.821971334287    -1.303947380533    -0.491676260754     1.007825032230
         H           -4.113940334287     0.442784619467    -0.472275260754     1.007825032230
         H           -3.937325334287    -0.442458380533     1.047852739246     1.007825032230

  Basis Set: AUG-CC-PVTZ
    Blend: AUG-CC-PVTZ
  Basis Set: (AUG-CC-PVTZ AUX)
    Blend: AUG-CC-PVTZ-JKFIT
	 Reference Energy          =    -417.7780524522615906 [Eh]
	 Singles Energy            =      -0.0000000000000000 [Eh]
	 Same-Spin Energy          =      -0.4578090995002569 [Eh]
	 Opposite-Spin Energy      =      -1.4477548643390916 [Eh]
	 Correlation Energy        =      -1.9055639638393487 [Eh]
	 Total Energy              =    -419.6836164161009606 [Eh]

	 ================> DF-SCS-MP2 Energies <==================
	-----------------------------------------------------------
	 SCS Same-Spin Scale       =       0.3333333333333333 [-]
	 SCS Opposite-Spin Scale   =       1.2000000000000000 [-]
	 SCS Same-Spin Energy      =      -0.1526030331667523 [Eh]
	 SCS Opposite-Spin Energy  =      -1.7373058372069099 [Eh]
	 SCS Correlation Energy    =      -1.8899088703736622 [Eh]
	 SCS Total Energy          =    -419.6679613226352785 [Eh]
	-----------------------------------------------------------

  Dipole Moment: [D]
     X:    -2.0417      Y:    -0.5617      Z:     0.1093     Total:     2.1203

*** Psi4 exiting successfully. Buy a developer a beer!
