                               Psi4 1.3.2 release

  ==> Input File <==

--------------------------------------------------------------------------
#psi4
#
memory 32 gb

molecule  {
0 1
  N        0.1723510    -0.9422650    -0.0110160
  N       -0.2210270     1.4224780    -0.0033780
  C        2.0395230     0.5887340     0.0077330
  C        2.9514110    -0.3582210    -0.7410450
  C        2.9437130    -0.3688660     0.7522200
  C        0.5840210     0.3414150    -0.0010850
  C       -2.0855860    -0.1066610    -0.0107410
  C       -1.1516460    -1.1458400    -0.0150190
  C       -1.5403890     1.1790090    -0.0074550
  C       -3.5636879    -0.3551898     0.2190608
  H        2.3036370     1.6413390     0.0163460
  H        3.8028480     0.0735720    -1.2571040
  H        2.4662660    -1.1861320    -1.2466910
  H        2.4535620    -1.2039700     1.2409480
  H        3.7897520     0.0554290     1.2831630
  H       -1.4774160    -2.1870700    -0.0286840
  H       -2.1879510     2.0569620    -0.0148810
  H       -3.8167460    -1.2890820    -0.4911310
  H       -4.1087150     0.4576500    -0.4717300
  H       -3.9321000    -0.4275930     1.0483980
units angstrom
no_reorient  #important for SAPT in psi4, default
symmetry c1  #important for SAPT in psi4, default
}

set PROPERTIES_ORIGIN ["COM"]
properties('MP2/aug-cc-pvtz', properties = ['dipole'])
--------------------------------------------------------------------------

    Molecular point group: c1
  Charge       = 0
  Multiplicity = 1
  Basis Set: AUG-CC-PVTZ
    Blend: AUG-CC-PVTZ
  Basis Set: (AUG-CC-PVTZ AUX)
    Blend: AUG-CC-PVTZ-JKFIT

    Orbital Energies [Eh]
    ---------------------

    Doubly Occupied:

       1A    -15.564527     2A    -15.564475     3A    -11.315333
       4A    -11.292925     5A    -11.291492     6A    -11.247649
       7A    -11.242640     8A    -11.232237     9A    -11.226736
      10A    -11.226051    11A     -1.302710    12A     -1.183494
      13A     -1.147958    14A     -1.087670    15A     -0.971005
      16A     -0.892234    17A     -0.879665    18A     -0.819447
      19A     -0.797755    20A     -0.715912    21A     -0.696543
      22A     -0.655410    23A     -0.639918    24A     -0.608732
      25A     -0.587051    26A     -0.581593    27A     -0.560381
      28A     -0.524245    29A     -0.512090    30A     -0.503557
      31A     -0.472416    32A     -0.435195    33A     -0.424955
      34A     -0.415098    35A     -0.402309    36A     -0.337290

  @DF-RHF Final Energy:  -417.72885821116012

   => Energetics <=

    Nuclear Repulsion Energy =            493.4255933274858990
    One-Electron Energy =               -1543.5915050536762010
    Two-Electron Energy =                 632.4370535150301293
    Total Energy =                       -417.7288582111600590
  Basis Set: (AUG-CC-PVTZ AUX)
    Blend: AUG-CC-PVTZ-RI
    Molecular point group: c1

    Geometry (in Angstrom), charge = 0, multiplicity = 1:

       Center              X                  Y                   Z               Mass
    ------------   -----------------  -----------------  -----------------  -----------------
         N            0.166874588478    -0.957124341829    -0.028331323000    14.003074004430
         N           -0.226503411522     1.407618658171    -0.020693323000    14.003074004430
         C            2.034046588478     0.573874658171    -0.009582323000    12.000000000000
         C            2.945934588478    -0.373080341829    -0.758360323000    12.000000000000
         C            2.938236588478    -0.383725341829     0.734904677000    12.000000000000
         C            0.578544588478     0.326555658171    -0.018400323000    12.000000000000
         C           -2.091062411522    -0.121520341829    -0.028056323000    12.000000000000
         C           -1.157122411522    -1.160699341829    -0.032334323000    12.000000000000
         C           -1.545865411522     1.164149658171    -0.024770323000    12.000000000000
         C           -3.569164311522    -0.370049141829     0.201745477000    12.000000000000
         H            2.298160588478     1.626479658171    -0.000969323000     1.007825032230
         H            3.797371588478     0.058712658171    -1.274419323000     1.007825032230
         H            2.460789588478    -1.200991341829    -1.264006323000     1.007825032230
         H            2.448085588478    -1.218829341829     1.223632677000     1.007825032230
         H            3.784275588478     0.040569658171     1.265847677000     1.007825032230
         H           -1.482892411522    -2.201929341829    -0.045999323000     1.007825032230
         H           -2.193427411522     2.042102658171    -0.032196323000     1.007825032230
         H           -3.822222411522    -1.303941341829    -0.508446323000     1.007825032230
         H           -4.114191411522     0.442790658171    -0.489045323000     1.007825032230
         H           -3.937576411522    -0.442452341829     1.031082677000     1.007825032230

  Basis Set: AUG-CC-PVTZ
    Blend: AUG-CC-PVTZ
  Basis Set: (AUG-CC-PVTZ AUX)
    Blend: AUG-CC-PVTZ-JKFIT
	 Reference Energy          =    -417.7288582111601158 [Eh]
	 Singles Energy            =      -0.0000000000000000 [Eh]
	 Same-Spin Energy          =      -0.4580530758919386 [Eh]
	 Opposite-Spin Energy      =      -1.4492705312205065 [Eh]
	 Correlation Energy        =      -1.9073236071124451 [Eh]
	 Total Energy              =    -419.6361818182725756 [Eh]

	 ================> DF-SCS-MP2 Energies <==================
	-----------------------------------------------------------
	 SCS Same-Spin Scale       =       0.3333333333333333 [-]
	 SCS Opposite-Spin Scale   =       1.2000000000000000 [-]
	 SCS Same-Spin Energy      =      -0.1526843586306462 [Eh]
	 SCS Opposite-Spin Energy  =      -1.7391246374646079 [Eh]
	 SCS Correlation Energy    =      -1.8918089960952540 [Eh]
	 SCS Total Energy          =    -419.6206672072553943 [Eh]
	-----------------------------------------------------------

  Dipole Moment: [D]
     X:    -1.8657      Y:    -0.5481      Z:     0.0900     Total:     1.9467

*** Psi4 exiting successfully. Buy a developer a beer!
