                               Psi4 1.3.2 release

  ==> Input File <==

--------------------------------------------------------------------------
#psi4
#
memory 32 gb

molecule  {
0 1
  N        0.1723510    -0.9422650    -0.0110160
  N       -0.2210270     1.4224780    -0.0033780
  C        2.0408241     0.5895964    -0.1922609
  C        2.9514110    -0.3582210    -0.7410450
  C        2.9437130    -0.3688660     0.7522200
  C        0.5840210     0.3414150    -0.0010850
  C       -2.0855860    -0.1066610    -0.0107410
  C       -1.1516460    -1.1458400    -0.0150190
  C       -1.5403890     1.1790090    -0.0074550
  C       -3.5664500    -0.3550010     0.0190800
  H        2.3036370     1.6413390     0.0163460
  H        3.8028480     0.0735720    -1.2571040
  H        2.4662660    -1.1861320    -1.2466910
  H        2.4535620    -1.2039700     1.2409480
  H        3.7897520     0.0554290     1.2831630
  H       -1.4774160    -2.1870700    -0.0286840
  H       -2.1879510     2.0569620    -0.0148810
  H       -3.8167460    -1.2890820    -0.4911310
  H       -4.1087150     0.4576500    -0.4717300
  H       -3.9321000    -0.4275930     1.0483980
units angstrom
no_reorient  #important for SAPT in psi4, default
symmetry c1  #important for SAPT in psi4, default
}

set PROPERTIES_ORIGIN ["COM"]
properties('MP2/aug-cc-pvtz', properties = ['dipole'])
--------------------------------------------------------------------------

    Molecular point group: c1
  Charge       = 0
  Multiplicity = 1
  Basis Set: AUG-CC-PVTZ
    Blend: AUG-CC-PVTZ
  Basis Set: (AUG-CC-PVTZ AUX)
    Blend: AUG-CC-PVTZ-JKFIT

    Orbital Energies [Eh]
    ---------------------

    Doubly Occupied:

       1A    -15.564099     2A    -15.563824     3A    -11.315895
       4A    -11.291903     5A    -11.290568     6A    -11.245376
       7A    -11.238078     8A    -11.237387     9A    -11.227590
      10A    -11.225988    11A     -1.301675    12A     -1.182635
      13A     -1.148408    14A     -1.088349    15A     -0.966507
      16A     -0.891144    17A     -0.873658    18A     -0.822828
      19A     -0.794338    20A     -0.715050    21A     -0.694177
      22A     -0.646230    23A     -0.612535    24A     -0.598304
      25A     -0.591202    26A     -0.582437    27A     -0.559168
      28A     -0.554921    29A     -0.520103    30A     -0.509993
      31A     -0.477963    32A     -0.460528    33A     -0.414739
      34A     -0.403611    35A     -0.397045    36A     -0.326306

  @DF-RHF Final Energy:  -417.76130049345164

   => Energetics <=

    Nuclear Repulsion Energy =            493.2297965261855097
    One-Electron Energy =               -1543.3130768353405529
    Two-Electron Energy =                 632.3219798157034575
    Total Energy =                       -417.7613004934515857
  Basis Set: (AUG-CC-PVTZ AUX)
    Blend: AUG-CC-PVTZ-RI
    Molecular point group: c1

    Geometry (in Angstrom), charge = 0, multiplicity = 1:

       Center              X                  Y                   Z               Mass
    ------------   -----------------  -----------------  -----------------  -----------------
         N            0.167005341945    -0.957218419889     0.007464761106    14.003074004430
         N           -0.226372658055     1.407524580111     0.015102761106    14.003074004430
         C            2.035478441945     0.574642980111    -0.173780138894    12.000000000000
         C            2.946065341945    -0.373174419889    -0.722564238894    12.000000000000
         C            2.938367341945    -0.383819419889     0.770700761106    12.000000000000
         C            0.578675341945     0.326461580111     0.017395761106    12.000000000000
         C           -2.090931658055    -0.121614419889     0.007739761106    12.000000000000
         C           -1.156991658055    -1.160793419889     0.003461761106    12.000000000000
         C           -1.545734658055     1.164055580111     0.011025761106    12.000000000000
         C           -3.571795658055    -0.369954419889     0.037560761106    12.000000000000
         H            2.298291341945     1.626385580111     0.034826761106     1.007825032230
         H            3.797502341945     0.058618580111    -1.238623238894     1.007825032230
         H            2.460920341945    -1.201085419889    -1.228210238894     1.007825032230
         H            2.448216341945    -1.218923419889     1.259428761106     1.007825032230
         H            3.784406341945     0.040475580111     1.301643761106     1.007825032230
         H           -1.482761658055    -2.202023419889    -0.010203238894     1.007825032230
         H           -2.193296658055     2.042008580111     0.003599761106     1.007825032230
         H           -3.822091658055    -1.304035419889    -0.472650238894     1.007825032230
         H           -4.114060658055     0.442696580111    -0.453249238894     1.007825032230
         H           -3.937445658055    -0.442546419889     1.066878761106     1.007825032230

  Basis Set: AUG-CC-PVTZ
    Blend: AUG-CC-PVTZ
  Basis Set: (AUG-CC-PVTZ AUX)
    Blend: AUG-CC-PVTZ-JKFIT
	 Reference Energy          =    -417.7613004934516425 [Eh]
	 Singles Energy            =      -0.0000000000000000 [Eh]
	 Same-Spin Energy          =      -0.4587408435429358 [Eh]
	 Opposite-Spin Energy      =      -1.4497608055122684 [Eh]
	 Correlation Energy        =      -1.9085016490552040 [Eh]
	 Total Energy              =    -419.6698021425068532 [Eh]

	 ================> DF-SCS-MP2 Energies <==================
	-----------------------------------------------------------
	 SCS Same-Spin Scale       =       0.3333333333333333 [-]
	 SCS Opposite-Spin Scale   =       1.2000000000000000 [-]
	 SCS Same-Spin Energy      =      -0.1529136145143119 [Eh]
	 SCS Opposite-Spin Energy  =      -1.7397129666147220 [Eh]
	 SCS Correlation Energy    =      -1.8926265811290339 [Eh]
	 SCS Total Energy          =    -419.6539270745806789 [Eh]
	-----------------------------------------------------------

  Dipole Moment: [D]
     X:    -2.0180      Y:    -0.5832      Z:    -0.0434     Total:     2.1010

*** Psi4 exiting successfully. Buy a developer a beer!
