                               Psi4 1.4a3.dev225

  ==> Input File <==

--------------------------------------------------------------------------
#psi4
#
memory 32 gb

molecule  {
0 1
  O       -1.2691620    -1.9635190    -0.2989340
  N       -1.5914490     0.7494560    -0.4145900
  C       -0.3130270     0.2119120    -0.1595780
  C        0.8301940     1.0305910    -0.0518670
  C       -0.1431580    -1.1878580    -0.1217090
  C        2.0898390     0.4471990     0.1357390
  C        0.6950280     2.5311170    -0.1166830
  C        1.1116310    -1.7522480     0.0999640
  C        2.0758783    -1.0520517     0.1934054
  C       -2.6427770     0.4546790     0.5677560
  H        2.9635850     1.0904280     0.2186520
  H       -1.5238420     1.7535930    -0.5485080
  H        0.3450640     2.8711750    -1.0989170
  H       -0.0074210     2.9084320     0.6355410
  H        1.6619860     3.0062270     0.0664270
  H        1.2125710    -2.8369000     0.1368280
  H        3.2163680    -1.3783700     0.3701280
  H       -2.3586210     0.7219050     1.5961240
  H       -2.8840400    -0.6056810     0.5350110
  H       -3.5330900     1.0242430     0.2900250
  H       -0.9887950    -2.8960920    -0.2836830
units angstrom
no_reorient  #important for SAPT in psi4, default
symmetry c1  #important for SAPT in psi4, default
}

set PROPERTIES_ORIGIN ["COM"]
properties('MP2/aug-cc-pvtz', properties = ['dipole'])
--------------------------------------------------------------------------

    Molecular point group: c1
  Charge       = 0
  Multiplicity = 1
  Basis Set: AUG-CC-PVTZ
    Blend: AUG-CC-PVTZ
  Basis Set: (AUG-CC-PVTZ AUX)
    Blend: AUG-CC-PVTZ-JKFIT

    Orbital Energies [Eh]
    ---------------------

    Doubly Occupied:

       1A    -20.587928     2A    -15.551005     3A    -11.292991
       4A    -11.257343     5A    -11.242340     6A    -11.237972
       7A    -11.230205     8A    -11.228954     9A    -11.227446
      10A    -11.210474    11A     -1.397055    12A     -1.222069
      13A     -1.150696    14A     -1.060855    15A     -0.984017
      16A     -0.938421    17A     -0.901786    18A     -0.815764
      19A     -0.802324    20A     -0.711976    21A     -0.691894
      22A     -0.675382    23A     -0.614345    24A     -0.600800
      25A     -0.599113    26A     -0.590741    27A     -0.573094
      28A     -0.571909    29A     -0.558423    30A     -0.545659
      31A     -0.522507    32A     -0.511511    33A     -0.482717
      34A     -0.446275    35A     -0.418330    36A     -0.336580
      37A     -0.279430

  @DF-RHF Final Energy:  -438.73854457994571

   => Energetics <=

    Nuclear Repulsion Energy =            526.5843695581008888
    One-Electron Energy =               -1640.5051647268196575
    Two-Electron Energy =                 675.1822505887730586
    Total Energy =                       -438.7385445799457102
  Basis Set: (AUG-CC-PVTZ AUX)
    Blend: AUG-CC-PVTZ-RI
    Molecular point group: c1

    Geometry (in Angstrom), charge = 0, multiplicity = 1:

       Center              X                  Y                   Z               Mass
    ------------   -----------------  -----------------  -----------------  -----------------
         O           -1.268774723404    -1.912394853399    -0.283687910142    15.994914619570
         N           -1.591061723404     0.800580146601    -0.399343910142    14.003074004430
         C           -0.312639723404     0.263036146601    -0.144331910142    12.000000000000
         C            0.830581276596     1.081715146601    -0.036620910142    12.000000000000
         C           -0.142770723404    -1.136733853399    -0.106462910142    12.000000000000
         C            2.090226276596     0.498323146601     0.150985089858    12.000000000000
         C            0.695415276596     2.582241146601    -0.101436910142    12.000000000000
         C            1.112018276596    -1.701123853399     0.115210089858    12.000000000000
         C            2.076265576596    -1.000927553399     0.208651489858    12.000000000000
         C           -2.642389723404     0.505803146601     0.583002089858    12.000000000000
         H            2.963972276596     1.141552146601     0.233898089858     1.007825032230
         H           -1.523454723404     1.804717146601    -0.533261910142     1.007825032230
         H            0.345451276596     2.922299146601    -1.083670910142     1.007825032230
         H           -0.007033723404     2.959556146601     0.650787089858     1.007825032230
         H            1.662373276596     3.057351146601     0.081673089858     1.007825032230
         H            1.212958276596    -2.785775853399     0.152074089858     1.007825032230
         H            3.216755276596    -1.327245853399     0.385374089858     1.007825032230
         H           -2.358233723404     0.773029146601     1.611370089858     1.007825032230
         H           -2.883652723404    -0.554556853399     0.550257089858     1.007825032230
         H           -3.532702723404     1.075367146601     0.305271089858     1.007825032230
         H           -0.988407723404    -2.844967853399    -0.268436910142     1.007825032230

  Basis Set: AUG-CC-PVTZ
    Blend: AUG-CC-PVTZ
  Basis Set: (AUG-CC-PVTZ AUX)
    Blend: AUG-CC-PVTZ-JKFIT
	 Reference Energy          =    -438.7385445799457102 [Eh]
	 Singles Energy            =      -0.0000000000000000 [Eh]
	 Same-Spin Energy          =      -0.4733951077817484 [Eh]
	 Opposite-Spin Energy      =      -1.4986125737868754 [Eh]
	 Correlation Energy        =      -1.9720076815686238 [Eh]
	 Total Energy              =    -440.7105522615143514 [Eh]

	 ================> DF-SCS-MP2 Energies <==================
	-----------------------------------------------------------
	 SCS Same-Spin Scale       =       0.3333333333333333 [-]
	 SCS Opposite-Spin Scale   =       1.2000000000000000 [-]
	 SCS Same-Spin Energy      =      -0.1577983692605828 [Eh]
	 SCS Opposite-Spin Energy  =      -1.7983350885442504 [Eh]
	 SCS Correlation Energy    =      -1.9561334578048333 [Eh]
	 SCS Total Energy          =    -440.6946780377505206 [Eh]
	-----------------------------------------------------------

  Dipole Moment: [D]
     X:     0.2583      Y:     0.0237      Z:     0.7756     Total:     0.8179

*** Psi4 exiting successfully. Buy a developer a beer!
