                               Psi4 1.4a3.dev225

  ==> Input File <==

--------------------------------------------------------------------------
#psi4
#
memory 32 gb

molecule  {
0 1
  O       -1.2691620    -1.9635190    -0.2989340
  N       -1.5914490     0.7494560    -0.4145900
  C       -0.3130270     0.2119120    -0.1595780
  C        0.8301940     1.0305910    -0.0518670
  C       -0.1431580    -1.1878580    -0.1217090
  C        2.0898390     0.4471990     0.1357390
  C        0.6950280     2.5311170    -0.1166830
  C        1.1116310    -1.7522480     0.0999640
  C        2.2266275    -0.8355967     0.2037736
  C       -2.6427770     0.4546790     0.5677560
  H        2.9635850     1.0904280     0.2186520
  H       -1.5238420     1.7535930    -0.5485080
  H        0.3450640     2.8711750    -1.0989170
  H       -0.0074210     2.9084320     0.6355410
  H        1.6619860     3.0062270     0.0664270
  H        1.2125710    -2.8369000     0.1368280
  H        3.2163680    -1.3783700     0.3701280
  H       -2.3586210     0.7219050     1.5961240
  H       -2.8840400    -0.6056810     0.5350110
  H       -3.5330900     1.0242430     0.2900250
  H       -0.9887950    -2.8960920    -0.2836830
units angstrom
no_reorient  #important for SAPT in psi4, default
symmetry c1  #important for SAPT in psi4, default
}

set PROPERTIES_ORIGIN ["COM"]
properties('MP2/aug-cc-pvtz', properties = ['dipole'])
--------------------------------------------------------------------------

    Molecular point group: c1
  Charge       = 0
  Multiplicity = 1
  Basis Set: AUG-CC-PVTZ
    Blend: AUG-CC-PVTZ
  Basis Set: (AUG-CC-PVTZ AUX)
    Blend: AUG-CC-PVTZ-JKFIT

    Orbital Energies [Eh]
    ---------------------

    Doubly Occupied:

       1A    -20.586911     2A    -15.554131     3A    -11.296305
       4A    -11.263386     5A    -11.239966     6A    -11.239542
       7A    -11.232247     8A    -11.229158     9A    -11.228239
      10A    -11.212399    11A     -1.396859    12A     -1.224408
      13A     -1.138333    14A     -1.035812    15A     -1.005431
      16A     -0.939318    17A     -0.898040    18A     -0.826807
      19A     -0.793561    20A     -0.707205    21A     -0.693129
      22A     -0.671337    23A     -0.620506    24A     -0.605298
      25A     -0.598816    26A     -0.587606    27A     -0.577618
      28A     -0.570107    29A     -0.560108    30A     -0.535062
      31A     -0.524229    32A     -0.505089    33A     -0.476981
      34A     -0.475031    35A     -0.414911    36A     -0.317143
      37A     -0.295106

  @DF-RHF Final Energy:  -438.78768660361249

   => Energetics <=

    Nuclear Repulsion Energy =            525.2250907249846250
    One-Electron Energy =               -1637.8732909480245326
    Two-Electron Energy =                 673.8605136194275929
    Total Energy =                       -438.7876866036124284
  Basis Set: (AUG-CC-PVTZ AUX)
    Blend: AUG-CC-PVTZ-RI
    Molecular point group: c1

    Geometry (in Angstrom), charge = 0, multiplicity = 1:

       Center              X                  Y                   Z               Mass
    ------------   -----------------  -----------------  -----------------  -----------------
         O           -1.281970935622    -1.931342788882    -0.284595516733    15.994914619570
         N           -1.604257935622     0.781632211118    -0.400251516733    14.003074004430
         C           -0.325835935622     0.244088211118    -0.145239516733    12.000000000000
         C            0.817385064378     1.062767211118    -0.037528516733    12.000000000000
         C           -0.155966935622    -1.155681788882    -0.107370516733    12.000000000000
         C            2.077030064378     0.479375211118     0.150077483267    12.000000000000
         C            0.682219064378     2.563293211118    -0.102344516733    12.000000000000
         C            1.098822064378    -1.720071788882     0.114302483267    12.000000000000
         C            2.213818564378    -0.803420488882     0.218112083267    12.000000000000
         C           -2.655585935622     0.486855211118     0.582094483267    12.000000000000
         H            2.950776064378     1.122604211118     0.232990483267     1.007825032230
         H           -1.536650935622     1.785769211118    -0.534169516733     1.007825032230
         H            0.332255064378     2.903351211118    -1.084578516733     1.007825032230
         H           -0.020229935622     2.940608211118     0.649879483267     1.007825032230
         H            1.649177064378     3.038403211118     0.080765483267     1.007825032230
         H            1.199762064378    -2.804723788882     0.151166483267     1.007825032230
         H            3.203559064378    -1.346193788882     0.384466483267     1.007825032230
         H           -2.371429935622     0.754081211118     1.610462483267     1.007825032230
         H           -2.896848935622    -0.573504788882     0.549349483267     1.007825032230
         H           -3.545898935622     1.056419211118     0.304363483267     1.007825032230
         H           -1.001603935622    -2.863915788882    -0.269344516733     1.007825032230

  Basis Set: AUG-CC-PVTZ
    Blend: AUG-CC-PVTZ
  Basis Set: (AUG-CC-PVTZ AUX)
    Blend: AUG-CC-PVTZ-JKFIT
	 Reference Energy          =    -438.7876866036124852 [Eh]
	 Singles Energy            =      -0.0000000000000000 [Eh]
	 Same-Spin Energy          =      -0.4734152718286888 [Eh]
	 Opposite-Spin Energy      =      -1.4973655368171470 [Eh]
	 Correlation Energy        =      -1.9707808086458358 [Eh]
	 Total Energy              =    -440.7584674122583124 [Eh]

	 ================> DF-SCS-MP2 Energies <==================
	-----------------------------------------------------------
	 SCS Same-Spin Scale       =       0.3333333333333333 [-]
	 SCS Opposite-Spin Scale   =       1.2000000000000000 [-]
	 SCS Same-Spin Energy      =      -0.1578050906095629 [Eh]
	 SCS Opposite-Spin Energy  =      -1.7968386441805764 [Eh]
	 SCS Correlation Energy    =      -1.9546437347901393 [Eh]
	 SCS Total Energy          =    -440.7423303384026099 [Eh]
	-----------------------------------------------------------

  Dipole Moment: [D]
     X:     0.1621      Y:     0.1075      Z:     0.7726     Total:     0.7967

*** Psi4 exiting successfully. Buy a developer a beer!
