                               Psi4 1.4a3.dev225

  ==> Input File <==

--------------------------------------------------------------------------
#psi4
#
memory 32 gb

molecule  {
0 1
  O       -1.2691620    -1.9635190    -0.2989340
  N       -1.5914490     0.7494560    -0.4145900
  C       -0.3130270     0.2119120    -0.1595780
  C        0.8301940     1.0305910    -0.0518670
  C       -0.1431580    -1.1878580    -0.1217090
  C        2.0659683     0.4442590     0.1323247
  C        0.6950280     2.5311170    -0.1166830
  C        1.1116310    -1.7522480     0.0999640
  C        2.2372160    -0.9348950     0.2090400
  C       -2.6427770     0.4546790     0.5677560
  H        2.9635850     1.0904280     0.2186520
  H       -1.5238420     1.7535930    -0.5485080
  H        0.3450640     2.8711750    -1.0989170
  H       -0.0074210     2.9084320     0.6355410
  H        1.6619860     3.0062270     0.0664270
  H        1.2125710    -2.8369000     0.1368280
  H        3.2163680    -1.3783700     0.3701280
  H       -2.3586210     0.7219050     1.5961240
  H       -2.8840400    -0.6056810     0.5350110
  H       -3.5330900     1.0242430     0.2900250
  H       -0.9887950    -2.8960920    -0.2836830
units angstrom
no_reorient  #important for SAPT in psi4, default
symmetry c1  #important for SAPT in psi4, default
}

set PROPERTIES_ORIGIN ["COM"]
properties('MP2/aug-cc-pvtz', properties = ['dipole'])
--------------------------------------------------------------------------

    Molecular point group: c1
  Charge       = 0
  Multiplicity = 1
  Basis Set: AUG-CC-PVTZ
    Blend: AUG-CC-PVTZ
  Basis Set: (AUG-CC-PVTZ AUX)
    Blend: AUG-CC-PVTZ-JKFIT

    Orbital Energies [Eh]
    ---------------------

    Doubly Occupied:

       1A    -20.586380     2A    -15.553980     3A    -11.293843
       4A    -11.263104     5A    -11.239814     6A    -11.238283
       7A    -11.231574     8A    -11.230330     9A    -11.229528
      10A    -11.223604    11A     -1.396086    12A     -1.224129
      13A     -1.133282    14A     -1.042000    15A     -0.993523
      16A     -0.938343    17A     -0.901205    18A     -0.823057
      19A     -0.800611    20A     -0.707218    21A     -0.691960
      22A     -0.671297    23A     -0.617554    24A     -0.607151
      25A     -0.597120    26A     -0.587793    27A     -0.575793
      28A     -0.570666    29A     -0.559615    30A     -0.535643
      31A     -0.530141    32A     -0.500541    33A     -0.486235
      34A     -0.471330    35A     -0.412898    36A     -0.320314
      37A     -0.289680

  @DF-RHF Final Energy:  -438.80045932102871

   => Energetics <=

    Nuclear Repulsion Energy =            524.5969756207977071
    One-Electron Energy =               -1636.6436135780581935
    Two-Electron Energy =                 673.2461786362316616
    Total Energy =                       -438.8004593210287112
  Basis Set: (AUG-CC-PVTZ AUX)
    Blend: AUG-CC-PVTZ-RI
    Molecular point group: c1

    Geometry (in Angstrom), charge = 0, multiplicity = 1:

       Center              X                  Y                   Z               Mass
    ------------   -----------------  -----------------  -----------------  -----------------
         O           -1.280808244676    -1.922393100900    -0.284757644988    15.994914619570
         N           -1.603095244676     0.790581899100    -0.400413644988    14.003074004430
         C           -0.324673244676     0.253037899100    -0.145401644988    12.000000000000
         C            0.818547755324     1.071716899100    -0.037690644988    12.000000000000
         C           -0.154804244676    -1.146732100900    -0.107532644988    12.000000000000
         C            2.054322055324     0.485384899100     0.146501055012    12.000000000000
         C            0.683381755324     2.572242899100    -0.102506644988    12.000000000000
         C            1.099984755324    -1.711122100900     0.114140355012    12.000000000000
         C            2.225569755324    -0.893769100900     0.223216355012    12.000000000000
         C           -2.654423244676     0.495804899100     0.581932355012    12.000000000000
         H            2.951938755324     1.131553899100     0.232828355012     1.007825032230
         H           -1.535488244676     1.794718899100    -0.534331644988     1.007825032230
         H            0.333417755324     2.912300899100    -1.084740644988     1.007825032230
         H           -0.019067244676     2.949557899100     0.649717355012     1.007825032230
         H            1.650339755324     3.047352899100     0.080603355012     1.007825032230
         H            1.200924755324    -2.795774100900     0.151004355012     1.007825032230
         H            3.204721755324    -1.337244100900     0.384304355012     1.007825032230
         H           -2.370267244676     0.763030899100     1.610300355012     1.007825032230
         H           -2.895686244676    -0.564555100900     0.549187355012     1.007825032230
         H           -3.544736244676     1.065368899100     0.304201355012     1.007825032230
         H           -1.000441244676    -2.854966100900    -0.269506644988     1.007825032230

  Basis Set: AUG-CC-PVTZ
    Blend: AUG-CC-PVTZ
  Basis Set: (AUG-CC-PVTZ AUX)
    Blend: AUG-CC-PVTZ-JKFIT
	 Reference Energy          =    -438.8004593210287112 [Eh]
	 Singles Energy            =      -0.0000000000000000 [Eh]
	 Same-Spin Energy          =      -0.4737995504782736 [Eh]
	 Opposite-Spin Energy      =      -1.4972616220960997 [Eh]
	 Correlation Energy        =      -1.9710611725743732 [Eh]
	 Total Energy              =    -440.7715204936030773 [Eh]

	 ================> DF-SCS-MP2 Energies <==================
	-----------------------------------------------------------
	 SCS Same-Spin Scale       =       0.3333333333333333 [-]
	 SCS Opposite-Spin Scale   =       1.2000000000000000 [-]
	 SCS Same-Spin Energy      =      -0.1579331834927579 [Eh]
	 SCS Opposite-Spin Energy  =      -1.7967139465153197 [Eh]
	 SCS Correlation Energy    =      -1.9546471300080774 [Eh]
	 SCS Total Energy          =    -440.7551064510367951 [Eh]
	-----------------------------------------------------------

  Dipole Moment: [D]
     X:     0.1885      Y:     0.0984      Z:     0.7786     Total:     0.8071

*** Psi4 exiting successfully. Buy a developer a beer!
