                               Psi4 1.4a3.dev225

  ==> Input File <==

--------------------------------------------------------------------------
#psi4
#
memory 32 gb

molecule  {
0 1
  O       -1.2691620    -1.9635190    -0.2989340
  N       -1.5914490     0.7494560    -0.4145900
  C       -0.3130270     0.2119120    -0.1595780
  C        0.8301940     1.0305910    -0.0518670
  C       -0.1431580    -1.1878580    -0.1217090
  C        1.9475418     0.4232800     0.1156242
  C        0.6950280     2.5311170    -0.1166830
  C        1.1116310    -1.7522480     0.0999640
  C        2.2372160    -0.9348950     0.2090400
  C       -2.6427770     0.4546790     0.5677560
  H        2.9635850     1.0904280     0.2186520
  H       -1.5238420     1.7535930    -0.5485080
  H        0.3450640     2.8711750    -1.0989170
  H       -0.0074210     2.9084320     0.6355410
  H        1.6619860     3.0062270     0.0664270
  H        1.2125710    -2.8369000     0.1368280
  H        3.2163680    -1.3783700     0.3701280
  H       -2.3586210     0.7219050     1.5961240
  H       -2.8840400    -0.6056810     0.5350110
  H       -3.5330900     1.0242430     0.2900250
  H       -0.9887950    -2.8960920    -0.2836830
units angstrom
no_reorient  #important for SAPT in psi4, default
symmetry c1  #important for SAPT in psi4, default
}

set PROPERTIES_ORIGIN ["COM"]
properties('MP2/aug-cc-pvtz', properties = ['dipole'])
--------------------------------------------------------------------------

    Molecular point group: c1
  Charge       = 0
  Multiplicity = 1
  Basis Set: AUG-CC-PVTZ
    Blend: AUG-CC-PVTZ
  Basis Set: (AUG-CC-PVTZ AUX)
    Blend: AUG-CC-PVTZ-JKFIT

    Orbital Energies [Eh]
    ---------------------

    Doubly Occupied:

       1A    -20.584097     2A    -15.554472     3A    -11.289338
       4A    -11.263880     5A    -11.240084     6A    -11.233349
       7A    -11.230896     8A    -11.230610     9A    -11.227383
      10A    -11.222897    11A     -1.394054    12A     -1.226203
      13A     -1.146260    14A     -1.049119    15A     -0.990294
      16A     -0.942897    17A     -0.904318    18A     -0.826941
      19A     -0.797616    20A     -0.712565    21A     -0.688972
      22A     -0.668490    23A     -0.621925    24A     -0.606633
      25A     -0.592628    26A     -0.586226    27A     -0.577288
      28A     -0.573246    29A     -0.558703    30A     -0.539890
      31A     -0.533786    32A     -0.494562    33A     -0.480661
      34A     -0.465619    35A     -0.411664    36A     -0.332460
      37A     -0.286227

  @DF-RHF Final Energy:  -438.77381234058419

   => Energetics <=

    Nuclear Repulsion Energy =            527.0051134584832653
    One-Electron Energy =               -1641.3853446501586859
    Two-Electron Energy =                 675.6064188510912345
    Total Energy =                       -438.7738123405841861
  Basis Set: (AUG-CC-PVTZ AUX)
    Blend: AUG-CC-PVTZ-RI
    Molecular point group: c1

    Geometry (in Angstrom), charge = 0, multiplicity = 1:

       Center              X                  Y                   Z               Mass
    ------------   -----------------  -----------------  -----------------  -----------------
         O           -1.270441481693    -1.920556651113    -0.283295724512    15.994914619570
         N           -1.592728481693     0.792418348887    -0.398951724512    14.003074004430
         C           -0.314306481693     0.254874348887    -0.143939724512    12.000000000000
         C            0.828914518307     1.073553348887    -0.036228724512    12.000000000000
         C           -0.144437481693    -1.144895651113    -0.106070724512    12.000000000000
         C            1.946262318307     0.466242348887     0.131262475488    12.000000000000
         C            0.693748518307     2.574079348887    -0.101044724512    12.000000000000
         C            1.110351518307    -1.709285651113     0.115602275488    12.000000000000
         C            2.235936518307    -0.891932651113     0.224678275488    12.000000000000
         C           -2.644056481693     0.497641348887     0.583394275488    12.000000000000
         H            2.962305518307     1.133390348887     0.234290275488     1.007825032230
         H           -1.525121481693     1.796555348887    -0.532869724512     1.007825032230
         H            0.343784518307     2.914137348887    -1.083278724512     1.007825032230
         H           -0.008700481693     2.951394348887     0.651179275488     1.007825032230
         H            1.660706518307     3.049189348887     0.082065275488     1.007825032230
         H            1.211291518307    -2.793937651113     0.152466275488     1.007825032230
         H            3.215088518307    -1.335407651113     0.385766275488     1.007825032230
         H           -2.359900481693     0.764867348887     1.611762275488     1.007825032230
         H           -2.885319481693    -0.562718651113     0.550649275488     1.007825032230
         H           -3.534369481693     1.067205348887     0.305663275488     1.007825032230
         H           -0.990074481693    -2.853129651113    -0.268044724512     1.007825032230

  Basis Set: AUG-CC-PVTZ
    Blend: AUG-CC-PVTZ
  Basis Set: (AUG-CC-PVTZ AUX)
    Blend: AUG-CC-PVTZ-JKFIT
	 Reference Energy          =    -438.7738123405841861 [Eh]
	 Singles Energy            =      -0.0000000000000000 [Eh]
	 Same-Spin Energy          =      -0.4744011152498261 [Eh]
	 Opposite-Spin Energy      =      -1.4984745790992728 [Eh]
	 Correlation Energy        =      -1.9728756943490988 [Eh]
	 Total Energy              =    -440.7466880349332996 [Eh]

	 ================> DF-SCS-MP2 Energies <==================
	-----------------------------------------------------------
	 SCS Same-Spin Scale       =       0.3333333333333333 [-]
	 SCS Opposite-Spin Scale   =       1.2000000000000000 [-]
	 SCS Same-Spin Energy      =      -0.1581337050832753 [Eh]
	 SCS Opposite-Spin Energy  =      -1.7981694949191274 [Eh]
	 SCS Correlation Energy    =      -1.9563032000024028 [Eh]
	 SCS Total Energy          =    -440.7301155405866098 [Eh]
	-----------------------------------------------------------

  Dipole Moment: [D]
     X:     0.1471      Y:     0.0745      Z:     0.7762     Total:     0.7935

*** Psi4 exiting successfully. Buy a developer a beer!
