                               Psi4 1.4a3.dev225

  ==> Input File <==

--------------------------------------------------------------------------
#psi4
#
memory 32 gb

molecule  {
0 1
  O       -1.2691620    -1.9635190    -0.2989340
  N       -1.5914490     0.7494560    -0.4145900
  C       -0.3130270     0.2119120    -0.1595780
  C        0.8301940     1.0305910    -0.0518670
  C       -0.1431580    -1.1878580    -0.1217090
  C        2.0898390     0.4471990     0.1357390
  C        0.6950280     2.5311170    -0.1166830
  C        1.1116310    -1.7522480     0.0999640
  C        2.2478045    -1.0341933     0.2143064
  C       -2.6427770     0.4546790     0.5677560
  H        2.9635850     1.0904280     0.2186520
  H       -1.5238420     1.7535930    -0.5485080
  H        0.3450640     2.8711750    -1.0989170
  H       -0.0074210     2.9084320     0.6355410
  H        1.6619860     3.0062270     0.0664270
  H        1.2125710    -2.8369000     0.1368280
  H        3.2163680    -1.3783700     0.3701280
  H       -2.3586210     0.7219050     1.5961240
  H       -2.8840400    -0.6056810     0.5350110
  H       -3.5330900     1.0242430     0.2900250
  H       -0.9887950    -2.8960920    -0.2836830
units angstrom
no_reorient  #important for SAPT in psi4, default
symmetry c1  #important for SAPT in psi4, default
}

set PROPERTIES_ORIGIN ["COM"]
properties('MP2/aug-cc-pvtz', properties = ['dipole'])
--------------------------------------------------------------------------

    Molecular point group: c1
  Charge       = 0
  Multiplicity = 1
  Basis Set: AUG-CC-PVTZ
    Blend: AUG-CC-PVTZ
  Basis Set: (AUG-CC-PVTZ AUX)
    Blend: AUG-CC-PVTZ-JKFIT

    Orbital Energies [Eh]
    ---------------------

    Doubly Occupied:

       1A    -20.586843     2A    -15.554021     3A    -11.293368
       4A    -11.263127     5A    -11.241354     6A    -11.239796
       7A    -11.233158     8A    -11.232332     9A    -11.229518
      10A    -11.229332    11A     -1.396195    12A     -1.223675
      13A     -1.127178    14A     -1.045981    15A     -0.987899
      16A     -0.934416    17A     -0.903108    18A     -0.819944
      19A     -0.806871    20A     -0.704972    21A     -0.693454
      22A     -0.675847    23A     -0.618572    24A     -0.609836
      25A     -0.596752    26A     -0.587915    27A     -0.573560
      28A     -0.569100    29A     -0.559815    30A     -0.544312
      31A     -0.528434    32A     -0.505905    33A     -0.475098
      34A     -0.466926    35A     -0.412494    36A     -0.323835
      37A     -0.283583

  @DF-RHF Final Energy:  -438.78907720720031

   => Energetics <=

    Nuclear Repulsion Energy =            523.1728453874358138
    One-Electron Energy =               -1633.7667923965050250
    Two-Electron Energy =                 671.8048698018690175
    Total Energy =                       -438.7890772072003074
  Basis Set: (AUG-CC-PVTZ AUX)
    Blend: AUG-CC-PVTZ-RI
    Molecular point group: c1

    Geometry (in Angstrom), charge = 0, multiplicity = 1:

       Center              X                  Y                   Z               Mass
    ------------   -----------------  -----------------  -----------------  -----------------
         O           -1.283824717839    -1.913958133578    -0.285517532001    15.994914619570
         N           -1.606111717839     0.799016866422    -0.401173532001    14.003074004430
         C           -0.327689717839     0.261472866422    -0.146161532001    12.000000000000
         C            0.815531282161     1.080151866422    -0.038450532001    12.000000000000
         C           -0.157820717839    -1.138297133578    -0.108292532001    12.000000000000
         C            2.075176282161     0.496759866422     0.149155467999    12.000000000000
         C            0.680365282161     2.580677866422    -0.103266532001    12.000000000000
         C            1.096968282161    -1.702687133578     0.113380467999    12.000000000000
         C            2.233141782161    -0.984632433578     0.227722867999    12.000000000000
         C           -2.657439717839     0.504239866422     0.581172467999    12.000000000000
         H            2.948922282161     1.139988866422     0.232068467999     1.007825032230
         H           -1.538504717839     1.803153866422    -0.535091532001     1.007825032230
         H            0.330401282161     2.920735866422    -1.085500532001     1.007825032230
         H           -0.022083717839     2.957992866422     0.648957467999     1.007825032230
         H            1.647323282161     3.055787866422     0.079843467999     1.007825032230
         H            1.197908282161    -2.787339133578     0.150244467999     1.007825032230
         H            3.201705282161    -1.328809133578     0.383544467999     1.007825032230
         H           -2.373283717839     0.771465866422     1.609540467999     1.007825032230
         H           -2.898702717839    -0.556120133578     0.548427467999     1.007825032230
         H           -3.547752717839     1.073803866422     0.303441467999     1.007825032230
         H           -1.003457717839    -2.846531133578    -0.270266532001     1.007825032230

  Basis Set: AUG-CC-PVTZ
    Blend: AUG-CC-PVTZ
  Basis Set: (AUG-CC-PVTZ AUX)
    Blend: AUG-CC-PVTZ-JKFIT
	 Reference Energy          =    -438.7890772072003074 [Eh]
	 Singles Energy            =      -0.0000000000000000 [Eh]
	 Same-Spin Energy          =      -0.4737586670271414 [Eh]
	 Opposite-Spin Energy      =      -1.4982119387548110 [Eh]
	 Correlation Energy        =      -1.9719706057819524 [Eh]
	 Total Energy              =    -440.7610478129822695 [Eh]

	 ================> DF-SCS-MP2 Energies <==================
	-----------------------------------------------------------
	 SCS Same-Spin Scale       =       0.3333333333333333 [-]
	 SCS Opposite-Spin Scale   =       1.2000000000000000 [-]
	 SCS Same-Spin Energy      =      -0.1579195556757138 [Eh]
	 SCS Opposite-Spin Energy  =      -1.7978543265057731 [Eh]
	 SCS Correlation Energy    =      -1.9557738821814870 [Eh]
	 SCS Total Energy          =    -440.7448510893817684 [Eh]
	-----------------------------------------------------------

  Dipole Moment: [D]
     X:     0.2082      Y:     0.0970      Z:     0.7825     Total:     0.8155

*** Psi4 exiting successfully. Buy a developer a beer!
