                               Psi4 1.4a3.dev225

  ==> Input File <==

--------------------------------------------------------------------------
#psi4
#
memory 32 gb

molecule  {
0 1
  O       -1.2691620    -1.9635190    -0.2989340
  N       -1.5914490     0.7494560    -0.4145900
  C       -0.3130270     0.2119120    -0.1595780
  C        0.8301940     1.0305910    -0.0518670
  C       -0.1431580    -1.1878580    -0.1217090
  C        2.0898390     0.4471990     0.1357390
  C        0.6950280     2.5311170    -0.1166830
  C        1.1116310    -1.7522480     0.0999640
  C        2.2372160    -0.9348950     0.2090400
  C       -2.6427770     0.4546790     0.5677560
  H        2.9635850     1.0904280     0.2186520
  H       -1.5238420     1.7535930    -0.5485080
  H        0.3450640     2.8711750    -1.0989170
  H       -0.0074210     2.9084320     0.6355410
  H        1.6619860     3.0062270     0.0664270
  H        1.2125710    -2.8369000     0.1368280
  H        3.2163680    -1.3783700     0.3701280
  H       -2.3637881     0.7170457     1.5774240
  H       -2.8840400    -0.6056810     0.5350110
  H       -3.5330900     1.0242430     0.2900250
  H       -0.9887950    -2.8960920    -0.2836830
units angstrom
no_reorient  #important for SAPT in psi4, default
symmetry c1  #important for SAPT in psi4, default
}

set PROPERTIES_ORIGIN ["COM"]
properties('MP2/aug-cc-pvtz', properties = ['dipole'])
--------------------------------------------------------------------------

    Molecular point group: c1
  Charge       = 0
  Multiplicity = 1
  Basis Set: AUG-CC-PVTZ
    Blend: AUG-CC-PVTZ
  Basis Set: (AUG-CC-PVTZ AUX)
    Blend: AUG-CC-PVTZ-JKFIT

    Orbital Energies [Eh]
    ---------------------

    Doubly Occupied:

       1A    -20.586841     2A    -15.553577     3A    -11.294748
       4A    -11.263003     5A    -11.240376     6A    -11.237323
       7A    -11.231472     8A    -11.230244     9A    -11.229308
      10A    -11.223809    11A     -1.396497    12A     -1.223800
      13A     -1.131065    14A     -1.040760    15A     -0.994389
      16A     -0.937878    17A     -0.902064    18A     -0.822718
      19A     -0.801220    20A     -0.706289    21A     -0.692840
      22A     -0.671955    23A     -0.617502    24A     -0.607801
      25A     -0.598431    26A     -0.589974    27A     -0.575557
      28A     -0.570206    29A     -0.559896    30A     -0.536333
      31A     -0.528178    32A     -0.505160    33A     -0.484270
      34A     -0.470211    35A     -0.413606    36A     -0.318005
      37A     -0.290391

  @DF-RHF Final Energy:  -438.80117143921592

   => Energetics <=

    Nuclear Repulsion Energy =            524.2212624553344540
    One-Electron Energy =               -1635.8894745508182496
    Two-Electron Energy =                 672.8670406562678181
    Total Energy =                       -438.8011714392159774
  Basis Set: (AUG-CC-PVTZ AUX)
    Blend: AUG-CC-PVTZ-RI
    Molecular point group: c1

    Geometry (in Angstrom), charge = 0, multiplicity = 1:

       Center              X                  Y                   Z               Mass
    ------------   -----------------  -----------------  -----------------  -----------------
         O           -1.282859838852    -1.922614736259    -0.284919044287    15.994914619570
         N           -1.605146838852     0.790360263741    -0.400575044287    14.003074004430
         C           -0.326724838852     0.252816263741    -0.145563044287    12.000000000000
         C            0.816496161148     1.071495263741    -0.037852044287    12.000000000000
         C           -0.156855838852    -1.146953736259    -0.107694044287    12.000000000000
         C            2.076141161148     0.488103263741     0.149753955713    12.000000000000
         C            0.681330161148     2.572021263741    -0.102668044287    12.000000000000
         C            1.097933161148    -1.711343736259     0.113978955713    12.000000000000
         C            2.223518161148    -0.893990736259     0.223054955713    12.000000000000
         C           -2.656474838852     0.495583263741     0.581770955713    12.000000000000
         H            2.949887161148     1.131332263741     0.232666955713     1.007825032230
         H           -1.537539838852     1.794497263741    -0.534493044287     1.007825032230
         H            0.331366161148     2.912079263741    -1.084902044287     1.007825032230
         H           -0.021118838852     2.949336263741     0.649555955713     1.007825032230
         H            1.648288161148     3.047131263741     0.080441955713     1.007825032230
         H            1.198873161148    -2.795995736259     0.150842955713     1.007825032230
         H            3.202670161148    -1.337465736259     0.384142955713     1.007825032230
         H           -2.377485938852     0.757949963741     1.591438955713     1.007825032230
         H           -2.897737838852    -0.564776736259     0.549025955713     1.007825032230
         H           -3.546787838852     1.065147263741     0.304039955713     1.007825032230
         H           -1.002492838852    -2.855187736259    -0.269668044287     1.007825032230

  Basis Set: AUG-CC-PVTZ
    Blend: AUG-CC-PVTZ
  Basis Set: (AUG-CC-PVTZ AUX)
    Blend: AUG-CC-PVTZ-JKFIT
	 Reference Energy          =    -438.8011714392159206 [Eh]
	 Singles Energy            =      -0.0000000000000000 [Eh]
	 Same-Spin Energy          =      -0.4737211324893360 [Eh]
	 Opposite-Spin Energy      =      -1.4971213515824973 [Eh]
	 Correlation Energy        =      -1.9708424840718333 [Eh]
	 Total Energy              =    -440.7720139232877727 [Eh]

	 ================> DF-SCS-MP2 Energies <==================
	-----------------------------------------------------------
	 SCS Same-Spin Scale       =       0.3333333333333333 [-]
	 SCS Opposite-Spin Scale   =       1.2000000000000000 [-]
	 SCS Same-Spin Energy      =      -0.1579070441631120 [Eh]
	 SCS Opposite-Spin Energy  =      -1.7965456218989966 [Eh]
	 SCS Correlation Energy    =      -1.9544526660621087 [Eh]
	 SCS Total Energy          =    -440.7556241052780024 [Eh]
	-----------------------------------------------------------

  Dipole Moment: [D]
     X:     0.1770      Y:     0.1026      Z:     0.7974     Total:     0.8232

*** Psi4 exiting successfully. Buy a developer a beer!
