                               Psi4 1.4a3.dev225

  ==> Input File <==

--------------------------------------------------------------------------
#psi4
#
memory 32 gb

molecule  {
0 1
  O       -1.2823297    -1.9435082    -0.3012200
  N       -1.5914490     0.7494560    -0.4145900
  C       -0.3130270     0.2119120    -0.1595780
  C        0.8301940     1.0305910    -0.0518670
  C       -0.1431580    -1.1878580    -0.1217090
  C        2.0898390     0.4471990     0.1357390
  C        0.6950280     2.5311170    -0.1166830
  C        1.1116310    -1.7522480     0.0999640
  C        2.2372160    -0.9348950     0.2090400
  C       -2.6427770     0.4546790     0.5677560
  H        2.9635850     1.0904280     0.2186520
  H       -1.5238420     1.7535930    -0.5485080
  H        0.3450640     2.8711750    -1.0989170
  H       -0.0074210     2.9084320     0.6355410
  H        1.6619860     3.0062270     0.0664270
  H        1.2125710    -2.8369000     0.1368280
  H        3.2163680    -1.3783700     0.3701280
  H       -2.3586210     0.7219050     1.5961240
  H       -2.8840400    -0.6056810     0.5350110
  H       -3.5330900     1.0242430     0.2900250
  H       -0.9887950    -2.8960920    -0.2836830
units angstrom
no_reorient  #important for SAPT in psi4, default
symmetry c1  #important for SAPT in psi4, default
}

set PROPERTIES_ORIGIN ["COM"]
properties('MP2/aug-cc-pvtz', properties = ['dipole'])
--------------------------------------------------------------------------

    Molecular point group: c1
  Charge       = 0
  Multiplicity = 1
  Basis Set: AUG-CC-PVTZ
    Blend: AUG-CC-PVTZ
  Basis Set: (AUG-CC-PVTZ AUX)
    Blend: AUG-CC-PVTZ-JKFIT

    Orbital Energies [Eh]
    ---------------------

    Doubly Occupied:

       1A    -20.589650     2A    -15.553776     3A    -11.294550
       4A    -11.262453     5A    -11.240200     6A    -11.239433
       7A    -11.231832     8A    -11.230630     9A    -11.229149
      10A    -11.223810    11A     -1.393253    12A     -1.223380
      13A     -1.130993    14A     -1.040606    15A     -0.993479
      16A     -0.937790    17A     -0.900092    18A     -0.821148
      19A     -0.800439    20A     -0.704372    21A     -0.689911
      22A     -0.671747    23A     -0.616447    24A     -0.607858
      25A     -0.597838    26A     -0.588157    27A     -0.575633
      28A     -0.570336    29A     -0.559646    30A     -0.536356
      31A     -0.527805    32A     -0.504909    33A     -0.484130
      34A     -0.469962    35A     -0.412823    36A     -0.318188
      37A     -0.290279

  @DF-RHF Final Energy:  -438.79864275553115

   => Energetics <=

    Nuclear Repulsion Energy =            524.2417370618604764
    One-Electron Energy =               -1635.9546406653566919
    Two-Electron Energy =                 672.9142608479650107
    Total Energy =                       -438.7986427555312048
  Basis Set: (AUG-CC-PVTZ AUX)
    Blend: AUG-CC-PVTZ-RI
    Molecular point group: c1

    Geometry (in Angstrom), charge = 0, multiplicity = 1:

       Center              X                  Y                   Z               Mass
    ------------   -----------------  -----------------  -----------------  -----------------
         O           -1.294529124678    -1.904974513496    -0.287075794787    15.994914619570
         N           -1.603648424678     0.787989686504    -0.400445794787    14.003074004430
         C           -0.325226424678     0.250445686504    -0.145433794787    12.000000000000
         C            0.817994575322     1.069124686504    -0.037722794787    12.000000000000
         C           -0.155357424678    -1.149324313496    -0.107564794787    12.000000000000
         C            2.077639575322     0.485732686504     0.149883205213    12.000000000000
         C            0.682828575322     2.569650686504    -0.102538794787    12.000000000000
         C            1.099431575322    -1.713714313496     0.114108205213    12.000000000000
         C            2.225016575322    -0.896361313496     0.223184205213    12.000000000000
         C           -2.654976424678     0.493212686504     0.581900205213    12.000000000000
         H            2.951385575322     1.128961686504     0.232796205213     1.007825032230
         H           -1.536041424678     1.792126686504    -0.534363794787     1.007825032230
         H            0.332864575322     2.909708686504    -1.084772794787     1.007825032230
         H           -0.019620424678     2.946965686504     0.649685205213     1.007825032230
         H            1.649786575322     3.044760686504     0.080571205213     1.007825032230
         H            1.200371575322    -2.798366313496     0.150972205213     1.007825032230
         H            3.204168575322    -1.339836313496     0.384272205213     1.007825032230
         H           -2.370820424678     0.760438686504     1.610268205213     1.007825032230
         H           -2.896239424678    -0.567147313496     0.549155205213     1.007825032230
         H           -3.545289424678     1.062776686504     0.304169205213     1.007825032230
         H           -1.000994424678    -2.857558313496    -0.269538794787     1.007825032230

  Basis Set: AUG-CC-PVTZ
    Blend: AUG-CC-PVTZ
  Basis Set: (AUG-CC-PVTZ AUX)
    Blend: AUG-CC-PVTZ-JKFIT
	 Reference Energy          =    -438.7986427555311479 [Eh]
	 Singles Energy            =      -0.0000000000000000 [Eh]
	 Same-Spin Energy          =      -0.4741842491190172 [Eh]
	 Opposite-Spin Energy      =      -1.4982433794213650 [Eh]
	 Correlation Energy        =      -1.9724276285403821 [Eh]
	 Total Energy              =    -440.7710703840715496 [Eh]

	 ================> DF-SCS-MP2 Energies <==================
	-----------------------------------------------------------
	 SCS Same-Spin Scale       =       0.3333333333333333 [-]
	 SCS Opposite-Spin Scale   =       1.2000000000000000 [-]
	 SCS Same-Spin Energy      =      -0.1580614163730057 [Eh]
	 SCS Opposite-Spin Energy  =      -1.7978920553056379 [Eh]
	 SCS Correlation Energy    =      -1.9559534716786435 [Eh]
	 SCS Total Energy          =    -440.7545962272097881 [Eh]
	-----------------------------------------------------------

  Dipole Moment: [D]
     X:     0.1879      Y:     0.0679      Z:     0.7770     Total:     0.8023

*** Psi4 exiting successfully. Buy a developer a beer!
