                               Psi4 1.4a3.dev225

  ==> Input File <==

--------------------------------------------------------------------------
#psi4
#
memory 32 gb

molecule  {
0 1
  O       -1.2691620    -1.9635190    -0.2989340
  N       -1.5914490     0.7494560    -0.4145900
  C       -0.3130270     0.2119120    -0.1595780
  C        0.8301940     1.0305910    -0.0518670
  C       -0.1431580    -1.1878580    -0.1217090
  C        2.0898390     0.4471990     0.1357390
  C        0.6950280     2.5311170    -0.1166830
  C        1.1116310    -1.7522480     0.0999640
  C        2.1968816    -0.9641842     0.2051313
  C       -2.6427770     0.4546790     0.5677560
  H        2.9635850     1.0904280     0.2186520
  H       -1.5238420     1.7535930    -0.5485080
  H        0.3450640     2.8711750    -1.0989170
  H       -0.0074210     2.9084320     0.6355410
  H        1.6619860     3.0062270     0.0664270
  H        1.2125710    -2.8369000     0.1368280
  H        3.2163680    -1.3783700     0.3701280
  H       -2.3586210     0.7219050     1.5961240
  H       -2.8840400    -0.6056810     0.5350110
  H       -3.5330900     1.0242430     0.2900250
  H       -0.9887950    -2.8960920    -0.2836830
units angstrom
no_reorient  #important for SAPT in psi4, default
symmetry c1  #important for SAPT in psi4, default
}

set PROPERTIES_ORIGIN ["COM"]
properties('MP2/aug-cc-pvtz', properties = ['dipole'])
--------------------------------------------------------------------------

    Molecular point group: c1
  Charge       = 0
  Multiplicity = 1
  Basis Set: AUG-CC-PVTZ
    Blend: AUG-CC-PVTZ
  Basis Set: (AUG-CC-PVTZ AUX)
    Blend: AUG-CC-PVTZ-JKFIT

    Orbital Energies [Eh]
    ---------------------

    Doubly Occupied:

       1A    -20.587139     2A    -15.553116     3A    -11.294320
       4A    -11.261515     5A    -11.240973     6A    -11.239295
       7A    -11.230899     8A    -11.229278     9A    -11.226603
      10A    -11.225405    11A     -1.396664    12A     -1.223302
      13A     -1.133970    14A     -1.045515    15A     -0.990861
      16A     -0.938632    17A     -0.900988    18A     -0.820314
      19A     -0.802153    20A     -0.707396    21A     -0.692576
      22A     -0.673274    23A     -0.614655    24A     -0.604931
      25A     -0.598305    26A     -0.588855    27A     -0.575399
      28A     -0.570902    29A     -0.559537    30A     -0.539353
      31A     -0.525840    32A     -0.509006    33A     -0.477772
      34A     -0.471922    35A     -0.413779    36A     -0.321788
      37A     -0.287967

  @DF-RHF Final Energy:  -438.79806799562908

   => Energetics <=

    Nuclear Repulsion Energy =            524.6823002458654628
    One-Electron Energy =               -1636.8123384555549364
    Two-Electron Energy =                 673.3319702140604477
    Total Energy =                       -438.7980679956290260
  Basis Set: (AUG-CC-PVTZ AUX)
    Blend: AUG-CC-PVTZ-RI
    Molecular point group: c1

    Geometry (in Angstrom), charge = 0, multiplicity = 1:

       Center              X                  Y                   Z               Mass
    ------------   -----------------  -----------------  -----------------  -----------------
         O           -1.279367053087    -1.920086557084    -0.284714366434    15.994914619570
         N           -1.601654053087     0.792888442916    -0.400370366434    14.003074004430
         C           -0.323232053087     0.255344442916    -0.145358366434    12.000000000000
         C            0.819988946913     1.074023442916    -0.037647366434    12.000000000000
         C           -0.153363053087    -1.144425557084    -0.107489366434    12.000000000000
         C            2.079633946913     0.490631442916     0.149958633566    12.000000000000
         C            0.684822946913     2.574549442916    -0.102463366434    12.000000000000
         C            1.101425946913    -1.708815557084     0.114183633566    12.000000000000
         C            2.186676546913    -0.920751757084     0.219350933566    12.000000000000
         C           -2.652982053087     0.498111442916     0.581975633566    12.000000000000
         H            2.953379946913     1.133860442916     0.232871633566     1.007825032230
         H           -1.534047053087     1.797025442916    -0.534288366434     1.007825032230
         H            0.334858946913     2.914607442916    -1.084697366434     1.007825032230
         H           -0.017626053087     2.951864442916     0.649760633566     1.007825032230
         H            1.651780946913     3.049659442916     0.080646633566     1.007825032230
         H            1.202365946913    -2.793467557084     0.151047633566     1.007825032230
         H            3.206162946913    -1.334937557084     0.384347633566     1.007825032230
         H           -2.368826053087     0.765337442916     1.610343633566     1.007825032230
         H           -2.894245053087    -0.562248557084     0.549230633566     1.007825032230
         H           -3.543295053087     1.067675442916     0.304244633566     1.007825032230
         H           -0.999000053087    -2.852659557084    -0.269463366434     1.007825032230

  Basis Set: AUG-CC-PVTZ
    Blend: AUG-CC-PVTZ
  Basis Set: (AUG-CC-PVTZ AUX)
    Blend: AUG-CC-PVTZ-JKFIT
	 Reference Energy          =    -438.7980679956290828 [Eh]
	 Singles Energy            =      -0.0000000000000000 [Eh]
	 Same-Spin Energy          =      -0.4737431294330834 [Eh]
	 Opposite-Spin Energy      =      -1.4971892681719312 [Eh]
	 Correlation Energy        =      -1.9709323976050146 [Eh]
	 Total Energy              =    -440.7690003932340801 [Eh]

	 ================> DF-SCS-MP2 Energies <==================
	-----------------------------------------------------------
	 SCS Same-Spin Scale       =       0.3333333333333333 [-]
	 SCS Opposite-Spin Scale   =       1.2000000000000000 [-]
	 SCS Same-Spin Energy      =      -0.1579143764776945 [Eh]
	 SCS Opposite-Spin Energy  =      -1.7966271218063175 [Eh]
	 SCS Correlation Energy    =      -1.9545414982840119 [Eh]
	 SCS Total Energy          =    -440.7526094939130985 [Eh]
	-----------------------------------------------------------

  Dipole Moment: [D]
     X:     0.2053      Y:     0.0789      Z:     0.7780     Total:     0.8085

*** Psi4 exiting successfully. Buy a developer a beer!
