                               Psi4 1.4a3.dev225

  ==> Input File <==

--------------------------------------------------------------------------
#psi4
#
memory 32 gb

molecule  {
0 1
  O       -1.2691620    -1.9635190    -0.2989340
  N       -1.5914490     0.7494560    -0.4145900
  C       -0.3130270     0.2119120    -0.1595780
  C        0.8301940     1.0305910    -0.0518670
  C       -0.1431580    -1.1878580    -0.1217090
  C        2.1377079     0.4518152     0.1426336
  C        0.6950280     2.5311170    -0.1166830
  C        1.1116310    -1.7522480     0.0999640
  C        2.2372160    -0.9348950     0.2090400
  C       -2.6427770     0.4546790     0.5677560
  H        2.9635850     1.0904280     0.2186520
  H       -1.5238420     1.7535930    -0.5485080
  H        0.3450640     2.8711750    -1.0989170
  H       -0.0074210     2.9084320     0.6355410
  H        1.6619860     3.0062270     0.0664270
  H        1.2125710    -2.8369000     0.1368280
  H        3.2163680    -1.3783700     0.3701280
  H       -2.3586210     0.7219050     1.5961240
  H       -2.8840400    -0.6056810     0.5350110
  H       -3.5330900     1.0242430     0.2900250
  H       -0.9887950    -2.8960920    -0.2836830
units angstrom
no_reorient  #important for SAPT in psi4, default
symmetry c1  #important for SAPT in psi4, default
}

set PROPERTIES_ORIGIN ["COM"]
properties('MP2/aug-cc-pvtz', properties = ['dipole'])
--------------------------------------------------------------------------

    Molecular point group: c1
  Charge       = 0
  Multiplicity = 1
  Basis Set: AUG-CC-PVTZ
    Blend: AUG-CC-PVTZ
  Basis Set: (AUG-CC-PVTZ AUX)
    Blend: AUG-CC-PVTZ-JKFIT

    Orbital Energies [Eh]
    ---------------------

    Doubly Occupied:

       1A    -20.588112     2A    -15.553950     3A    -11.296964
       4A    -11.263113     5A    -11.244753     6A    -11.239859
       7A    -11.232109     8A    -11.230054     9A    -11.229059
      10A    -11.224508    11A     -1.397658    12A     -1.223567
      13A     -1.127192    14A     -1.038621    15A     -0.995789
      16A     -0.937114    17A     -0.899674    18A     -0.822859
      19A     -0.801943    20A     -0.704943    21A     -0.695616
      22A     -0.671651    23A     -0.618859    24A     -0.609011
      25A     -0.599613    26A     -0.587957    27A     -0.575225
      28A     -0.569550    29A     -0.560222    30A     -0.538326
      31A     -0.524646    32A     -0.512818    33A     -0.479432
      34A     -0.468056    35A     -0.413277    36A     -0.313794
      37A     -0.292355

  @DF-RHF Final Energy:  -438.79781121894462

   => Energetics <=

    Nuclear Repulsion Energy =            523.2341546905144014
    One-Electron Energy =               -1633.8994215753702974
    Two-Electron Energy =                 671.8674556659113932
    Total Energy =                       -438.7978112189446165
  Basis Set: (AUG-CC-PVTZ AUX)
    Blend: AUG-CC-PVTZ-RI
    Molecular point group: c1

    Geometry (in Angstrom), charge = 0, multiplicity = 1:

       Center              X                  Y                   Z               Mass
    ------------   -----------------  -----------------  -----------------  -----------------
         O           -1.287088151874    -1.923054551964    -0.285660060603    15.994914619570
         N           -1.609375151874     0.789920448036    -0.401316060603    14.003074004430
         C           -0.330953151874     0.252376448036    -0.146304060603    12.000000000000
         C            0.812267848126     1.071055448036    -0.038593060603    12.000000000000
         C           -0.161084151874    -1.147393551964    -0.108435060603    12.000000000000
         C            2.119781748126     0.492279648036     0.155907539397    12.000000000000
         C            0.677101848126     2.571581448036    -0.103409060603    12.000000000000
         C            1.093704848126    -1.711783551964     0.113237939397    12.000000000000
         C            2.219289848126    -0.894430551964     0.222313939397    12.000000000000
         C           -2.660703151874     0.495143448036     0.581029939397    12.000000000000
         H            2.945658848126     1.130892448036     0.231925939397     1.007825032230
         H           -1.541768151874     1.794057448036    -0.535234060603     1.007825032230
         H            0.327137848126     2.911639448036    -1.085643060603     1.007825032230
         H           -0.025347151874     2.948896448036     0.648814939397     1.007825032230
         H            1.644059848126     3.046691448036     0.079700939397     1.007825032230
         H            1.194644848126    -2.796435551964     0.150101939397     1.007825032230
         H            3.198441848126    -1.337905551964     0.383401939397     1.007825032230
         H           -2.376547151874     0.762369448036     1.609397939397     1.007825032230
         H           -2.901966151874    -0.565216551964     0.548284939397     1.007825032230
         H           -3.551016151874     1.064707448036     0.303298939397     1.007825032230
         H           -1.006721151874    -2.855627551964    -0.270409060603     1.007825032230

  Basis Set: AUG-CC-PVTZ
    Blend: AUG-CC-PVTZ
  Basis Set: (AUG-CC-PVTZ AUX)
    Blend: AUG-CC-PVTZ-JKFIT
	 Reference Energy          =    -438.7978112189446165 [Eh]
	 Singles Energy            =      -0.0000000000000000 [Eh]
	 Same-Spin Energy          =      -0.4736065015830905 [Eh]
	 Opposite-Spin Energy      =      -1.4974266038404984 [Eh]
	 Correlation Energy        =      -1.9710331054235890 [Eh]
	 Total Energy              =    -440.7688443243682173 [Eh]

	 ================> DF-SCS-MP2 Energies <==================
	-----------------------------------------------------------
	 SCS Same-Spin Scale       =       0.3333333333333333 [-]
	 SCS Opposite-Spin Scale   =       1.2000000000000000 [-]
	 SCS Same-Spin Energy      =      -0.1578688338610302 [Eh]
	 SCS Opposite-Spin Energy  =      -1.7969119246085981 [Eh]
	 SCS Correlation Energy    =      -1.9547807584696282 [Eh]
	 SCS Total Energy          =    -440.7525919774142267 [Eh]
	-----------------------------------------------------------

  Dipole Moment: [D]
     X:     0.1754      Y:     0.0919      Z:     0.7766     Total:     0.8014

*** Psi4 exiting successfully. Buy a developer a beer!
