                               Psi4 1.4a3.dev225

  ==> Input File <==

--------------------------------------------------------------------------
#psi4
#
memory 32 gb

molecule  {
0 1
  O       -1.2691620    -1.9635190    -0.2989340
  N       -1.5914490     0.7494560    -0.4145900
  C       -0.3130270     0.2119120    -0.1595780
  C        0.8301940     1.0305910    -0.0518670
  C       -0.1431580    -1.1878580    -0.1217090
  C        2.0898390     0.4471990     0.1357390
  C        0.6950280     2.5311170    -0.1166830
  C        1.1116310    -1.7522480     0.0999640
  C        2.2372160    -0.9348950     0.2090400
  C       -2.6427770     0.4546790     0.5677560
  H        2.9635850     1.0904280     0.2186520
  H       -1.5238420     1.7535930    -0.5485080
  H        0.3450640     2.8711750    -1.0989170
  H       -0.0074210     2.9084320     0.6355410
  H        1.6619860     3.0062270     0.0664270
  H        1.2125710    -2.8369000     0.1368280
  H        3.2163680    -1.3783700     0.3701280
  H       -2.3586210     0.7219050     1.5961240
  H       -2.8125207    -0.6198894     0.5562172
  H       -3.5330900     1.0242430     0.2900250
  H       -0.9887950    -2.8960920    -0.2836830
units angstrom
no_reorient  #important for SAPT in psi4, default
symmetry c1  #important for SAPT in psi4, default
}

set PROPERTIES_ORIGIN ["COM"]
properties('MP2/aug-cc-pvtz', properties = ['dipole'])
--------------------------------------------------------------------------

    Molecular point group: c1
  Charge       = 0
  Multiplicity = 1
  Basis Set: AUG-CC-PVTZ
    Blend: AUG-CC-PVTZ
  Basis Set: (AUG-CC-PVTZ AUX)
    Blend: AUG-CC-PVTZ-JKFIT

    Orbital Energies [Eh]
    ---------------------

    Doubly Occupied:

       1A    -20.587490     2A    -15.553365     3A    -11.295077
       4A    -11.263238     5A    -11.240577     6A    -11.239374
       7A    -11.231726     8A    -11.230510     9A    -11.229324
      10A    -11.224018    11A     -1.397269    12A     -1.223942
      13A     -1.131265    14A     -1.040908    15A     -0.994358
      16A     -0.937820    17A     -0.900267    18A     -0.823074
      19A     -0.801231    20A     -0.706860    21A     -0.693654
      22A     -0.671747    23A     -0.618555    24A     -0.607427
      25A     -0.597724    26A     -0.587268    27A     -0.576024
      28A     -0.570190    29A     -0.557445    30A     -0.537327
      31A     -0.530454    32A     -0.505602    33A     -0.485296
      34A     -0.469719    35A     -0.411588    36A     -0.318219
      37A     -0.290632

  @DF-RHF Final Energy:  -438.80035007347306

   => Energetics <=

    Nuclear Repulsion Energy =            524.2996153067111891
    One-Electron Energy =               -1636.0387992510425192
    Two-Electron Energy =                 672.9388338708581614
    Total Energy =                       -438.8003500734730551
  Basis Set: (AUG-CC-PVTZ AUX)
    Blend: AUG-CC-PVTZ-RI
    Molecular point group: c1

    Geometry (in Angstrom), charge = 0, multiplicity = 1:

       Center              X                  Y                   Z               Mass
    ------------   -----------------  -----------------  -----------------  -----------------
         O           -1.283423627752    -1.922546002836    -0.285212429719    15.994914619570
         N           -1.605710627752     0.790428997164    -0.400868429719    14.003074004430
         C           -0.327288627752     0.252884997164    -0.145856429719    12.000000000000
         C            0.815932372248     1.071563997164    -0.038145429719    12.000000000000
         C           -0.157419627752    -1.146885002836    -0.107987429719    12.000000000000
         C            2.075577372248     0.488171997164     0.149460570281    12.000000000000
         C            0.680766372248     2.572089997164    -0.102961429719    12.000000000000
         C            1.097369372248    -1.711275002836     0.113685570281    12.000000000000
         C            2.222954372248    -0.893922002836     0.222761570281    12.000000000000
         C           -2.657038627752     0.495651997164     0.581477570281    12.000000000000
         H            2.949323372248     1.131400997164     0.232373570281     1.007825032230
         H           -1.538103627752     1.794565997164    -0.534786429719     1.007825032230
         H            0.330802372248     2.912147997164    -1.085195429719     1.007825032230
         H           -0.021682627752     2.949404997164     0.649262570281     1.007825032230
         H            1.647724372248     3.047199997164     0.080148570281     1.007825032230
         H            1.198309372248    -2.795927002836     0.150549570281     1.007825032230
         H            3.202106372248    -1.337397002836     0.383849570281     1.007825032230
         H           -2.372882627752     0.762877997164     1.609845570281     1.007825032230
         H           -2.826782327752    -0.578916402836     0.569938770281     1.007825032230
         H           -3.547351627752     1.065215997164     0.303746570281     1.007825032230
         H           -1.003056627752    -2.855119002836    -0.269961429719     1.007825032230

  Basis Set: AUG-CC-PVTZ
    Blend: AUG-CC-PVTZ
  Basis Set: (AUG-CC-PVTZ AUX)
    Blend: AUG-CC-PVTZ-JKFIT
	 Reference Energy          =    -438.8003500734730551 [Eh]
	 Singles Energy            =      -0.0000000000000000 [Eh]
	 Same-Spin Energy          =      -0.4738333805070446 [Eh]
	 Opposite-Spin Energy      =      -1.4973825856951173 [Eh]
	 Correlation Energy        =      -1.9712159662021618 [Eh]
	 Total Energy              =    -440.7715660396752355 [Eh]

	 ================> DF-SCS-MP2 Energies <==================
	-----------------------------------------------------------
	 SCS Same-Spin Scale       =       0.3333333333333333 [-]
	 SCS Opposite-Spin Scale   =       1.2000000000000000 [-]
	 SCS Same-Spin Energy      =      -0.1579444601690149 [Eh]
	 SCS Opposite-Spin Energy  =      -1.7968591028341407 [Eh]
	 SCS Correlation Energy    =      -1.9548035630031555 [Eh]
	 SCS Total Energy          =    -440.7551536364762228 [Eh]
	-----------------------------------------------------------

  Dipole Moment: [D]
     X:     0.2217      Y:     0.0923      Z:     0.7799     Total:     0.8160

*** Psi4 exiting successfully. Buy a developer a beer!
