                               Psi4 1.4a3.dev225

  ==> Input File <==

--------------------------------------------------------------------------
#psi4
#
memory 32 gb

molecule  {
0 1
  O       -1.2691620    -1.9635190    -0.2989340
  N       -1.5914490     0.7494560    -0.4145900
  C       -0.3130270     0.2119120    -0.1595780
  C        0.8301940     1.0305910    -0.0518670
  C       -0.1431580    -1.1878580    -0.1217090
  C        2.0898390     0.4471990     0.1357390
  C        0.6950280     2.5311170    -0.1166830
  C        1.1116310    -1.7522480     0.0999640
  C        2.3985537    -0.8177383     0.2246746
  C       -2.6427770     0.4546790     0.5677560
  H        2.9635850     1.0904280     0.2186520
  H       -1.5238420     1.7535930    -0.5485080
  H        0.3450640     2.8711750    -1.0989170
  H       -0.0074210     2.9084320     0.6355410
  H        1.6619860     3.0062270     0.0664270
  H        1.2125710    -2.8369000     0.1368280
  H        3.2163680    -1.3783700     0.3701280
  H       -2.3586210     0.7219050     1.5961240
  H       -2.8840400    -0.6056810     0.5350110
  H       -3.5330900     1.0242430     0.2900250
  H       -0.9887950    -2.8960920    -0.2836830
units angstrom
no_reorient  #important for SAPT in psi4, default
symmetry c1  #important for SAPT in psi4, default
}

set PROPERTIES_ORIGIN ["COM"]
properties('MP2/aug-cc-pvtz', properties = ['dipole'])
--------------------------------------------------------------------------

    Molecular point group: c1
  Charge       = 0
  Multiplicity = 1
  Basis Set: AUG-CC-PVTZ
    Blend: AUG-CC-PVTZ
  Basis Set: (AUG-CC-PVTZ AUX)
    Blend: AUG-CC-PVTZ-JKFIT

    Orbital Energies [Eh]
    ---------------------

    Doubly Occupied:

       1A    -20.585830     2A    -15.557513     3A    -11.296124
       4A    -11.269477     5A    -11.241956     6A    -11.239787
       7A    -11.238476     8A    -11.231840     9A    -11.229337
      10A    -11.219397    11A     -1.395927    12A     -1.226529
      13A     -1.126793    14A     -1.027350    15A     -1.009902
      16A     -0.933728    17A     -0.899301    18A     -0.831627
      19A     -0.798854    20A     -0.707976    21A     -0.694380
      22A     -0.664019    23A     -0.644136    24A     -0.609563
      25A     -0.597333    26A     -0.586440    27A     -0.575635
      28A     -0.566965    29A     -0.560651    30A     -0.538864
      31A     -0.528611    32A     -0.498514    33A     -0.469707
      34A     -0.461833    35A     -0.413063    36A     -0.318073
      37A     -0.291005

  @DF-RHF Final Energy:  -438.75946795470890

   => Energetics <=

    Nuclear Repulsion Energy =            522.2097179479553688
    One-Electron Energy =               -1631.7653342390667603
    Two-Electron Energy =                 670.7961483364025526
    Total Energy =                       -438.7594679547088390
  Basis Set: (AUG-CC-PVTZ AUX)
    Blend: AUG-CC-PVTZ-RI
    Molecular point group: c1

    Geometry (in Angstrom), charge = 0, multiplicity = 1:

       Center              X                  Y                   Z               Mass
    ------------   -----------------  -----------------  -----------------  -----------------
         O           -1.297020930057    -1.932906069061    -0.286425138593    15.994914619570
         N           -1.619307930057     0.780068930939    -0.402081138593    14.003074004430
         C           -0.340885930057     0.242524930939    -0.147069138593    12.000000000000
         C            0.802335069943     1.061203930939    -0.039358138593    12.000000000000
         C           -0.171016930057    -1.157245069061    -0.109200138593    12.000000000000
         C            2.061980069943     0.477811930939     0.148247861407    12.000000000000
         C            0.667169069943     2.561729930939    -0.104174138593    12.000000000000
         C            1.083772069943    -1.721635069061     0.112472861407    12.000000000000
         C            2.370694769943    -0.787125369061     0.237183461407    12.000000000000
         C           -2.670635930057     0.485291930939     0.580264861407    12.000000000000
         H            2.935726069943     1.121040930939     0.231160861407     1.007825032230
         H           -1.551700930057     1.784205930939    -0.535999138593     1.007825032230
         H            0.317205069943     2.901787930939    -1.086408138593     1.007825032230
         H           -0.035279930057     2.939044930939     0.648049861407     1.007825032230
         H            1.634127069943     3.036839930939     0.078935861407     1.007825032230
         H            1.184712069943    -2.806287069061     0.149336861407     1.007825032230
         H            3.188509069943    -1.347757069061     0.382636861407     1.007825032230
         H           -2.386479930057     0.752517930939     1.608632861407     1.007825032230
         H           -2.911898930057    -0.575068069061     0.547519861407     1.007825032230
         H           -3.560948930057     1.054855930939     0.302533861407     1.007825032230
         H           -1.016653930057    -2.865479069061    -0.271174138593     1.007825032230

  Basis Set: AUG-CC-PVTZ
    Blend: AUG-CC-PVTZ
  Basis Set: (AUG-CC-PVTZ AUX)
    Blend: AUG-CC-PVTZ-JKFIT
	 Reference Energy          =    -438.7594679547088958 [Eh]
	 Singles Energy            =      -0.0000000000000000 [Eh]
	 Same-Spin Energy          =      -0.4732362578065060 [Eh]
	 Opposite-Spin Energy      =      -1.5000341124633974 [Eh]
	 Correlation Energy        =      -1.9732703702699035 [Eh]
	 Total Energy              =    -440.7327383249788113 [Eh]

	 ================> DF-SCS-MP2 Energies <==================
	-----------------------------------------------------------
	 SCS Same-Spin Scale       =       0.3333333333333333 [-]
	 SCS Opposite-Spin Scale   =       1.2000000000000000 [-]
	 SCS Same-Spin Energy      =      -0.1577454192688353 [Eh]
	 SCS Opposite-Spin Energy  =      -1.8000409349560766 [Eh]
	 SCS Correlation Energy    =      -1.9577863542249121 [Eh]
	 SCS Total Energy          =    -440.7172543089338319 [Eh]
	-----------------------------------------------------------

  Dipole Moment: [D]
     X:     0.1400      Y:     0.1863      Z:     0.7790     Total:     0.8131

*** Psi4 exiting successfully. Buy a developer a beer!
