                               Psi4 1.4a3.dev225

  ==> Input File <==

--------------------------------------------------------------------------
#psi4
#
memory 32 gb

molecule  {
0 1
  O       -1.2691620    -1.9635190    -0.2989340
  N       -1.5914490     0.7494560    -0.4145900
  C       -0.3230448     0.1895051    -0.1577763
  C        0.8301940     1.0305910    -0.0518670
  C       -0.1431580    -1.1878580    -0.1217090
  C        2.0898390     0.4471990     0.1357390
  C        0.6950280     2.5311170    -0.1166830
  C        1.1116310    -1.7522480     0.0999640
  C        2.2372160    -0.9348950     0.2090400
  C       -2.6427770     0.4546790     0.5677560
  H        2.9635850     1.0904280     0.2186520
  H       -1.5238420     1.7535930    -0.5485080
  H        0.3450640     2.8711750    -1.0989170
  H       -0.0074210     2.9084320     0.6355410
  H        1.6619860     3.0062270     0.0664270
  H        1.2125710    -2.8369000     0.1368280
  H        3.2163680    -1.3783700     0.3701280
  H       -2.3586210     0.7219050     1.5961240
  H       -2.8840400    -0.6056810     0.5350110
  H       -3.5330900     1.0242430     0.2900250
  H       -0.9887950    -2.8960920    -0.2836830
units angstrom
no_reorient  #important for SAPT in psi4, default
symmetry c1  #important for SAPT in psi4, default
}

set PROPERTIES_ORIGIN ["COM"]
properties('MP2/aug-cc-pvtz', properties = ['dipole'])
--------------------------------------------------------------------------

    Molecular point group: c1
  Charge       = 0
  Multiplicity = 1
  Basis Set: AUG-CC-PVTZ
    Blend: AUG-CC-PVTZ
  Basis Set: (AUG-CC-PVTZ AUX)
    Blend: AUG-CC-PVTZ-JKFIT

    Orbital Energies [Eh]
    ---------------------

    Doubly Occupied:

       1A    -20.585672     2A    -15.553727     3A    -11.291956
       4A    -11.262597     5A    -11.243122     6A    -11.239244
       7A    -11.232031     8A    -11.230809     9A    -11.229994
      10A    -11.224022    11A     -1.396123    12A     -1.223261
      13A     -1.130896    14A     -1.039980    15A     -0.996547
      16A     -0.937911    17A     -0.900555    18A     -0.823213
      19A     -0.799267    20A     -0.707184    21A     -0.692273
      22A     -0.670737    23A     -0.619751    24A     -0.607555
      25A     -0.598945    26A     -0.586840    27A     -0.575144
      28A     -0.570184    29A     -0.559373    30A     -0.536592
      31A     -0.527916    32A     -0.503850    33A     -0.486661
      34A     -0.469656    35A     -0.412041    36A     -0.317296
      37A     -0.291342

  @DF-RHF Final Energy:  -438.80043607207733

   => Energetics <=

    Nuclear Repulsion Energy =            524.1897199347222340
    One-Electron Energy =               -1635.8317765497995424
    Two-Electron Energy =                 672.8416205429999764
    Total Energy =                       -438.8004360720773320
  Basis Set: (AUG-CC-PVTZ AUX)
    Blend: AUG-CC-PVTZ-RI
    Molecular point group: c1

    Geometry (in Angstrom), charge = 0, multiplicity = 1:

       Center              X                  Y                   Z               Mass
    ------------   -----------------  -----------------  -----------------  -----------------
         O           -1.282020893289    -1.920689016608    -0.285214240730    15.994914619570
         N           -1.604307893289     0.792285983392    -0.400870240730    14.003074004430
         C           -0.335903693289     0.232335083392    -0.144056540730    12.000000000000
         C            0.817335106711     1.073420983392    -0.038147240730    12.000000000000
         C           -0.156016893289    -1.145028016608    -0.107989240730    12.000000000000
         C            2.076980106711     0.490028983392     0.149458759270    12.000000000000
         C            0.682169106711     2.573946983392    -0.102963240730    12.000000000000
         C            1.098772106711    -1.709418016608     0.113683759270    12.000000000000
         C            2.224357106711    -0.892065016608     0.222759759270    12.000000000000
         C           -2.655635893289     0.497508983392     0.581475759270    12.000000000000
         H            2.950726106711     1.133257983392     0.232371759270     1.007825032230
         H           -1.536700893289     1.796422983392    -0.534788240730     1.007825032230
         H            0.332205106711     2.914004983392    -1.085197240730     1.007825032230
         H           -0.020279893289     2.951261983392     0.649260759270     1.007825032230
         H            1.649127106711     3.049056983392     0.080146759270     1.007825032230
         H            1.199712106711    -2.794070016608     0.150547759270     1.007825032230
         H            3.203509106711    -1.335540016608     0.383847759270     1.007825032230
         H           -2.371479893289     0.764734983392     1.609843759270     1.007825032230
         H           -2.896898893289    -0.562851016608     0.548730759270     1.007825032230
         H           -3.545948893289     1.067072983392     0.303744759270     1.007825032230
         H           -1.001653893289    -2.853262016608    -0.269963240730     1.007825032230

  Basis Set: AUG-CC-PVTZ
    Blend: AUG-CC-PVTZ
  Basis Set: (AUG-CC-PVTZ AUX)
    Blend: AUG-CC-PVTZ-JKFIT
	 Reference Energy          =    -438.8004360720773320 [Eh]
	 Singles Energy            =      -0.0000000000000000 [Eh]
	 Same-Spin Energy          =      -0.4737190522641535 [Eh]
	 Opposite-Spin Energy      =      -1.4972354764473839 [Eh]
	 Correlation Energy        =      -1.9709545287115373 [Eh]
	 Total Energy              =    -440.7713906007888909 [Eh]

	 ================> DF-SCS-MP2 Energies <==================
	-----------------------------------------------------------
	 SCS Same-Spin Scale       =       0.3333333333333333 [-]
	 SCS Opposite-Spin Scale   =       1.2000000000000000 [-]
	 SCS Same-Spin Energy      =      -0.1579063507547178 [Eh]
	 SCS Opposite-Spin Energy  =      -1.7966825717368606 [Eh]
	 SCS Correlation Energy    =      -1.9545889224915785 [Eh]
	 SCS Total Energy          =    -440.7550249945688847 [Eh]
	-----------------------------------------------------------

  Dipole Moment: [D]
     X:     0.2209      Y:     0.1151      Z:     0.7750     Total:     0.8141

*** Psi4 exiting successfully. Buy a developer a beer!
