                               Psi4 1.4a3.dev225

  ==> Input File <==

--------------------------------------------------------------------------
#psi4
#
memory 32 gb

molecule  {
0 1
  O       -1.2691620    -1.9635190    -0.2989340
  N       -1.5914490     0.7494560    -0.4145900
  C       -0.3130270     0.2119120    -0.1595780
  C        0.7787375     1.0264353    -0.0621400
  C       -0.1431580    -1.1878580    -0.1217090
  C        2.0898390     0.4471990     0.1357390
  C        0.6950280     2.5311170    -0.1166830
  C        1.1116310    -1.7522480     0.0999640
  C        2.2372160    -0.9348950     0.2090400
  C       -2.6427770     0.4546790     0.5677560
  H        2.9635850     1.0904280     0.2186520
  H       -1.5238420     1.7535930    -0.5485080
  H        0.3450640     2.8711750    -1.0989170
  H       -0.0074210     2.9084320     0.6355410
  H        1.6619860     3.0062270     0.0664270
  H        1.2125710    -2.8369000     0.1368280
  H        3.2163680    -1.3783700     0.3701280
  H       -2.3586210     0.7219050     1.5961240
  H       -2.8840400    -0.6056810     0.5350110
  H       -3.5330900     1.0242430     0.2900250
  H       -0.9887950    -2.8960920    -0.2836830
units angstrom
no_reorient  #important for SAPT in psi4, default
symmetry c1  #important for SAPT in psi4, default
}

set PROPERTIES_ORIGIN ["COM"]
properties('MP2/aug-cc-pvtz', properties = ['dipole'])
--------------------------------------------------------------------------

    Molecular point group: c1
  Charge       = 0
  Multiplicity = 1
  Basis Set: AUG-CC-PVTZ
    Blend: AUG-CC-PVTZ
  Basis Set: (AUG-CC-PVTZ AUX)
    Blend: AUG-CC-PVTZ-JKFIT

    Orbital Energies [Eh]
    ---------------------

    Doubly Occupied:

       1A    -20.588307     2A    -15.552248     3A    -11.297425
       4A    -11.258970     5A    -11.239745     6A    -11.239267
       7A    -11.231459     8A    -11.229612     9A    -11.229399
      10A    -11.227470    11A     -1.397856    12A     -1.225748
      13A     -1.129046    14A     -1.040785    15A     -0.995074
      16A     -0.937087    17A     -0.899799    18A     -0.827372
      19A     -0.799355    20A     -0.705507    21A     -0.693156
      22A     -0.671853    23A     -0.617421    24A     -0.608111
      25A     -0.599298    26A     -0.587618    27A     -0.575607
      28A     -0.569408    29A     -0.559487    30A     -0.539395
      31A     -0.525721    32A     -0.511148    33A     -0.478267
      34A     -0.469743    35A     -0.413023    36A     -0.314827
      37A     -0.294199

  @DF-RHF Final Energy:  -438.79815134237725

   => Energetics <=

    Nuclear Repulsion Energy =            524.4746809791531632
    One-Electron Energy =               -1636.3860333531556535
    Two-Electron Energy =                 673.1132010316251808
    Total Energy =                       -438.7981513423773094
  Basis Set: (AUG-CC-PVTZ AUX)
    Blend: AUG-CC-PVTZ-RI
    Molecular point group: c1

    Geometry (in Angstrom), charge = 0, multiplicity = 1:

       Center              X                  Y                   Z               Mass
    ------------   -----------------  -----------------  -----------------  -----------------
         O           -1.278393451954    -1.922286681528    -0.284157251349    15.994914619570
         N           -1.600680451954     0.790688318472    -0.399813251349    14.003074004430
         C           -0.322258451954     0.253144318472    -0.144801251349    12.000000000000
         C            0.769506048046     1.067667618472    -0.047363251349    12.000000000000
         C           -0.152389451954    -1.146625681528    -0.106932251349    12.000000000000
         C            2.080607548046     0.488431318472     0.150515748651    12.000000000000
         C            0.685796548046     2.572349318472    -0.101906251349    12.000000000000
         C            1.102399548046    -1.711015681528     0.114740748651    12.000000000000
         C            2.227984548046    -0.893662681528     0.223816748651    12.000000000000
         C           -2.652008451954     0.495911318472     0.582532748651    12.000000000000
         H            2.954353548046     1.131660318472     0.233428748651     1.007825032230
         H           -1.533073451954     1.794825318472    -0.533731251349     1.007825032230
         H            0.335832548046     2.912407318472    -1.084140251349     1.007825032230
         H           -0.016652451954     2.949664318472     0.650317748651     1.007825032230
         H            1.652754548046     3.047459318472     0.081203748651     1.007825032230
         H            1.203339548046    -2.795667681528     0.151604748651     1.007825032230
         H            3.207136548046    -1.337137681528     0.384904748651     1.007825032230
         H           -2.367852451954     0.763137318472     1.610900748651     1.007825032230
         H           -2.893271451954    -0.564448681528     0.549787748651     1.007825032230
         H           -3.542321451954     1.065475318472     0.304801748651     1.007825032230
         H           -0.998026451954    -2.854859681528    -0.268906251349     1.007825032230

  Basis Set: AUG-CC-PVTZ
    Blend: AUG-CC-PVTZ
  Basis Set: (AUG-CC-PVTZ AUX)
    Blend: AUG-CC-PVTZ-JKFIT
	 Reference Energy          =    -438.7981513423772526 [Eh]
	 Singles Energy            =      -0.0000000000000000 [Eh]
	 Same-Spin Energy          =      -0.4734110049410350 [Eh]
	 Opposite-Spin Energy      =      -1.4971856500935223 [Eh]
	 Correlation Energy        =      -1.9705966550345573 [Eh]
	 Total Energy              =    -440.7687479974118219 [Eh]

	 ================> DF-SCS-MP2 Energies <==================
	-----------------------------------------------------------
	 SCS Same-Spin Scale       =       0.3333333333333333 [-]
	 SCS Opposite-Spin Scale   =       1.2000000000000000 [-]
	 SCS Same-Spin Energy      =      -0.1578036683136783 [Eh]
	 SCS Opposite-Spin Energy  =      -1.7966227801122268 [Eh]
	 SCS Correlation Energy    =      -1.9544264484259051 [Eh]
	 SCS Total Energy          =    -440.7525777908031728 [Eh]
	-----------------------------------------------------------

  Dipole Moment: [D]
     X:     0.2218      Y:     0.0729      Z:     0.7825     Total:     0.8166

*** Psi4 exiting successfully. Buy a developer a beer!
