                               Psi4 1.4a3.dev225

  ==> Input File <==

--------------------------------------------------------------------------
#psi4
#
memory 32 gb

molecule  {
0 1
  O       -1.2951505    -1.9232673    -0.3034512
  N       -1.5914490     0.7494560    -0.4145900
  C       -0.3130270     0.2119120    -0.1595780
  C        0.8301940     1.0305910    -0.0518670
  C       -0.1431580    -1.1878580    -0.1217090
  C        2.0898390     0.4471990     0.1357390
  C        0.6950280     2.5311170    -0.1166830
  C        1.1116310    -1.7522480     0.0999640
  C        2.2372160    -0.9348950     0.2090400
  C       -2.6427770     0.4546790     0.5677560
  H        2.9635850     1.0904280     0.2186520
  H       -1.5238420     1.7535930    -0.5485080
  H        0.3450640     2.8711750    -1.0989170
  H       -0.0074210     2.9084320     0.6355410
  H        1.6619860     3.0062270     0.0664270
  H        1.2125710    -2.8369000     0.1368280
  H        3.2163680    -1.3783700     0.3701280
  H       -2.3586210     0.7219050     1.5961240
  H       -2.8840400    -0.6056810     0.5350110
  H       -3.5330900     1.0242430     0.2900250
  H       -0.9887950    -2.8960920    -0.2836830
units angstrom
no_reorient  #important for SAPT in psi4, default
symmetry c1  #important for SAPT in psi4, default
}

set PROPERTIES_ORIGIN ["COM"]
properties('MP2/aug-cc-pvtz', properties = ['dipole'])
--------------------------------------------------------------------------

    Molecular point group: c1
  Charge       = 0
  Multiplicity = 1
  Basis Set: AUG-CC-PVTZ
    Blend: AUG-CC-PVTZ
  Basis Set: (AUG-CC-PVTZ AUX)
    Blend: AUG-CC-PVTZ-JKFIT

    Orbital Energies [Eh]
    ---------------------

    Doubly Occupied:

       1A    -20.592239     2A    -15.553608     3A    -11.294299
       4A    -11.261849     5A    -11.239917     6A    -11.239054
       7A    -11.232154     8A    -11.230906     9A    -11.228952
      10A    -11.223767    11A     -1.390196    12A     -1.222863
      13A     -1.130898    14A     -1.040440    15A     -0.992766
      16A     -0.937777    17A     -0.899562    18A     -0.819745
      19A     -0.799810    20A     -0.703156    21A     -0.686169
      22A     -0.671934    23A     -0.615439    24A     -0.607781
      25A     -0.597511    26A     -0.588456    27A     -0.575712
      28A     -0.570405    29A     -0.559450    30A     -0.536303
      31A     -0.527371    32A     -0.504631    33A     -0.483821
      34A     -0.469747    35A     -0.412615    36A     -0.318315
      37A     -0.290045

  @DF-RHF Final Energy:  -438.79508723143880

   => Energetics <=

    Nuclear Repulsion Energy =            524.3606071250985678
    One-Electron Energy =               -1636.2120599651193515
    Two-Electron Energy =                 673.0563656085819275
    Total Energy =                       -438.7950872314388562
  Basis Set: (AUG-CC-PVTZ AUX)
    Blend: AUG-CC-PVTZ-RI
    Molecular point group: c1

    Geometry (in Angstrom), charge = 0, multiplicity = 1:

       Center              X                  Y                   Z               Mass
    ------------   -----------------  -----------------  -----------------  -----------------
         O           -1.305853998781    -1.887095313740    -0.289046659250    15.994914619570
         N           -1.602152498781     0.785627986260    -0.400185459250    14.003074004430
         C           -0.323730498781     0.248083986260    -0.145173459250    12.000000000000
         C            0.819490501219     1.066762986260    -0.037462459250    12.000000000000
         C           -0.153861498781    -1.151686013740    -0.107304459250    12.000000000000
         C            2.079135501219     0.483370986260     0.150143540750    12.000000000000
         C            0.684324501219     2.567288986260    -0.102278459250    12.000000000000
         C            1.100927501219    -1.716076013740     0.114368540750    12.000000000000
         C            2.226512501219    -0.898723013740     0.223444540750    12.000000000000
         C           -2.653480498781     0.490850986260     0.582160540750    12.000000000000
         H            2.952881501219     1.126599986260     0.233056540750     1.007825032230
         H           -1.534545498781     1.789764986260    -0.534103459250     1.007825032230
         H            0.334360501219     2.907346986260    -1.084512459250     1.007825032230
         H           -0.018124498781     2.944603986260     0.649945540750     1.007825032230
         H            1.651282501219     3.042398986260     0.080831540750     1.007825032230
         H            1.201867501219    -2.800728013740     0.151232540750     1.007825032230
         H            3.205664501219    -1.342198013740     0.384532540750     1.007825032230
         H           -2.369324498781     0.758076986260     1.610528540750     1.007825032230
         H           -2.894743498781    -0.569509013740     0.549415540750     1.007825032230
         H           -3.543793498781     1.060414986260     0.304429540750     1.007825032230
         H           -0.999498498781    -2.859920013740    -0.269278459250     1.007825032230

  Basis Set: AUG-CC-PVTZ
    Blend: AUG-CC-PVTZ
  Basis Set: (AUG-CC-PVTZ AUX)
    Blend: AUG-CC-PVTZ-JKFIT
	 Reference Energy          =    -438.7950872314387993 [Eh]
	 Singles Energy            =      -0.0000000000000000 [Eh]
	 Same-Spin Energy          =      -0.4746647511362549 [Eh]
	 Opposite-Spin Energy      =      -1.4993034532115410 [Eh]
	 Correlation Energy        =      -1.9739682043477960 [Eh]
	 Total Energy              =    -440.7690554357865835 [Eh]

	 ================> DF-SCS-MP2 Energies <==================
	-----------------------------------------------------------
	 SCS Same-Spin Scale       =       0.3333333333333333 [-]
	 SCS Opposite-Spin Scale   =       1.2000000000000000 [-]
	 SCS Same-Spin Energy      =      -0.1582215837120850 [Eh]
	 SCS Opposite-Spin Energy  =      -1.7991641438538493 [Eh]
	 SCS Correlation Energy    =      -1.9573857275659343 [Eh]
	 SCS Total Energy          =    -440.7524729590047059 [Eh]
	-----------------------------------------------------------

  Dipole Moment: [D]
     X:     0.1891      Y:     0.0398      Z:     0.7759     Total:     0.7996

*** Psi4 exiting successfully. Buy a developer a beer!
