                               Psi4 1.4a3.dev225

  ==> Input File <==

--------------------------------------------------------------------------
#psi4
#
memory 32 gb

molecule  {
0 1
  O       -1.2691620    -1.9635190    -0.2989340
  N       -1.5914490     0.7494560    -0.4145900
  C       -0.3130270     0.2119120    -0.1595780
  C        0.8301940     1.0305910    -0.0518670
  C       -0.1431580    -1.1878580    -0.1217090
  C        2.0898390     0.4471990     0.1357390
  C        0.6950280     2.5311170    -0.1166830
  C        1.1116310    -1.7522480     0.0999640
  C        2.2372160    -0.9348950     0.2090400
  C       -2.6427770     0.4546790     0.5677560
  H        2.9635850     1.0904280     0.2186520
  H       -1.5238420     1.7535930    -0.5485080
  H        0.3450640     2.8711750    -1.0989170
  H       -0.0074210     2.9084320     0.6355410
  H        1.6619860     3.0062270     0.0664270
  H        1.2125710    -2.8369000     0.1368280
  H        3.2163680    -1.3783700     0.3701280
  H       -2.3534539     0.7267643     1.6148240
  H       -2.8840400    -0.6056810     0.5350110
  H       -3.5330900     1.0242430     0.2900250
  H       -0.9887950    -2.8960920    -0.2836830
units angstrom
no_reorient  #important for SAPT in psi4, default
symmetry c1  #important for SAPT in psi4, default
}

set PROPERTIES_ORIGIN ["COM"]
properties('MP2/aug-cc-pvtz', properties = ['dipole'])
--------------------------------------------------------------------------

    Molecular point group: c1
  Charge       = 0
  Multiplicity = 1
  Basis Set: AUG-CC-PVTZ
    Blend: AUG-CC-PVTZ
  Basis Set: (AUG-CC-PVTZ AUX)
    Blend: AUG-CC-PVTZ-JKFIT

    Orbital Energies [Eh]
    ---------------------

    Doubly Occupied:

       1A    -20.587029     2A    -15.554353     3A    -11.294970
       4A    -11.263163     5A    -11.242285     6A    -11.240602
       7A    -11.231640     8A    -11.230393     9A    -11.229398
      10A    -11.223925    11A     -1.396682    12A     -1.224021
      13A     -1.131169    14A     -1.040853    15A     -0.994149
      16A     -0.937778    17A     -0.899349    18A     -0.822845
      19A     -0.800960    20A     -0.706459    21A     -0.693168
      22A     -0.671223    23A     -0.617300    24A     -0.607927
      25A     -0.598037    26A     -0.585674    27A     -0.575574
      28A     -0.570284    29A     -0.559696    30A     -0.536389
      31A     -0.528265    32A     -0.505149    33A     -0.484492
      34A     -0.470143    35A     -0.412438    36A     -0.318130
      37A     -0.290675

  @DF-RHF Final Energy:  -438.80060109045405

   => Energetics <=

    Nuclear Repulsion Energy =            524.0513730767613652
    One-Electron Energy =               -1635.5507788699771936
    Two-Electron Energy =                 672.6988047027617768
    Total Energy =                       -438.8006010904540517
  Basis Set: (AUG-CC-PVTZ AUX)
    Blend: AUG-CC-PVTZ-RI
    Molecular point group: c1

    Geometry (in Angstrom), charge = 0, multiplicity = 1:

       Center              X                  Y                   Z               Mass
    ------------   -----------------  -----------------  -----------------  -----------------
         O           -1.282935814609    -1.922686186201    -0.285194004448    15.994914619570
         N           -1.605222814609     0.790288813799    -0.400850004448    14.003074004430
         C           -0.326800814609     0.252744813799    -0.145838004448    12.000000000000
         C            0.816420185391     1.071423813799    -0.038127004448    12.000000000000
         C           -0.156931814609    -1.147025186201    -0.107969004448    12.000000000000
         C            2.076065185391     0.488031813799     0.149478995552    12.000000000000
         C            0.681254185391     2.571949813799    -0.102943004448    12.000000000000
         C            1.097857185391    -1.711415186201     0.113703995552    12.000000000000
         C            2.223442185391    -0.894062186201     0.222779995552    12.000000000000
         C           -2.656550814609     0.495511813799     0.581495995552    12.000000000000
         H            2.949811185391     1.131260813799     0.232391995552     1.007825032230
         H           -1.537615814609     1.794425813799    -0.534768004448     1.007825032230
         H            0.331290185391     2.912007813799    -1.085177004448     1.007825032230
         H           -0.021194814609     2.949264813799     0.649280995552     1.007825032230
         H            1.648212185391     3.047059813799     0.080166995552     1.007825032230
         H            1.198797185391    -2.796067186201     0.150567995552     1.007825032230
         H            3.202594185391    -1.337537186201     0.383867995552     1.007825032230
         H           -2.367227714609     0.767597113799     1.628563995552     1.007825032230
         H           -2.897813814609    -0.564848186201     0.548750995552     1.007825032230
         H           -3.546863814609     1.065075813799     0.303764995552     1.007825032230
         H           -1.002568814609    -2.855259186201    -0.269943004448     1.007825032230

  Basis Set: AUG-CC-PVTZ
    Blend: AUG-CC-PVTZ
  Basis Set: (AUG-CC-PVTZ AUX)
    Blend: AUG-CC-PVTZ-JKFIT
	 Reference Energy          =    -438.8006010904540517 [Eh]
	 Singles Energy            =      -0.0000000000000000 [Eh]
	 Same-Spin Energy          =      -0.4737239800771474 [Eh]
	 Opposite-Spin Energy      =      -1.4973603619994902 [Eh]
	 Correlation Energy        =      -1.9710843420766375 [Eh]
	 Total Energy              =    -440.7716854325307168 [Eh]

	 ================> DF-SCS-MP2 Energies <==================
	-----------------------------------------------------------
	 SCS Same-Spin Scale       =       0.3333333333333333 [-]
	 SCS Opposite-Spin Scale   =       1.2000000000000000 [-]
	 SCS Same-Spin Energy      =      -0.1579079933590491 [Eh]
	 SCS Opposite-Spin Energy  =      -1.7968324343993882 [Eh]
	 SCS Correlation Energy    =      -1.9547404277584373 [Eh]
	 SCS Total Energy          =    -440.7553415182125036 [Eh]
	-----------------------------------------------------------

  Dipole Moment: [D]
     X:     0.1966      Y:     0.0927      Z:     0.7578     Total:     0.7884

*** Psi4 exiting successfully. Buy a developer a beer!
