                               Psi4 1.4a3.dev225

  ==> Input File <==

--------------------------------------------------------------------------
#psi4
#
memory 32 gb

molecule  {
0 1
  O       -1.2691620    -1.9635190    -0.2989340
  N       -1.5914490     0.7494560    -0.4145900
  C       -0.3130270     0.2119120    -0.1595780
  C        0.8301940     1.0305910    -0.0518670
  C       -0.1431580    -1.1878580    -0.1217090
  C        2.0898390     0.4471990     0.1357390
  C        0.6950280     2.5311170    -0.1166830
  C        1.1116310    -1.7522480     0.0999640
  C        2.2372160    -0.9348950     0.2090400
  C       -2.6427770     0.4546790     0.5677560
  H        2.9635850     1.0904280     0.2186520
  H       -1.5238420     1.7535930    -0.5485080
  H        0.3450640     2.8711750    -1.0989170
  H       -0.0074210     2.9084320     0.6355410
  H        1.6619860     3.0062270     0.0664270
  H        1.2125710    -2.8369000     0.1368280
  H        3.2343853    -1.3865303     0.3730922
  H       -2.3586210     0.7219050     1.5961240
  H       -2.8840400    -0.6056810     0.5350110
  H       -3.5330900     1.0242430     0.2900250
  H       -0.9887950    -2.8960920    -0.2836830
units angstrom
no_reorient  #important for SAPT in psi4, default
symmetry c1  #important for SAPT in psi4, default
}

set PROPERTIES_ORIGIN ["COM"]
properties('MP2/aug-cc-pvtz', properties = ['dipole'])
--------------------------------------------------------------------------

    Molecular point group: c1
  Charge       = 0
  Multiplicity = 1
  Basis Set: AUG-CC-PVTZ
    Blend: AUG-CC-PVTZ
  Basis Set: (AUG-CC-PVTZ AUX)
    Blend: AUG-CC-PVTZ-JKFIT

    Orbital Energies [Eh]
    ---------------------

    Doubly Occupied:

       1A    -20.587032     2A    -15.554006     3A    -11.294992
       4A    -11.263151     5A    -11.240624     6A    -11.239859
       7A    -11.233552     8A    -11.230839     9A    -11.229436
      10A    -11.224064    11A     -1.396680    12A     -1.223962
      13A     -1.131081    14A     -1.040764    15A     -0.993912
      16A     -0.937925    17A     -0.900449    18A     -0.822463
      19A     -0.800265    20A     -0.706304    21A     -0.692957
      22A     -0.670958    23A     -0.616154    24A     -0.606922
      25A     -0.598259    26A     -0.587905    27A     -0.575585
      28A     -0.570339    29A     -0.559872    30A     -0.536199
      31A     -0.527682    32A     -0.505207    33A     -0.483764
      34A     -0.470302    35A     -0.413110    36A     -0.318187
      37A     -0.290615

  @DF-RHF Final Energy:  -438.80047135563314

   => Energetics <=

    Nuclear Repulsion Energy =            524.0314717823373485
    One-Electron Energy =               -1635.5131310864665011
    Two-Electron Energy =                 672.6811879484960173
    Total Energy =                       -438.8004713556331353
  Basis Set: (AUG-CC-PVTZ AUX)
    Blend: AUG-CC-PVTZ-RI
    Molecular point group: c1

    Geometry (in Angstrom), charge = 0, multiplicity = 1:

       Center              X                  Y                   Z               Mass
    ------------   -----------------  -----------------  -----------------  -----------------
         O           -1.283030287685    -1.922590467717    -0.285078316798    15.994914619570
         N           -1.605317287685     0.790384532283    -0.400734316798    14.003074004430
         C           -0.326895287685     0.252840532283    -0.145722316798    12.000000000000
         C            0.816325712315     1.071519532283    -0.038011316798    12.000000000000
         C           -0.157026287685    -1.146929467717    -0.107853316798    12.000000000000
         C            2.075970712315     0.488127532283     0.149594683202    12.000000000000
         C            0.681159712315     2.572045532283    -0.102827316798    12.000000000000
         C            1.097762712315    -1.711319467717     0.113819683202    12.000000000000
         C            2.223347712315    -0.893966467717     0.222895683202    12.000000000000
         C           -2.656645287685     0.495607532283     0.581611683202    12.000000000000
         H            2.949716712315     1.131356532283     0.232507683202     1.007825032230
         H           -1.537710287685     1.794521532283    -0.534652316798     1.007825032230
         H            0.331195712315     2.912103532283    -1.085061316798     1.007825032230
         H           -0.021289287685     2.949360532283     0.649396683202     1.007825032230
         H            1.648117712315     3.047155532283     0.080282683202     1.007825032230
         H            1.198702712315    -2.795971467717     0.150683683202     1.007825032230
         H            3.220517012315    -1.345601767717     0.386947883202     1.007825032230
         H           -2.372489287685     0.762833532283     1.609979683202     1.007825032230
         H           -2.897908287685    -0.564752467717     0.548866683202     1.007825032230
         H           -3.546958287685     1.065171532283     0.303880683202     1.007825032230
         H           -1.002663287685    -2.855163467717    -0.269827316798     1.007825032230

  Basis Set: AUG-CC-PVTZ
    Blend: AUG-CC-PVTZ
  Basis Set: (AUG-CC-PVTZ AUX)
    Blend: AUG-CC-PVTZ-JKFIT
	 Reference Energy          =    -438.8004713556331353 [Eh]
	 Singles Energy            =      -0.0000000000000000 [Eh]
	 Same-Spin Energy          =      -0.4737590070655389 [Eh]
	 Opposite-Spin Energy      =      -1.4974030105035994 [Eh]
	 Correlation Energy        =      -1.9711620175691382 [Eh]
	 Total Energy              =    -440.7716333732022918 [Eh]

	 ================> DF-SCS-MP2 Energies <==================
	-----------------------------------------------------------
	 SCS Same-Spin Scale       =       0.3333333333333333 [-]
	 SCS Opposite-Spin Scale   =       1.2000000000000000 [-]
	 SCS Same-Spin Energy      =      -0.1579196690218463 [Eh]
	 SCS Opposite-Spin Energy  =      -1.7968836126043193 [Eh]
	 SCS Correlation Energy    =      -1.9548032816261656 [Eh]
	 SCS Total Energy          =    -440.7552746372592765 [Eh]
	-----------------------------------------------------------

  Dipole Moment: [D]
     X:     0.1785      Y:     0.1019      Z:     0.7770     Total:     0.8037

*** Psi4 exiting successfully. Buy a developer a beer!
