                               Psi4 1.4a3.dev225

  ==> Input File <==

--------------------------------------------------------------------------
#psi4
#
memory 32 gb

molecule  {
0 1
  O       -1.1831004    -2.0784137    -0.2841101
  N       -1.5914490     0.7494560    -0.4145900
  C       -0.3130270     0.2119120    -0.1595780
  C        0.8301940     1.0305910    -0.0518670
  C       -0.1431580    -1.1878580    -0.1217090
  C        2.0898390     0.4471990     0.1357390
  C        0.6950280     2.5311170    -0.1166830
  C        1.1116310    -1.7522480     0.0999640
  C        2.2372160    -0.9348950     0.2090400
  C       -2.6427770     0.4546790     0.5677560
  H        2.9635850     1.0904280     0.2186520
  H       -1.5238420     1.7535930    -0.5485080
  H        0.3450640     2.8711750    -1.0989170
  H       -0.0074210     2.9084320     0.6355410
  H        1.6619860     3.0062270     0.0664270
  H        1.2125710    -2.8369000     0.1368280
  H        3.2163680    -1.3783700     0.3701280
  H       -2.3586210     0.7219050     1.5961240
  H       -2.8840400    -0.6056810     0.5350110
  H       -3.5330900     1.0242430     0.2900250
  H       -0.9887950    -2.8960920    -0.2836830
units angstrom
no_reorient  #important for SAPT in psi4, default
symmetry c1  #important for SAPT in psi4, default
}

set PROPERTIES_ORIGIN ["COM"]
properties('MP2/aug-cc-pvtz', properties = ['dipole'])
--------------------------------------------------------------------------

    Molecular point group: c1
  Charge       = 0
  Multiplicity = 1
  Basis Set: AUG-CC-PVTZ
    Blend: AUG-CC-PVTZ
  Basis Set: (AUG-CC-PVTZ AUX)
    Blend: AUG-CC-PVTZ-JKFIT

    Orbital Energies [Eh]
    ---------------------

    Doubly Occupied:

       1A    -20.568016     2A    -15.555200     3A    -11.298025
       4A    -11.267306     5A    -11.242302     6A    -11.242195
       7A    -11.230678     8A    -11.230353     9A    -11.228120
      10A    -11.224451    11A     -1.422527    12A     -1.227047
      13A     -1.132378    14A     -1.042922    15A     -1.000347
      16A     -0.938511    17A     -0.904835    18A     -0.838239
      19A     -0.804804    20A     -0.729263    21A     -0.698734
      22A     -0.670533    23A     -0.621517    24A     -0.607013
      25A     -0.600184    26A     -0.586319    27A     -0.575772
      28A     -0.569551    29A     -0.560263    30A     -0.535353
      31A     -0.530471    32A     -0.505924    33A     -0.484501
      34A     -0.471503    35A     -0.414406    36A     -0.317428
      37A     -0.292392

  @DF-RHF Final Energy:  -438.78526758460350

   => Energetics <=

    Nuclear Repulsion Energy =            523.7630089407159630
    One-Electron Energy =               -1634.7577838203883402
    Two-Electron Energy =                 672.2095072950688746
    Total Energy =                       -438.7852675846035027
  Basis Set: (AUG-CC-PVTZ AUX)
    Blend: AUG-CC-PVTZ-RI
    Molecular point group: c1

    Geometry (in Angstrom), charge = 0, multiplicity = 1:

       Center              X                  Y                   Z               Mass
    ------------   -----------------  -----------------  -----------------  -----------------
         O           -1.206877860339    -2.024139292864    -0.271962271184    15.994914619570
         N           -1.615226460339     0.803730407136    -0.402442171184    14.003074004430
         C           -0.336804460339     0.266186407136    -0.147430171184    12.000000000000
         C            0.806416539661     1.084865407136    -0.039719171184    12.000000000000
         C           -0.166935460339    -1.133583592864    -0.109561171184    12.000000000000
         C            2.066061539661     0.501473407136     0.147886828816    12.000000000000
         C            0.671250539661     2.585391407136    -0.104535171184    12.000000000000
         C            1.087853539661    -1.697973592864     0.112111828816    12.000000000000
         C            2.213438539661    -0.880620592864     0.221187828816    12.000000000000
         C           -2.666554460339     0.508953407136     0.579903828816    12.000000000000
         H            2.939807539661     1.144702407136     0.230799828816     1.007825032230
         H           -1.547619460339     1.807867407136    -0.536360171184     1.007825032230
         H            0.321286539661     2.925449407136    -1.086769171184     1.007825032230
         H           -0.031198460339     2.962706407136     0.647688828816     1.007825032230
         H            1.638208539661     3.060501407136     0.078574828816     1.007825032230
         H            1.188793539661    -2.782625592864     0.148975828816     1.007825032230
         H            3.192590539661    -1.324095592864     0.382275828816     1.007825032230
         H           -2.382398460339     0.776179407136     1.608271828816     1.007825032230
         H           -2.907817460339    -0.551406592864     0.547158828816     1.007825032230
         H           -3.556867460339     1.078517407136     0.302172828816     1.007825032230
         H           -1.012572460339    -2.841817592864    -0.271535171184     1.007825032230

  Basis Set: AUG-CC-PVTZ
    Blend: AUG-CC-PVTZ
  Basis Set: (AUG-CC-PVTZ AUX)
    Blend: AUG-CC-PVTZ-JKFIT
	 Reference Energy          =    -438.7852675846035027 [Eh]
	 Singles Energy            =      -0.0000000000000000 [Eh]
	 Same-Spin Energy          =      -0.4713987371497085 [Eh]
	 Opposite-Spin Energy      =      -1.4923753632499095 [Eh]
	 Correlation Energy        =      -1.9637741003996181 [Eh]
	 Total Energy              =    -440.7490416850031352 [Eh]

	 ================> DF-SCS-MP2 Energies <==================
	-----------------------------------------------------------
	 SCS Same-Spin Scale       =       0.3333333333333333 [-]
	 SCS Opposite-Spin Scale   =       1.2000000000000000 [-]
	 SCS Same-Spin Energy      =      -0.1571329123832362 [Eh]
	 SCS Opposite-Spin Energy  =      -1.7908504358998913 [Eh]
	 SCS Correlation Energy    =      -1.9479833482831275 [Eh]
	 SCS Total Energy          =    -440.7332509328866195 [Eh]
	-----------------------------------------------------------

  Dipole Moment: [D]
     X:     0.1780      Y:     0.3143      Z:     0.7839     Total:     0.8631

*** Psi4 exiting successfully. Buy a developer a beer!
