                               Psi4 1.4a3.dev225

  ==> Input File <==

--------------------------------------------------------------------------
#psi4
#
memory 32 gb

molecule  {
0 1
  O       -1.2691620    -1.9635190    -0.2989340
  N       -1.5914490     0.7494560    -0.4145900
  C       -0.3130270     0.2119120    -0.1595780
  C        0.8814859     1.0365749    -0.0416730
  C       -0.1431580    -1.1878580    -0.1217090
  C        2.0898390     0.4471990     0.1357390
  C        0.6950280     2.5311170    -0.1166830
  C        1.1116310    -1.7522480     0.0999640
  C        2.2372160    -0.9348950     0.2090400
  C       -2.6427770     0.4546790     0.5677560
  H        2.9635850     1.0904280     0.2186520
  H       -1.5238420     1.7535930    -0.5485080
  H        0.3450640     2.8711750    -1.0989170
  H       -0.0074210     2.9084320     0.6355410
  H        1.6619860     3.0062270     0.0664270
  H        1.2125710    -2.8369000     0.1368280
  H        3.2163680    -1.3783700     0.3701280
  H       -2.3586210     0.7219050     1.5961240
  H       -2.8840400    -0.6056810     0.5350110
  H       -3.5330900     1.0242430     0.2900250
  H       -0.9887950    -2.8960920    -0.2836830
units angstrom
no_reorient  #important for SAPT in psi4, default
symmetry c1  #important for SAPT in psi4, default
}

set PROPERTIES_ORIGIN ["COM"]
properties('MP2/aug-cc-pvtz', properties = ['dipole'])
--------------------------------------------------------------------------

    Molecular point group: c1
  Charge       = 0
  Multiplicity = 1
  Basis Set: AUG-CC-PVTZ
    Blend: AUG-CC-PVTZ
  Basis Set: (AUG-CC-PVTZ AUX)
    Blend: AUG-CC-PVTZ-JKFIT

    Orbital Energies [Eh]
    ---------------------

    Doubly Occupied:

       1A    -20.585509     2A    -15.555454     3A    -11.292169
       4A    -11.266505     5A    -11.240633     6A    -11.240240
       7A    -11.232406     8A    -11.230641     9A    -11.229422
      10A    -11.219799    11A     -1.395254    12A     -1.222326
      13A     -1.133617    14A     -1.041731    15A     -0.993176
      16A     -0.938906    17A     -0.901423    18A     -0.821291
      19A     -0.799494    20A     -0.707683    21A     -0.692260
      22A     -0.670743    23A     -0.617654    24A     -0.607581
      25A     -0.597208    26A     -0.587952    27A     -0.576321
      28A     -0.571379    29A     -0.560159    30A     -0.534259
      31A     -0.531255    32A     -0.497595    33A     -0.487895
      34A     -0.470688    35A     -0.412728    36A     -0.323021
      37A     -0.286118

  @DF-RHF Final Energy:  -438.79740160403571

   => Energetics <=

    Nuclear Repulsion Energy =            523.8170847284144429
    One-Electron Energy =               -1635.0839846350943390
    Two-Electron Energy =                 672.4694983026442969
    Total Energy =                       -438.7974016040357128
  Basis Set: (AUG-CC-PVTZ AUX)
    Blend: AUG-CC-PVTZ-RI
    Molecular point group: c1

    Geometry (in Angstrom), charge = 0, multiplicity = 1:

       Center              X                  Y                   Z               Mass
    ------------   -----------------  -----------------  -----------------  -----------------
         O           -1.287387792830    -1.923174277040    -0.285948881921    15.994914619570
         N           -1.609674792830     0.789800722960    -0.401604881921    14.003074004430
         C           -0.331252792830     0.252256722960    -0.146592881921    12.000000000000
         C            0.863260107170     1.076919622960    -0.028687881921    12.000000000000
         C           -0.161383792830    -1.147513277040    -0.108723881921    12.000000000000
         C            2.071613207170     0.487543722960     0.148724118079    12.000000000000
         C            0.676802207170     2.571461722960    -0.103697881921    12.000000000000
         C            1.093405207170    -1.711903277040     0.112949118079    12.000000000000
         C            2.218990207170    -0.894550277040     0.222025118079    12.000000000000
         C           -2.661002792830     0.495023722960     0.580741118079    12.000000000000
         H            2.945359207170     1.130772722960     0.231637118079     1.007825032230
         H           -1.542067792830     1.793937722960    -0.535522881921     1.007825032230
         H            0.326838207170     2.911519722960    -1.085931881921     1.007825032230
         H           -0.025646792830     2.948776722960     0.648526118079     1.007825032230
         H            1.643760207170     3.046571722960     0.079412118079     1.007825032230
         H            1.194345207170    -2.796555277040     0.149813118079     1.007825032230
         H            3.198142207170    -1.338025277040     0.383113118079     1.007825032230
         H           -2.376846792830     0.762249722960     1.609109118079     1.007825032230
         H           -2.902265792830    -0.565336277040     0.547996118079     1.007825032230
         H           -3.551315792830     1.064587722960     0.303010118079     1.007825032230
         H           -1.007020792830    -2.855747277040    -0.270697881921     1.007825032230

  Basis Set: AUG-CC-PVTZ
    Blend: AUG-CC-PVTZ
  Basis Set: (AUG-CC-PVTZ AUX)
    Blend: AUG-CC-PVTZ-JKFIT
	 Reference Energy          =    -438.7974016040357128 [Eh]
	 Singles Energy            =      -0.0000000000000000 [Eh]
	 Same-Spin Energy          =      -0.4738716708079438 [Eh]
	 Opposite-Spin Energy      =      -1.4975312313668376 [Eh]
	 Correlation Energy        =      -1.9714029021747814 [Eh]
	 Total Energy              =    -440.7688045062104720 [Eh]

	 ================> DF-SCS-MP2 Energies <==================
	-----------------------------------------------------------
	 SCS Same-Spin Scale       =       0.3333333333333333 [-]
	 SCS Opposite-Spin Scale   =       1.2000000000000000 [-]
	 SCS Same-Spin Energy      =      -0.1579572236026479 [Eh]
	 SCS Opposite-Spin Energy  =      -1.7970374776402052 [Eh]
	 SCS Correlation Energy    =      -1.9549947012428530 [Eh]
	 SCS Total Energy          =    -440.7523963052785803 [Eh]
	-----------------------------------------------------------

  Dipole Moment: [D]
     X:     0.1619      Y:     0.1260      Z:     0.7741     Total:     0.8008

*** Psi4 exiting successfully. Buy a developer a beer!
