                               Psi4 1.4a3.dev225

  ==> Input File <==

--------------------------------------------------------------------------
#psi4
#
memory 32 gb

molecule  {
0 1
  O       -1.2691620    -1.9635190    -0.2989340
  N       -1.5914490     0.7494560    -0.4145900
  C       -0.3130270     0.2119120    -0.1595780
  C        0.8301940     1.0305910    -0.0518670
  C       -0.1431580    -1.1878580    -0.1217090
  C        2.0898390     0.4471990     0.1357390
  C        0.6950280     2.5311170    -0.1166830
  C        1.1116310    -1.7522480     0.0999640
  C        2.2372160    -0.9348950     0.2090400
  C       -2.6427770     0.4546790     0.5677560
  H        3.0438822     1.1495407     0.2262717
  H       -1.5238420     1.7535930    -0.5485080
  H        0.3450640     2.8711750    -1.0989170
  H       -0.0074210     2.9084320     0.6355410
  H        1.6619860     3.0062270     0.0664270
  H        1.2125710    -2.8369000     0.1368280
  H        3.2163680    -1.3783700     0.3701280
  H       -2.3586210     0.7219050     1.5961240
  H       -2.8840400    -0.6056810     0.5350110
  H       -3.5330900     1.0242430     0.2900250
  H       -0.9887950    -2.8960920    -0.2836830
units angstrom
no_reorient  #important for SAPT in psi4, default
symmetry c1  #important for SAPT in psi4, default
}

set PROPERTIES_ORIGIN ["COM"]
properties('MP2/aug-cc-pvtz', properties = ['dipole'])
--------------------------------------------------------------------------

    Molecular point group: c1
  Charge       = 0
  Multiplicity = 1
  Basis Set: AUG-CC-PVTZ
    Blend: AUG-CC-PVTZ
  Basis Set: (AUG-CC-PVTZ AUX)
    Blend: AUG-CC-PVTZ-JKFIT

    Orbital Energies [Eh]
    ---------------------

    Doubly Occupied:

       1A    -20.587353     2A    -15.554442     3A    -11.295388
       4A    -11.263988     5A    -11.241708     6A    -11.240144
       7A    -11.235513     8A    -11.232473     9A    -11.231212
      10A    -11.229238    11A     -1.397020    12A     -1.224412
      13A     -1.131141    14A     -1.041030    15A     -0.992869
      16A     -0.937047    17A     -0.901038    18A     -0.822603
      19A     -0.797055    20A     -0.706958    21A     -0.690679
      22A     -0.668863    23A     -0.616721    24A     -0.605967
      25A     -0.595600    26A     -0.587936    27A     -0.575504
      28A     -0.569216    29A     -0.559191    30A     -0.534769
      31A     -0.528263    32A     -0.498111    33A     -0.485109
      34A     -0.470781    35A     -0.413408    36A     -0.318780
      37A     -0.291156

  @DF-RHF Final Energy:  -438.79371965970910

   => Energetics <=

    Nuclear Repulsion Energy =            523.6379490154273526
    One-Electron Energy =               -1634.7179682667745055
    Two-Electron Energy =                 672.2862995916378850
    Total Energy =                       -438.7937196597091543
  Basis Set: (AUG-CC-PVTZ AUX)
    Blend: AUG-CC-PVTZ-RI
    Molecular point group: c1

    Geometry (in Angstrom), charge = 0, multiplicity = 1:

       Center              X                  Y                   Z               Mass
    ------------   -----------------  -----------------  -----------------  -----------------
         O           -1.283488161784    -1.923085050467    -0.285112543457    15.994914619570
         N           -1.605775161784     0.789889949533    -0.400768543457    14.003074004430
         C           -0.327353161784     0.252345949533    -0.145756543457    12.000000000000
         C            0.815867838216     1.071024949533    -0.038045543457    12.000000000000
         C           -0.157484161784    -1.147424050467    -0.107887543457    12.000000000000
         C            2.075512838216     0.487632949533     0.149560456543    12.000000000000
         C            0.680701838216     2.571550949533    -0.102861543457    12.000000000000
         C            1.097304838216    -1.711814050467     0.113785456543    12.000000000000
         C            2.222889838216    -0.894461050467     0.222861456543    12.000000000000
         C           -2.657103161784     0.495112949533     0.581577456543    12.000000000000
         H            3.029556038216     1.189974649533     0.240093156543     1.007825032230
         H           -1.538168161784     1.794026949533    -0.534686543457     1.007825032230
         H            0.330737838216     2.911608949533    -1.085095543457     1.007825032230
         H           -0.021747161784     2.948865949533     0.649362456543     1.007825032230
         H            1.647659838216     3.046660949533     0.080248456543     1.007825032230
         H            1.198244838216    -2.796466050467     0.150649456543     1.007825032230
         H            3.202041838216    -1.337936050467     0.383949456543     1.007825032230
         H           -2.372947161784     0.762338949533     1.609945456543     1.007825032230
         H           -2.898366161784    -0.565247050467     0.548832456543     1.007825032230
         H           -3.547416161784     1.064676949533     0.303846456543     1.007825032230
         H           -1.003121161784    -2.855658050467    -0.269861543457     1.007825032230

  Basis Set: AUG-CC-PVTZ
    Blend: AUG-CC-PVTZ
  Basis Set: (AUG-CC-PVTZ AUX)
    Blend: AUG-CC-PVTZ-JKFIT
	 Reference Energy          =    -438.7937196597090974 [Eh]
	 Singles Energy            =      -0.0000000000000000 [Eh]
	 Same-Spin Energy          =      -0.4739760666022905 [Eh]
	 Opposite-Spin Energy      =      -1.4981841798520463 [Eh]
	 Correlation Energy        =      -1.9721602464543369 [Eh]
	 Total Energy              =    -440.7658799061634340 [Eh]

	 ================> DF-SCS-MP2 Energies <==================
	-----------------------------------------------------------
	 SCS Same-Spin Scale       =       0.3333333333333333 [-]
	 SCS Opposite-Spin Scale   =       1.2000000000000000 [-]
	 SCS Same-Spin Energy      =      -0.1579920222007635 [Eh]
	 SCS Opposite-Spin Energy  =      -1.7978210158224555 [Eh]
	 SCS Correlation Energy    =      -1.9558130380232190 [Eh]
	 SCS Total Energy          =    -440.7495326977323202 [Eh]
	-----------------------------------------------------------

  Dipole Moment: [D]
     X:     0.1378      Y:     0.0649      Z:     0.7748     Total:     0.7896

*** Psi4 exiting successfully. Buy a developer a beer!
