                               Psi4 1.4a3.dev225

  ==> Input File <==

--------------------------------------------------------------------------
#psi4
#
memory 32 gb

molecule  {
0 1
  O       -1.2691620    -1.9635190    -0.2989340
  N       -1.5914490     0.7494560    -0.4145900
  C       -0.3130270     0.2119120    -0.1595780
  C        0.8301940     1.0305910    -0.0518670
  C       -0.1431580    -1.1878580    -0.1217090
  C        2.0898390     0.4471990     0.1357390
  C        0.6950280     2.5311170    -0.1166830
  C        1.1116310    -1.7522480     0.0999640
  C        2.2372160    -0.9348950     0.2090400
  C       -2.6427770     0.4546790     0.5677560
  H        2.9635850     1.0904280     0.2186520
  H       -1.5105241     1.9513977    -0.5748885
  H        0.3450640     2.8711750    -1.0989170
  H       -0.0074210     2.9084320     0.6355410
  H        1.6619860     3.0062270     0.0664270
  H        1.2125710    -2.8369000     0.1368280
  H        3.2163680    -1.3783700     0.3701280
  H       -2.3586210     0.7219050     1.5961240
  H       -2.8840400    -0.6056810     0.5350110
  H       -3.5330900     1.0242430     0.2900250
  H       -0.9887950    -2.8960920    -0.2836830
units angstrom
no_reorient  #important for SAPT in psi4, default
symmetry c1  #important for SAPT in psi4, default
}

set PROPERTIES_ORIGIN ["COM"]
properties('MP2/aug-cc-pvtz', properties = ['dipole'])
--------------------------------------------------------------------------

    Molecular point group: c1
  Charge       = 0
  Multiplicity = 1
  Basis Set: AUG-CC-PVTZ
    Blend: AUG-CC-PVTZ
  Basis Set: (AUG-CC-PVTZ AUX)
    Blend: AUG-CC-PVTZ-JKFIT

    Orbital Energies [Eh]
    ---------------------

    Doubly Occupied:

       1A    -20.587017     2A    -15.571496     3A    -11.295361
       4A    -11.263870     5A    -11.240251     6A    -11.240013
       7A    -11.231566     8A    -11.230356     9A    -11.229540
      10A    -11.223852    11A     -1.396739    12A     -1.209896
      13A     -1.127834    14A     -1.040755    15A     -0.993003
      16A     -0.938082    17A     -0.891770    18A     -0.821653
      19A     -0.794277    20A     -0.705909    21A     -0.677324
      22A     -0.670721    23A     -0.615555    24A     -0.605850
      25A     -0.593648    26A     -0.585791    27A     -0.573167
      28A     -0.570376    29A     -0.558037    30A     -0.535563
      31A     -0.521401    32A     -0.505036    33A     -0.478475
      34A     -0.468187    35A     -0.409413    36A     -0.318035
      37A     -0.289894

  @DF-RHF Final Energy:  -438.77114626660261

   => Energetics <=

    Nuclear Repulsion Energy =            523.1514788668084748
    One-Electron Energy =               -1633.8258264359785699
    Two-Electron Energy =                 671.9032013025674814
    Total Energy =                       -438.7711462666026137
  Basis Set: (AUG-CC-PVTZ AUX)
    Blend: AUG-CC-PVTZ-RI
    Molecular point group: c1

    Geometry (in Angstrom), charge = 0, multiplicity = 1:

       Center              X                  Y                   Z               Mass
    ------------   -----------------  -----------------  -----------------  -----------------
         O           -1.282995738279    -1.924104696846    -0.284862578204    15.994914619570
         N           -1.605282738279     0.788870303154    -0.400518578204    14.003074004430
         C           -0.326860738279     0.251326303154    -0.145506578204    12.000000000000
         C            0.816360261721     1.070005303154    -0.037795578204    12.000000000000
         C           -0.156991738279    -1.148443696846    -0.107637578204    12.000000000000
         C            2.076005261721     0.486613303154     0.149810421796    12.000000000000
         C            0.681194261721     2.570531303154    -0.102611578204    12.000000000000
         C            1.097797261721    -1.712833696846     0.114035421796    12.000000000000
         C            2.223382261721    -0.895480696846     0.223111421796    12.000000000000
         C           -2.656610738279     0.494093303154     0.581827421796    12.000000000000
         H            2.949751261721     1.129842303154     0.232723421796     1.007825032230
         H           -1.524357838279     1.990812003154    -0.560817078204     1.007825032230
         H            0.331230261721     2.910589303154    -1.084845578204     1.007825032230
         H           -0.021254738279     2.947846303154     0.649612421796     1.007825032230
         H            1.648152261721     3.045641303154     0.080498421796     1.007825032230
         H            1.198737261721    -2.797485696846     0.150899421796     1.007825032230
         H            3.202534261721    -1.338955696846     0.384199421796     1.007825032230
         H           -2.372454738279     0.761319303154     1.610195421796     1.007825032230
         H           -2.897873738279    -0.566266696846     0.549082421796     1.007825032230
         H           -3.546923738279     1.063657303154     0.304096421796     1.007825032230
         H           -1.002628738279    -2.856677696846    -0.269611578204     1.007825032230

  Basis Set: AUG-CC-PVTZ
    Blend: AUG-CC-PVTZ
  Basis Set: (AUG-CC-PVTZ AUX)
    Blend: AUG-CC-PVTZ-JKFIT
	 Reference Energy          =    -438.7711462666026137 [Eh]
	 Singles Energy            =      -0.0000000000000000 [Eh]
	 Same-Spin Energy          =      -0.4754722699993627 [Eh]
	 Opposite-Spin Energy      =      -1.5020585440096728 [Eh]
	 Correlation Energy        =      -1.9775308140090355 [Eh]
	 Total Energy              =    -440.7486770806116283 [Eh]

	 ================> DF-SCS-MP2 Energies <==================
	-----------------------------------------------------------
	 SCS Same-Spin Scale       =       0.3333333333333333 [-]
	 SCS Opposite-Spin Scale   =       1.2000000000000000 [-]
	 SCS Same-Spin Energy      =      -0.1584907566664542 [Eh]
	 SCS Opposite-Spin Energy  =      -1.8024702528116072 [Eh]
	 SCS Correlation Energy    =      -1.9609610094780614 [Eh]
	 SCS Total Energy          =    -440.7321072760806828 [Eh]
	-----------------------------------------------------------

  Dipole Moment: [D]
     X:     0.1975      Y:     0.1617      Z:     0.7773     Total:     0.8182

*** Psi4 exiting successfully. Buy a developer a beer!
