                               Psi4 1.4a3.dev225

  ==> Input File <==

--------------------------------------------------------------------------
#psi4
#
memory 32 gb

molecule  {
0 1
  O       -1.2691620    -1.9635190    -0.2989340
  N       -1.5914490     0.7494560    -0.4145900
  C       -0.3130270     0.2119120    -0.1595780
  C        0.8301940     1.0305910    -0.0518670
  C       -0.1431580    -1.1878580    -0.1217090
  C        2.0898390     0.4471990     0.1357390
  C        0.6995096     2.4813647    -0.1145339
  C        1.1116310    -1.7522480     0.0999640
  C        2.2372160    -0.9348950     0.2090400
  C       -2.6427770     0.4546790     0.5677560
  H        2.9635850     1.0904280     0.2186520
  H       -1.5238420     1.7535930    -0.5485080
  H        0.3450640     2.8711750    -1.0989170
  H       -0.0074210     2.9084320     0.6355410
  H        1.6619860     3.0062270     0.0664270
  H        1.2125710    -2.8369000     0.1368280
  H        3.2163680    -1.3783700     0.3701280
  H       -2.3586210     0.7219050     1.5961240
  H       -2.8840400    -0.6056810     0.5350110
  H       -3.5330900     1.0242430     0.2900250
  H       -0.9887950    -2.8960920    -0.2836830
units angstrom
no_reorient  #important for SAPT in psi4, default
symmetry c1  #important for SAPT in psi4, default
}

set PROPERTIES_ORIGIN ["COM"]
properties('MP2/aug-cc-pvtz', properties = ['dipole'])
--------------------------------------------------------------------------

    Molecular point group: c1
  Charge       = 0
  Multiplicity = 1
  Basis Set: AUG-CC-PVTZ
    Blend: AUG-CC-PVTZ
  Basis Set: (AUG-CC-PVTZ AUX)
    Blend: AUG-CC-PVTZ-JKFIT

    Orbital Energies [Eh]
    ---------------------

    Doubly Occupied:

       1A    -20.587079     2A    -15.554138     3A    -11.295034
       4A    -11.263276     5A    -11.239928     6A    -11.237958
       7A    -11.231729     8A    -11.231325     9A    -11.230520
      10A    -11.223984    11A     -1.396735    12A     -1.224656
      13A     -1.132813    14A     -1.046594    15A     -0.994555
      16A     -0.936336    17A     -0.900767    18A     -0.821753
      19A     -0.801829    20A     -0.708319    21A     -0.693448
      22A     -0.672254    23A     -0.617578    24A     -0.609717
      25A     -0.598431    26A     -0.587923    27A     -0.579420
      28A     -0.568599    29A     -0.557964    30A     -0.533568
      31A     -0.523902    32A     -0.507850    33A     -0.485813
      34A     -0.468467    35A     -0.413191    36A     -0.317265
      37A     -0.290608

  @DF-RHF Final Energy:  -438.79775979185825

   => Energetics <=

    Nuclear Repulsion Energy =            525.0515009661650083
    One-Electron Energy =               -1637.5278669362000983
    Two-Electron Energy =                 673.6786061781768922
    Total Energy =                       -438.7977597918583115
  Basis Set: (AUG-CC-PVTZ AUX)
    Blend: AUG-CC-PVTZ-RI
    Molecular point group: c1

    Geometry (in Angstrom), charge = 0, multiplicity = 1:

       Center              X                  Y                   Z               Mass
    ------------   -----------------  -----------------  -----------------  -----------------
         O           -1.283290134913    -1.918295267908    -0.285244651267    15.994914619570
         N           -1.605577134913     0.794679732092    -0.400900651267    14.003074004430
         C           -0.327155134913     0.257135732092    -0.145888651267    12.000000000000
         C            0.816065865087     1.075814732092    -0.038177651267    12.000000000000
         C           -0.157286134913    -1.142634267908    -0.108019651267    12.000000000000
         C            2.075710865087     0.492422732092     0.149428348733    12.000000000000
         C            0.685381465087     2.526588432092    -0.100844551267    12.000000000000
         C            1.097502865087    -1.707024267908     0.113653348733    12.000000000000
         C            2.223087865087    -0.889671267908     0.222729348733    12.000000000000
         C           -2.656905134913     0.499902732092     0.581445348733    12.000000000000
         H            2.949456865087     1.135651732092     0.232341348733     1.007825032230
         H           -1.537970134913     1.798816732092    -0.534818651267     1.007825032230
         H            0.330935865087     2.916398732092    -1.085227651267     1.007825032230
         H           -0.021549134913     2.953655732092     0.649230348733     1.007825032230
         H            1.647857865087     3.051450732092     0.080116348733     1.007825032230
         H            1.198442865087    -2.791676267908     0.150517348733     1.007825032230
         H            3.202239865087    -1.333146267908     0.383817348733     1.007825032230
         H           -2.372749134913     0.767128732092     1.609813348733     1.007825032230
         H           -2.898168134913    -0.560457267908     0.548700348733     1.007825032230
         H           -3.547218134913     1.069466732092     0.303714348733     1.007825032230
         H           -1.002923134913    -2.850868267908    -0.269993651267     1.007825032230

  Basis Set: AUG-CC-PVTZ
    Blend: AUG-CC-PVTZ
  Basis Set: (AUG-CC-PVTZ AUX)
    Blend: AUG-CC-PVTZ-JKFIT
	 Reference Energy          =    -438.7977597918582546 [Eh]
	 Singles Energy            =      -0.0000000000000000 [Eh]
	 Same-Spin Energy          =      -0.4743188500191259 [Eh]
	 Opposite-Spin Energy      =      -1.4978771893510148 [Eh]
	 Correlation Energy        =      -1.9721960393701408 [Eh]
	 Total Energy              =    -440.7699558312284012 [Eh]

	 ================> DF-SCS-MP2 Energies <==================
	-----------------------------------------------------------
	 SCS Same-Spin Scale       =       0.3333333333333333 [-]
	 SCS Opposite-Spin Scale   =       1.2000000000000000 [-]
	 SCS Same-Spin Energy      =      -0.1581062833397086 [Eh]
	 SCS Opposite-Spin Energy  =      -1.7974526272212177 [Eh]
	 SCS Correlation Energy    =      -1.9555589105609263 [Eh]
	 SCS Total Energy          =    -440.7533187024191648 [Eh]
	-----------------------------------------------------------

  Dipole Moment: [D]
     X:     0.1835      Y:     0.0928      Z:     0.7812     Total:     0.8079

*** Psi4 exiting successfully. Buy a developer a beer!
