                               Psi4 1.4a3.dev225

  ==> Input File <==

--------------------------------------------------------------------------
#psi4
#
memory 32 gb

molecule  {
0 1
  O       -1.2691620    -1.9635190    -0.2989340
  N       -1.5914490     0.7494560    -0.4145900
  C       -0.3788642     0.0801640    -0.1499512
  C        0.8301940     1.0305910    -0.0518670
  C       -0.1431580    -1.1878580    -0.1217090
  C        2.0898390     0.4471990     0.1357390
  C        0.6950280     2.5311170    -0.1166830
  C        1.1116310    -1.7522480     0.0999640
  C        2.2372160    -0.9348950     0.2090400
  C       -2.6427770     0.4546790     0.5677560
  H        2.9635850     1.0904280     0.2186520
  H       -1.5238420     1.7535930    -0.5485080
  H        0.3450640     2.8711750    -1.0989170
  H       -0.0074210     2.9084320     0.6355410
  H        1.6619860     3.0062270     0.0664270
  H        1.2125710    -2.8369000     0.1368280
  H        3.2163680    -1.3783700     0.3701280
  H       -2.3586210     0.7219050     1.5961240
  H       -2.8840400    -0.6056810     0.5350110
  H       -3.5330900     1.0242430     0.2900250
  H       -0.9887950    -2.8960920    -0.2836830
units angstrom
no_reorient  #important for SAPT in psi4, default
symmetry c1  #important for SAPT in psi4, default
}

set PROPERTIES_ORIGIN ["COM"]
properties('MP2/aug-cc-pvtz', properties = ['dipole'])
--------------------------------------------------------------------------

    Molecular point group: c1
  Charge       = 0
  Multiplicity = 1
  Basis Set: AUG-CC-PVTZ
    Blend: AUG-CC-PVTZ
  Basis Set: (AUG-CC-PVTZ AUX)
    Blend: AUG-CC-PVTZ-JKFIT

    Orbital Energies [Eh]
    ---------------------

    Doubly Occupied:

       1A    -20.578794     2A    -15.553063     3A    -11.276035
       4A    -11.258690     5A    -11.254184     6A    -11.236676
       7A    -11.234794     8A    -11.233207     9A    -11.232887
      10A    -11.224495    11A     -1.394158    12A     -1.220378
      13A     -1.130816    14A     -1.038579    15A     -1.008594
      16A     -0.938443    17A     -0.900382    18A     -0.827841
      19A     -0.786579    20A     -0.712258    21A     -0.689130
      22A     -0.664957    23A     -0.632464    24A     -0.606720
      25A     -0.601816    26A     -0.583394    27A     -0.574084
      28A     -0.569107    29A     -0.557341    30A     -0.536351
      31A     -0.526317    32A     -0.501448    33A     -0.486643
      34A     -0.466562    35A     -0.406520    36A     -0.319124
      37A     -0.293007

  @DF-RHF Final Energy:  -438.77441225603491

   => Energetics <=

    Nuclear Repulsion Energy =            524.5517694346551707
    One-Electron Energy =               -1636.5406919994481996
    Two-Electron Energy =                 673.2145103087581219
    Total Energy =                       -438.7744122560349069
  Basis Set: (AUG-CC-PVTZ AUX)
    Blend: AUG-CC-PVTZ-RI
    Molecular point group: c1

    Geometry (in Angstrom), charge = 0, multiplicity = 1:

       Center              X                  Y                   Z               Mass
    ------------   -----------------  -----------------  -----------------  -----------------
         O           -1.277134601035    -1.911117567077    -0.285899230636    15.994914619570
         N           -1.599421601035     0.801857432923    -0.401555230636    14.003074004430
         C           -0.386836801035     0.132565432923    -0.136916430636    12.000000000000
         C            0.822221398965     1.082992432923    -0.038832230636    12.000000000000
         C           -0.151130601035    -1.135456567077    -0.108674230636    12.000000000000
         C            2.081866398965     0.499600432923     0.148773769364    12.000000000000
         C            0.687055398965     2.583518432923    -0.103648230636    12.000000000000
         C            1.103658398965    -1.699846567077     0.112998769364    12.000000000000
         C            2.229243398965    -0.882493567077     0.222074769364    12.000000000000
         C           -2.650749601035     0.507080432923     0.580790769364    12.000000000000
         H            2.955612398965     1.142829432923     0.231686769364     1.007825032230
         H           -1.531814601035     1.805994432923    -0.535473230636     1.007825032230
         H            0.337091398965     2.923576432923    -1.085882230636     1.007825032230
         H           -0.015393601035     2.960833432923     0.648575769364     1.007825032230
         H            1.654013398965     3.058628432923     0.079461769364     1.007825032230
         H            1.204598398965    -2.784498567077     0.149862769364     1.007825032230
         H            3.208395398965    -1.325968567077     0.383162769364     1.007825032230
         H           -2.366593601035     0.774306432923     1.609158769364     1.007825032230
         H           -2.892012601035    -0.553279567077     0.548045769364     1.007825032230
         H           -3.541062601035     1.076644432923     0.303059769364     1.007825032230
         H           -0.996767601035    -2.843690567077    -0.270648230636     1.007825032230

  Basis Set: AUG-CC-PVTZ
    Blend: AUG-CC-PVTZ
  Basis Set: (AUG-CC-PVTZ AUX)
    Blend: AUG-CC-PVTZ-JKFIT
	 Reference Energy          =    -438.7744122560349069 [Eh]
	 Singles Energy            =      -0.0000000000000000 [Eh]
	 Same-Spin Energy          =      -0.4732027198705738 [Eh]
	 Opposite-Spin Energy      =      -1.4979276831409118 [Eh]
	 Correlation Energy        =      -1.9711304030114856 [Eh]
	 Total Energy              =    -440.7455426590464072 [Eh]

	 ================> DF-SCS-MP2 Energies <==================
	-----------------------------------------------------------
	 SCS Same-Spin Scale       =       0.3333333333333333 [-]
	 SCS Opposite-Spin Scale   =       1.2000000000000000 [-]
	 SCS Same-Spin Energy      =      -0.1577342399568579 [Eh]
	 SCS Opposite-Spin Energy  =      -1.7975132197690942 [Eh]
	 SCS Correlation Energy    =      -1.9552474597259522 [Eh]
	 SCS Total Energy          =    -440.7296597157608744 [Eh]
	-----------------------------------------------------------

  Dipole Moment: [D]
     X:     0.4139      Y:     0.2139      Z:     0.7658     Total:     0.8964

*** Psi4 exiting successfully. Buy a developer a beer!
