                               Psi4 1.4a3.dev225

  ==> Input File <==

--------------------------------------------------------------------------
#psi4
#
memory 32 gb

molecule  {
0 1
  O       -1.2691620    -1.9635190    -0.2989340
  N       -1.5914490     0.7494560    -0.4145900
  C       -0.3130270     0.2119120    -0.1595780
  C        0.8301940     1.0305910    -0.0518670
  C       -0.1431580    -1.1878580    -0.1217090
  C        2.0898390     0.4471990     0.1357390
  C        0.6950280     2.5311170    -0.1166830
  C        1.1116310    -1.7522480     0.0999640
  C        2.2372160    -0.9348950     0.2090400
  C       -2.6427770     0.4546790     0.5677560
  H        2.9635850     1.0904280     0.2186520
  H       -1.5238420     1.7535930    -0.5485080
  H        0.3450640     2.8711750    -1.0989170
  H       -0.0074210     2.9084320     0.6355410
  H        1.6619860     3.0062270     0.0664270
  H        1.2125710    -2.8369000     0.1368280
  H        3.1983507    -1.3702097     0.3671638
  H       -2.3586210     0.7219050     1.5961240
  H       -2.8840400    -0.6056810     0.5350110
  H       -3.5330900     1.0242430     0.2900250
  H       -0.9887950    -2.8960920    -0.2836830
units angstrom
no_reorient  #important for SAPT in psi4, default
symmetry c1  #important for SAPT in psi4, default
}

set PROPERTIES_ORIGIN ["COM"]
properties('MP2/aug-cc-pvtz', properties = ['dipole'])
--------------------------------------------------------------------------

    Molecular point group: c1
  Charge       = 0
  Multiplicity = 1
  Basis Set: AUG-CC-PVTZ
    Blend: AUG-CC-PVTZ
  Basis Set: (AUG-CC-PVTZ AUX)
    Blend: AUG-CC-PVTZ-JKFIT

    Orbital Energies [Eh]
    ---------------------

    Doubly Occupied:

       1A    -20.586838     2A    -15.553906     3A    -11.294728
       4A    -11.263016     5A    -11.240355     6A    -11.239777
       7A    -11.230785     8A    -11.229272     9A    -11.228557
      10A    -11.223667    11A     -1.396498    12A     -1.223842
      13A     -1.131165    14A     -1.040864    15A     -0.994637
      16A     -0.937715    17A     -0.900887    18A     -0.823163
      19A     -0.801933    20A     -0.706463    21A     -0.693062
      22A     -0.672228    23A     -0.618850    24A     -0.608527
      25A     -0.598090    26A     -0.587813    27A     -0.575563
      28A     -0.570162    29A     -0.559768    30A     -0.536554
      31A     -0.528704    32A     -0.505110    33A     -0.484933
      34A     -0.470062    35A     -0.412969    36A     -0.317951
      37A     -0.290454

  @DF-RHF Final Energy:  -438.80124915727799

   => Energetics <=

    Nuclear Repulsion Energy =            524.2416439925872282
    One-Electron Energy =               -1635.9280454024287792
    Two-Electron Energy =                 672.8851522525634437
    Total Energy =                       -438.8012491572779936
  Basis Set: (AUG-CC-PVTZ AUX)
    Blend: AUG-CC-PVTZ-RI
    Molecular point group: c1

    Geometry (in Angstrom), charge = 0, multiplicity = 1:

       Center              X                  Y                   Z               Mass
    ------------   -----------------  -----------------  -----------------  -----------------
         O           -1.282765365776    -1.922710454743    -0.285034731937    15.994914619570
         N           -1.605052365776     0.790264545257    -0.400690731937    14.003074004430
         C           -0.326630365776     0.252720545257    -0.145678731937    12.000000000000
         C            0.816590634224     1.071399545257    -0.037967731937    12.000000000000
         C           -0.156761365776    -1.147049454743    -0.107809731937    12.000000000000
         C            2.076235634224     0.488007545257     0.149638268063    12.000000000000
         C            0.681424634224     2.571925545257    -0.102783731937    12.000000000000
         C            1.098027634224    -1.711439454743     0.113863268063    12.000000000000
         C            2.223612634224    -0.894086454743     0.222939268063    12.000000000000
         C           -2.656380365776     0.495487545257     0.581655268063    12.000000000000
         H            2.949981634224     1.131236545257     0.232551268063     1.007825032230
         H           -1.537445365776     1.794401545257    -0.534608731937     1.007825032230
         H            0.331460634224     2.911983545257    -1.085017731937     1.007825032230
         H           -0.021024365776     2.949240545257     0.649440268063     1.007825032230
         H            1.648382634224     3.047035545257     0.080326268063     1.007825032230
         H            1.198967634224    -2.796091454743     0.150727268063     1.007825032230
         H            3.184747334224    -1.329401154743     0.381063068063     1.007825032230
         H           -2.372224365776     0.762713545257     1.610023268063     1.007825032230
         H           -2.897643365776    -0.564872454743     0.548910268063     1.007825032230
         H           -3.546693365776     1.065051545257     0.303924268063     1.007825032230
         H           -1.002398365776    -2.855283454743    -0.269783731937     1.007825032230

  Basis Set: AUG-CC-PVTZ
    Blend: AUG-CC-PVTZ
  Basis Set: (AUG-CC-PVTZ AUX)
    Blend: AUG-CC-PVTZ-JKFIT
	 Reference Energy          =    -438.8012491572779936 [Eh]
	 Singles Energy            =      -0.0000000000000000 [Eh]
	 Same-Spin Energy          =      -0.4736876163152148 [Eh]
	 Opposite-Spin Energy      =      -1.4970874866381825 [Eh]
	 Correlation Energy        =      -1.9707751029533973 [Eh]
	 Total Energy              =    -440.7720242602313760 [Eh]

	 ================> DF-SCS-MP2 Energies <==================
	-----------------------------------------------------------
	 SCS Same-Spin Scale       =       0.3333333333333333 [-]
	 SCS Opposite-Spin Scale   =       1.2000000000000000 [-]
	 SCS Same-Spin Energy      =      -0.1578958721050716 [Eh]
	 SCS Opposite-Spin Energy  =      -1.7965049839658189 [Eh]
	 SCS Correlation Energy    =      -1.9544008560708905 [Eh]
	 SCS Total Energy          =    -440.7556500133488839 [Eh]
	-----------------------------------------------------------

  Dipole Moment: [D]
     X:     0.1941      Y:     0.0940      Z:     0.7792     Total:     0.8085

*** Psi4 exiting successfully. Buy a developer a beer!
