                               Psi4 1.4a3.dev225

  ==> Input File <==

--------------------------------------------------------------------------
#psi4
#
memory 32 gb

molecule  {
0 1
  O       -1.2691620    -1.9635190    -0.2989340
  N       -1.5914490     0.7494560    -0.4145900
  C       -0.3130270     0.2119120    -0.1595780
  C        0.8301940     1.0305910    -0.0518670
  C       -0.1431580    -1.1878580    -0.1217090
  C        2.0898390     0.4471990     0.1357390
  C        0.6950280     2.5311170    -0.1166830
  C        1.1116310    -1.7522480     0.0999640
  C        2.2372160    -0.9348950     0.2090400
  C       -2.6427770     0.4546790     0.5677560
  H        2.9635850     1.0904280     0.2186520
  H       -1.5238420     1.7535930    -0.5485080
  H        0.3450640     2.8711750    -1.0989170
  H       -0.0074210     2.9084320     0.6355410
  H        1.6619860     3.0062270     0.0664270
  H        1.2125710    -2.8369000     0.1368280
  H        3.2163680    -1.3783700     0.3701280
  H       -2.3586210     0.7219050     1.5961240
  H       -2.9890077    -0.5747107     0.5035330
  H       -3.5330900     1.0242430     0.2900250
  H       -0.9887950    -2.8960920    -0.2836830
units angstrom
no_reorient  #important for SAPT in psi4, default
symmetry c1  #important for SAPT in psi4, default
}

set PROPERTIES_ORIGIN ["COM"]
properties('MP2/aug-cc-pvtz', properties = ['dipole'])
--------------------------------------------------------------------------

    Molecular point group: c1
  Charge       = 0
  Multiplicity = 1
  Basis Set: AUG-CC-PVTZ
    Blend: AUG-CC-PVTZ
  Basis Set: (AUG-CC-PVTZ AUX)
    Blend: AUG-CC-PVTZ-JKFIT

    Orbital Energies [Eh]
    ---------------------

    Doubly Occupied:

       1A    -20.586134     2A    -15.554865     3A    -11.294549
       4A    -11.262875     5A    -11.240477     6A    -11.240371
       7A    -11.231321     8A    -11.230041     9A    -11.229387
      10A    -11.223658    11A     -1.395626    12A     -1.223901
      13A     -1.130916    14A     -1.040666    15A     -0.994157
      16A     -0.937845    17A     -0.901517    18A     -0.822391
      19A     -0.800903    20A     -0.705714    21A     -0.692139
      22A     -0.671338    23A     -0.616239    24A     -0.609138
      25A     -0.599142    26A     -0.588424    27A     -0.574937
      28A     -0.570658    29A     -0.562772    30A     -0.535624
      31A     -0.523397    32A     -0.504043    33A     -0.482399
      34A     -0.470760    35A     -0.415037    36A     -0.317857
      37A     -0.290376

  @DF-RHF Final Energy:  -438.80009003532115

   => Energetics <=

    Nuclear Repulsion Energy =            523.9023099340831777
    One-Electron Energy =               -1635.2616122897118203
    Two-Electron Energy =                 672.5592123203074379
    Total Energy =                       -438.8000900353212046
  Basis Set: (AUG-CC-PVTZ AUX)
    Blend: AUG-CC-PVTZ-RI
    Molecular point group: c1

    Geometry (in Angstrom), charge = 0, multiplicity = 1:

       Center              X                  Y                   Z               Mass
    ------------   -----------------  -----------------  -----------------  -----------------
         O           -1.282126117222    -1.922878151034    -0.284825102016    15.994914619570
         N           -1.604413117222     0.790096848966    -0.400481102016    14.003074004430
         C           -0.325991117222     0.252552848966    -0.145469102016    12.000000000000
         C            0.817229882778     1.071231848966    -0.037758102016    12.000000000000
         C           -0.156122117222    -1.147217151034    -0.107600102016    12.000000000000
         C            2.076874882778     0.487839848966     0.149847897984    12.000000000000
         C            0.682063882778     2.571757848966    -0.102574102016    12.000000000000
         C            1.098666882778    -1.711607151034     0.114072897984    12.000000000000
         C            2.224251882778    -0.894254151034     0.223148897984    12.000000000000
         C           -2.655741117222     0.495319848966     0.581864897984    12.000000000000
         H            2.950620882778     1.131068848966     0.232760897984     1.007825032230
         H           -1.536806117222     1.794233848966    -0.534399102016     1.007825032230
         H            0.332099882778     2.911815848966    -1.084808102016     1.007825032230
         H           -0.020385117222     2.949072848966     0.649649897984     1.007825032230
         H            1.649021882778     3.046867848966     0.080535897984     1.007825032230
         H            1.199606882778    -2.796259151034     0.150936897984     1.007825032230
         H            3.203403882778    -1.337729151034     0.384236897984     1.007825032230
         H           -2.371585117222     0.762545848966     1.610232897984     1.007825032230
         H           -3.001971817222    -0.534069851034     0.517641897984     1.007825032230
         H           -3.546054117222     1.064883848966     0.304133897984     1.007825032230
         H           -1.001759117222    -2.855451151034    -0.269574102016     1.007825032230

  Basis Set: AUG-CC-PVTZ
    Blend: AUG-CC-PVTZ
  Basis Set: (AUG-CC-PVTZ AUX)
    Blend: AUG-CC-PVTZ-JKFIT
	 Reference Energy          =    -438.8000900353211478 [Eh]
	 Singles Energy            =      -0.0000000000000000 [Eh]
	 Same-Spin Energy          =      -0.4736669307080109 [Eh]
	 Opposite-Spin Energy      =      -1.4971864715004801 [Eh]
	 Correlation Energy        =      -1.9708534022084909 [Eh]
	 Total Energy              =    -440.7709434375296382 [Eh]

	 ================> DF-SCS-MP2 Energies <==================
	-----------------------------------------------------------
	 SCS Same-Spin Scale       =       0.3333333333333333 [-]
	 SCS Opposite-Spin Scale   =       1.2000000000000000 [-]
	 SCS Same-Spin Energy      =      -0.1578889769026703 [Eh]
	 SCS Opposite-Spin Energy  =      -1.7966237658005761 [Eh]
	 SCS Correlation Energy    =      -1.9545127427032465 [Eh]
	 SCS Total Energy          =    -440.7546027780243776 [Eh]
	-----------------------------------------------------------

  Dipole Moment: [D]
     X:     0.1332      Y:     0.1088      Z:     0.7727     Total:     0.7916

*** Psi4 exiting successfully. Buy a developer a beer!
