                               Psi4 1.4a3.dev225

  ==> Input File <==

--------------------------------------------------------------------------
#psi4
#
memory 32 gb

molecule  {
0 1
  O       -1.2691620    -1.9635190    -0.2989340
  N       -1.5914490     0.7494560    -0.4145900
  C       -0.3130270     0.2119120    -0.1595780
  C        0.8558644     1.0333548    -0.0467593
  C       -0.1431580    -1.1878580    -0.1217090
  C        2.0898390     0.4471990     0.1357390
  C        0.6950280     2.5311170    -0.1166830
  C        1.1116310    -1.7522480     0.0999640
  C        2.2372160    -0.9348950     0.2090400
  C       -2.6427770     0.4546790     0.5677560
  H        2.9635850     1.0904280     0.2186520
  H       -1.5238420     1.7535930    -0.5485080
  H        0.3450640     2.8711750    -1.0989170
  H       -0.0074210     2.9084320     0.6355410
  H        1.6619860     3.0062270     0.0664270
  H        1.2125710    -2.8369000     0.1368280
  H        3.2163680    -1.3783700     0.3701280
  H       -2.3586210     0.7219050     1.5961240
  H       -2.8840400    -0.6056810     0.5350110
  H       -3.5330900     1.0242430     0.2900250
  H       -0.9887950    -2.8960920    -0.2836830
units angstrom
no_reorient  #important for SAPT in psi4, default
symmetry c1  #important for SAPT in psi4, default
}

set PROPERTIES_ORIGIN ["COM"]
properties('MP2/aug-cc-pvtz', properties = ['dipole'])
--------------------------------------------------------------------------

    Molecular point group: c1
  Charge       = 0
  Multiplicity = 1
  Basis Set: AUG-CC-PVTZ
    Blend: AUG-CC-PVTZ
  Basis Set: (AUG-CC-PVTZ AUX)
    Blend: AUG-CC-PVTZ-JKFIT

    Orbital Energies [Eh]
    ---------------------

    Doubly Occupied:

       1A    -20.586225     2A    -15.554733     3A    -11.293523
       4A    -11.264886     5A    -11.240633     6A    -11.240045
       7A    -11.231871     8A    -11.230573     9A    -11.229345
      10A    -11.221880    11A     -1.395926    12A     -1.223084
      13A     -1.132305    14A     -1.041156    15A     -0.993743
      16A     -0.938321    17A     -0.901051    18A     -0.821568
      19A     -0.800777    20A     -0.706990    21A     -0.692685
      22A     -0.671220    23A     -0.617470    24A     -0.607713
      25A     -0.597668    26A     -0.587925    27A     -0.575829
      28A     -0.570817    29A     -0.559995    30A     -0.535195
      31A     -0.529700    32A     -0.501379    33A     -0.486599
      34A     -0.470418    35A     -0.412932    36A     -0.320387
      37A     -0.288358

  @DF-RHF Final Energy:  -438.80009478622026

   => Energetics <=

    Nuclear Repulsion Energy =            523.9735691438215781
    One-Electron Energy =               -1635.3974826385124288
    Two-Electron Energy =                 672.6238187084705942
    Total Energy =                       -438.8000947862202565
  Basis Set: (AUG-CC-PVTZ AUX)
    Blend: AUG-CC-PVTZ-RI
    Molecular point group: c1

    Geometry (in Angstrom), charge = 0, multiplicity = 1:

       Center              X                  Y                   Z               Mass
    ------------   -----------------  -----------------  -----------------  -----------------
         O           -1.285144950073    -1.922892397448    -0.285503639796    15.994914619570
         N           -1.607431950073     0.790082602552    -0.401159639796    14.003074004430
         C           -0.329009950073     0.252538602552    -0.146147639796    12.000000000000
         C            0.839881449927     1.073981402552    -0.033328939796    12.000000000000
         C           -0.159140950073    -1.147231397448    -0.108278639796    12.000000000000
         C            2.073856049927     0.487825602552     0.149169360204    12.000000000000
         C            0.679045049927     2.571743602552    -0.103252639796    12.000000000000
         C            1.095648049927    -1.711621397448     0.113394360204    12.000000000000
         C            2.221233049927    -0.894268397448     0.222470360204    12.000000000000
         C           -2.658759950073     0.495305602552     0.581186360204    12.000000000000
         H            2.947602049927     1.131054602552     0.232082360204     1.007825032230
         H           -1.539824950073     1.794219602552    -0.535077639796     1.007825032230
         H            0.329081049927     2.911801602552    -1.085486639796     1.007825032230
         H           -0.023403950073     2.949058602552     0.648971360204     1.007825032230
         H            1.646003049927     3.046853602552     0.079857360204     1.007825032230
         H            1.196588049927    -2.796273397448     0.150258360204     1.007825032230
         H            3.200385049927    -1.337743397448     0.383558360204     1.007825032230
         H           -2.374603950073     0.762531602552     1.609554360204     1.007825032230
         H           -2.900022950073    -0.565054397448     0.548441360204     1.007825032230
         H           -3.549072950073     1.064869602552     0.303455360204     1.007825032230
         H           -1.004777950073    -2.855465397448    -0.270252639796     1.007825032230

  Basis Set: AUG-CC-PVTZ
    Blend: AUG-CC-PVTZ
  Basis Set: (AUG-CC-PVTZ AUX)
    Blend: AUG-CC-PVTZ-JKFIT
	 Reference Energy          =    -438.8000947862202565 [Eh]
	 Singles Energy            =      -0.0000000000000000 [Eh]
	 Same-Spin Energy          =      -0.4738172384830617 [Eh]
	 Opposite-Spin Energy      =      -1.4973533485589658 [Eh]
	 Correlation Energy        =      -1.9711705870420275 [Eh]
	 Total Energy              =    -440.7712653732622812 [Eh]

	 ================> DF-SCS-MP2 Energies <==================
	-----------------------------------------------------------
	 SCS Same-Spin Scale       =       0.3333333333333333 [-]
	 SCS Opposite-Spin Scale   =       1.2000000000000000 [-]
	 SCS Same-Spin Energy      =      -0.1579390794943539 [Eh]
	 SCS Opposite-Spin Energy  =      -1.7968240182707589 [Eh]
	 SCS Correlation Energy    =      -1.9547630977651127 [Eh]
	 SCS Total Energy          =    -440.7548578839853803 [Eh]
	-----------------------------------------------------------

  Dipole Moment: [D]
     X:     0.1728      Y:     0.1115      Z:     0.7761     Total:     0.8028

*** Psi4 exiting successfully. Buy a developer a beer!
