                               Psi4 1.4a3.dev225

  ==> Input File <==

--------------------------------------------------------------------------
#psi4
#
memory 32 gb

molecule  {
0 1
  O       -1.2691620    -1.9635190    -0.2989340
  N       -1.5914490     0.7494560    -0.4145900
  C       -0.3130270     0.2119120    -0.1595780
  C        0.8301940     1.0305910    -0.0518670
  C       -0.1800053    -1.2778792    -0.1209890
  C        2.0898390     0.4471990     0.1357390
  C        0.6950280     2.5311170    -0.1166830
  C        1.1116310    -1.7522480     0.0999640
  C        2.2372160    -0.9348950     0.2090400
  C       -2.6427770     0.4546790     0.5677560
  H        2.9635850     1.0904280     0.2186520
  H       -1.5238420     1.7535930    -0.5485080
  H        0.3450640     2.8711750    -1.0989170
  H       -0.0074210     2.9084320     0.6355410
  H        1.6619860     3.0062270     0.0664270
  H        1.2125710    -2.8369000     0.1368280
  H        3.2163680    -1.3783700     0.3701280
  H       -2.3586210     0.7219050     1.5961240
  H       -2.8840400    -0.6056810     0.5350110
  H       -3.5330900     1.0242430     0.2900250
  H       -0.9887950    -2.8960920    -0.2836830
units angstrom
no_reorient  #important for SAPT in psi4, default
symmetry c1  #important for SAPT in psi4, default
}

set PROPERTIES_ORIGIN ["COM"]
properties('MP2/aug-cc-pvtz', properties = ['dipole'])
--------------------------------------------------------------------------

    Molecular point group: c1
  Charge       = 0
  Multiplicity = 1
  Basis Set: AUG-CC-PVTZ
    Blend: AUG-CC-PVTZ
  Basis Set: (AUG-CC-PVTZ AUX)
    Blend: AUG-CC-PVTZ-JKFIT

    Orbital Energies [Eh]
    ---------------------

    Doubly Occupied:

       1A    -20.604766     2A    -15.553368     3A    -11.303596
       4A    -11.266726     5A    -11.241032     6A    -11.235470
       7A    -11.228349     8A    -11.226805     9A    -11.225988
      10A    -11.219810    11A     -1.444232    12A     -1.220833
      13A     -1.123537    14A     -1.037834    15A     -0.983752
      16A     -0.934900    17A     -0.898724    18A     -0.830775
      19A     -0.802846    20A     -0.716257    21A     -0.695511
      22A     -0.678376    23A     -0.619099    24A     -0.615490
      25A     -0.604512    26A     -0.589777    27A     -0.579824
      28A     -0.567761    29A     -0.562066    30A     -0.535377
      31A     -0.526535    32A     -0.507530    33A     -0.471714
      34A     -0.466087    35A     -0.411696    36A     -0.316384
      37A     -0.277460

  @DF-RHF Final Energy:  -438.78891825242687

   => Energetics <=

    Nuclear Repulsion Energy =            523.5096172334646099
    One-Electron Energy =               -1634.3474757017493175
    Two-Electron Energy =                 672.0489402158576695
    Total Energy =                       -438.7889182524269245
  Basis Set: (AUG-CC-PVTZ AUX)
    Blend: AUG-CC-PVTZ-RI
    Molecular point group: c1

    Geometry (in Angstrom), charge = 0, multiplicity = 1:

       Center              X                  Y                   Z               Mass
    ------------   -----------------  -----------------  -----------------  -----------------
         O           -1.279672305199    -1.914770227973    -0.285119551387    15.994914619570
         N           -1.601959305199     0.798204772027    -0.400775551387    14.003074004430
         C           -0.323537305199     0.260660772027    -0.145763551387    12.000000000000
         C            0.819683694801     1.079339772027    -0.038052551387    12.000000000000
         C           -0.190515605199    -1.229130427973    -0.107174551387    12.000000000000
         C            2.079328694801     0.495947772027     0.149553448613    12.000000000000
         C            0.684517694801     2.579865772027    -0.102868551387    12.000000000000
         C            1.101120694801    -1.703499227973     0.113778448613    12.000000000000
         C            2.226705694801    -0.886146227973     0.222854448613    12.000000000000
         C           -2.653287305199     0.503427772027     0.581570448613    12.000000000000
         H            2.953074694801     1.139176772027     0.232466448613     1.007825032230
         H           -1.534352305199     1.802341772027    -0.534693551387     1.007825032230
         H            0.334553694801     2.919923772027    -1.085102551387     1.007825032230
         H           -0.017931305199     2.957180772027     0.649355448613     1.007825032230
         H            1.651475694801     3.054975772027     0.080241448613     1.007825032230
         H            1.202060694801    -2.788151227973     0.150642448613     1.007825032230
         H            3.205857694801    -1.329621227973     0.383942448613     1.007825032230
         H           -2.369131305199     0.770653772027     1.609938448613     1.007825032230
         H           -2.894550305199    -0.556932227973     0.548825448613     1.007825032230
         H           -3.543600305199     1.072991772027     0.303839448613     1.007825032230
         H           -0.999305305199    -2.847343227973    -0.269868551387     1.007825032230

  Basis Set: AUG-CC-PVTZ
    Blend: AUG-CC-PVTZ
  Basis Set: (AUG-CC-PVTZ AUX)
    Blend: AUG-CC-PVTZ-JKFIT
	 Reference Energy          =    -438.7889182524268676 [Eh]
	 Singles Energy            =      -0.0000000000000000 [Eh]
	 Same-Spin Energy          =      -0.4742138966023932 [Eh]
	 Opposite-Spin Energy      =      -1.4976426689724653 [Eh]
	 Correlation Energy        =      -1.9718565655748586 [Eh]
	 Total Energy              =    -440.7607748180017211 [Eh]

	 ================> DF-SCS-MP2 Energies <==================
	-----------------------------------------------------------
	 SCS Same-Spin Scale       =       0.3333333333333333 [-]
	 SCS Opposite-Spin Scale   =       1.2000000000000000 [-]
	 SCS Same-Spin Energy      =      -0.1580712988674644 [Eh]
	 SCS Opposite-Spin Energy  =      -1.7971712027669584 [Eh]
	 SCS Correlation Energy    =      -1.9552425016344228 [Eh]
	 SCS Total Energy          =    -440.7441607540612836 [Eh]
	-----------------------------------------------------------

  Dipole Moment: [D]
     X:    -0.2854      Y:    -0.2347      Z:     0.6968     Total:     0.7887

*** Psi4 exiting successfully. Buy a developer a beer!
