                               Psi4 1.4a3.dev225

  ==> Input File <==

--------------------------------------------------------------------------
#psi4
#
memory 32 gb

molecule  {
0 1
  O       -1.2691620    -1.9635190    -0.2989340
  N       -1.5914490     0.7494560    -0.4145900
  C       -0.3130270     0.2119120    -0.1595780
  C        0.8301940     1.0305910    -0.0518670
  C       -0.1431580    -1.1878580    -0.1217090
  C        2.0898390     0.4471990     0.1357390
  C        0.6950280     2.5311170    -0.1166830
  C        1.1116310    -1.7522480     0.0999640
  C        2.2372160    -0.9348950     0.2090400
  C       -2.6427770     0.4546790     0.5677560
  H        2.9635850     1.0904280     0.2186520
  H       -1.5238420     1.7535930    -0.5485080
  H        0.3450640     2.8711750    -1.0989170
  H       -0.0074210     2.9084320     0.6355410
  H        1.6619860     3.0062270     0.0664270
  H        1.2125710    -2.8369000     0.1368280
  H        3.2163680    -1.3783700     0.3701280
  H       -2.3327854     0.7462013     1.6896238
  H       -2.8840400    -0.6056810     0.5350110
  H       -3.5330900     1.0242430     0.2900250
  H       -0.9887950    -2.8960920    -0.2836830
units angstrom
no_reorient  #important for SAPT in psi4, default
symmetry c1  #important for SAPT in psi4, default
}

set PROPERTIES_ORIGIN ["COM"]
properties('MP2/aug-cc-pvtz', properties = ['dipole'])
--------------------------------------------------------------------------

    Molecular point group: c1
  Charge       = 0
  Multiplicity = 1
  Basis Set: AUG-CC-PVTZ
    Blend: AUG-CC-PVTZ
  Basis Set: (AUG-CC-PVTZ AUX)
    Blend: AUG-CC-PVTZ-JKFIT

    Orbital Energies [Eh]
    ---------------------

    Doubly Occupied:

       1A    -20.587468     2A    -15.556181     3A    -11.295478
       4A    -11.263561     5A    -11.251884     6A    -11.241115
       7A    -11.232031     8A    -11.230727     9A    -11.229603
      10A    -11.224193    11A     -1.397115    12A     -1.224719
      13A     -1.131490    14A     -1.041114    15A     -0.993977
      16A     -0.937776    17A     -0.895119    18A     -0.823173
      19A     -0.800625    20A     -0.706859    21A     -0.693947
      22A     -0.670259    23A     -0.617385    24A     -0.608468
      25A     -0.598031    26A     -0.578667    27A     -0.574780
      28A     -0.570238    29A     -0.558397    30A     -0.536465
      31A     -0.528393    32A     -0.505061    33A     -0.485015
      34A     -0.469974    35A     -0.409717    36A     -0.318422
      37A     -0.291313

  @DF-RHF Final Energy:  -438.79481890854413

   => Energetics <=

    Nuclear Repulsion Energy =            523.7335457191808246
    One-Electron Energy =               -1634.8992517786286953
    Two-Electron Energy =                 672.3708871509038545
    Total Energy =                       -438.7948189085441300
  Basis Set: (AUG-CC-PVTZ AUX)
    Blend: AUG-CC-PVTZ-RI
    Molecular point group: c1

    Geometry (in Angstrom), charge = 0, multiplicity = 1:

       Center              X                  Y                   Z               Mass
    ------------   -----------------  -----------------  -----------------  -----------------
         O           -1.283087766857    -1.922829084614    -0.285743923298    15.994914619570
         N           -1.605374766857     0.790145915386    -0.401399923298    14.003074004430
         C           -0.326952766857     0.252601915386    -0.146387923298    12.000000000000
         C            0.816268233143     1.071280915386    -0.038676923298    12.000000000000
         C           -0.157083766857    -1.147168084614    -0.108518923298    12.000000000000
         C            2.075913233143     0.487888915386     0.148929076702    12.000000000000
         C            0.681102233143     2.571806915386    -0.103492923298    12.000000000000
         C            1.097705233143    -1.711558084614     0.113154076702    12.000000000000
         C            2.223290233143    -0.894205084614     0.222230076702    12.000000000000
         C           -2.656702766857     0.495368915386     0.580946076702    12.000000000000
         H            2.949659233143     1.131117915386     0.231842076702     1.007825032230
         H           -1.537767766857     1.794282915386    -0.535317923298     1.007825032230
         H            0.331138233143     2.911864915386    -1.085726923298     1.007825032230
         H           -0.021346766857     2.949121915386     0.648731076702     1.007825032230
         H            1.648060233143     3.046916915386     0.079617076702     1.007825032230
         H            1.198645233143    -2.796210084614     0.150018076702     1.007825032230
         H            3.202442233143    -1.337680084614     0.383318076702     1.007825032230
         H           -2.346711166857     0.786891215386     1.702813876702     1.007825032230
         H           -2.897965766857    -0.564991084614     0.548201076702     1.007825032230
         H           -3.547015766857     1.064932915386     0.303215076702     1.007825032230
         H           -1.002720766857    -2.855402084614    -0.270492923298     1.007825032230

  Basis Set: AUG-CC-PVTZ
    Blend: AUG-CC-PVTZ
  Basis Set: (AUG-CC-PVTZ AUX)
    Blend: AUG-CC-PVTZ-JKFIT
	 Reference Energy          =    -438.7948189085441300 [Eh]
	 Singles Energy            =      -0.0000000000000000 [Eh]
	 Same-Spin Energy          =      -0.4737431572166977 [Eh]
	 Opposite-Spin Energy      =      -1.4979352941902220 [Eh]
	 Correlation Energy        =      -1.9716784514069197 [Eh]
	 Total Energy              =    -440.7664973599510745 [Eh]

	 ================> DF-SCS-MP2 Energies <==================
	-----------------------------------------------------------
	 SCS Same-Spin Scale       =       0.3333333333333333 [-]
	 SCS Opposite-Spin Scale   =       1.2000000000000000 [-]
	 SCS Same-Spin Energy      =      -0.1579143857388992 [Eh]
	 SCS Opposite-Spin Energy  =      -1.7975223530282662 [Eh]
	 SCS Correlation Energy    =      -1.9554367387671654 [Eh]
	 SCS Total Energy          =    -440.7502556473112918 [Eh]
	-----------------------------------------------------------

  Dipole Moment: [D]
     X:     0.2400      Y:     0.0699      Z:     0.6656     Total:     0.7109

*** Psi4 exiting successfully. Buy a developer a beer!
