                               Psi4 1.4a3.dev225

  ==> Input File <==

--------------------------------------------------------------------------
#psi4
#
memory 32 gb

molecule  {
0 1
  O       -1.2691620    -1.9635190    -0.2989340
  N       -1.5914490     0.7494560    -0.4145900
  C       -0.3130270     0.2119120    -0.1595780
  C        0.8301940     1.0305910    -0.0518670
  C       -0.1431580    -1.1878580    -0.1217090
  C        2.0898390     0.4471990     0.1357390
  C        0.6950280     2.5311170    -0.1166830
  C        1.0215928    -1.7117498     0.0840577
  C        2.2372160    -0.9348950     0.2090400
  C       -2.6427770     0.4546790     0.5677560
  H        2.9635850     1.0904280     0.2186520
  H       -1.5238420     1.7535930    -0.5485080
  H        0.3450640     2.8711750    -1.0989170
  H       -0.0074210     2.9084320     0.6355410
  H        1.6619860     3.0062270     0.0664270
  H        1.2125710    -2.8369000     0.1368280
  H        3.2163680    -1.3783700     0.3701280
  H       -2.3586210     0.7219050     1.5961240
  H       -2.8840400    -0.6056810     0.5350110
  H       -3.5330900     1.0242430     0.2900250
  H       -0.9887950    -2.8960920    -0.2836830
units angstrom
no_reorient  #important for SAPT in psi4, default
symmetry c1  #important for SAPT in psi4, default
}

set PROPERTIES_ORIGIN ["COM"]
properties('MP2/aug-cc-pvtz', properties = ['dipole'])
--------------------------------------------------------------------------

    Molecular point group: c1
  Charge       = 0
  Multiplicity = 1
  Basis Set: AUG-CC-PVTZ
    Blend: AUG-CC-PVTZ
  Basis Set: (AUG-CC-PVTZ AUX)
    Blend: AUG-CC-PVTZ-JKFIT

    Orbital Energies [Eh]
    ---------------------

    Doubly Occupied:

       1A    -20.582611     2A    -15.555745     3A    -11.282745
       4A    -11.266103     5A    -11.240689     6A    -11.237255
       7A    -11.234807     8A    -11.228704     9A    -11.227560
      10A    -11.225932    11A     -1.395500    12A     -1.225476
      13A     -1.134979    14A     -1.044829    15A     -0.997273
      16A     -0.940176    17A     -0.899143    18A     -0.823223
      19A     -0.804387    20A     -0.704153    21A     -0.690985
      22A     -0.672254    23A     -0.616712    24A     -0.607624
      25A     -0.598690    26A     -0.588838    27A     -0.573630
      28A     -0.571663    29A     -0.559430    30A     -0.534466
      31A     -0.528713    32A     -0.497872    33A     -0.484679
      34A     -0.470190    35A     -0.412476    36A     -0.327979
      37A     -0.288687

  @DF-RHF Final Energy:  -438.78790243394940

   => Energetics <=

    Nuclear Repulsion Energy =            525.7061975313940820
    One-Electron Energy =               -1638.8358443042222916
    Two-Electron Energy =                 674.3417443388788115
    Total Energy =                       -438.7879024339493981
  Basis Set: (AUG-CC-PVTZ AUX)
    Blend: AUG-CC-PVTZ-RI
    Molecular point group: c1

    Geometry (in Angstrom), charge = 0, multiplicity = 1:

       Center              X                  Y                   Z               Mass
    ------------   -----------------  -----------------  -----------------  -----------------
         O           -1.275016105335    -1.926195573520    -0.283664126196    15.994914619570
         N           -1.597303105335     0.786779426480    -0.399320126196    14.003074004430
         C           -0.318881105335     0.249235426480    -0.144308126196    12.000000000000
         C            0.824339894665     1.067914426480    -0.036597126196    12.000000000000
         C           -0.149012105335    -1.150534573520    -0.106439126196    12.000000000000
         C            2.083984894665     0.484522426480     0.151008873804    12.000000000000
         C            0.689173894665     2.568440426480    -0.101413126196    12.000000000000
         C            1.015738694665    -1.674426373520     0.099327573804    12.000000000000
         C            2.231361894665    -0.897571573520     0.224309873804    12.000000000000
         C           -2.648631105335     0.492002426480     0.583025873804    12.000000000000
         H            2.957730894665     1.127751426480     0.233921873804     1.007825032230
         H           -1.529696105335     1.790916426480    -0.533238126196     1.007825032230
         H            0.339209894665     2.908498426480    -1.083647126196     1.007825032230
         H           -0.013275105335     2.945755426480     0.650810873804     1.007825032230
         H            1.656131894665     3.043550426480     0.081696873804     1.007825032230
         H            1.206716894665    -2.799576573520     0.152097873804     1.007825032230
         H            3.210513894665    -1.341046573520     0.385397873804     1.007825032230
         H           -2.364475105335     0.759228426480     1.611393873804     1.007825032230
         H           -2.889894105335    -0.568357573520     0.550280873804     1.007825032230
         H           -3.538944105335     1.061566426480     0.305294873804     1.007825032230
         H           -0.994649105335    -2.858768573520    -0.268413126196     1.007825032230

  Basis Set: AUG-CC-PVTZ
    Blend: AUG-CC-PVTZ
  Basis Set: (AUG-CC-PVTZ AUX)
    Blend: AUG-CC-PVTZ-JKFIT
	 Reference Energy          =    -438.7879024339493981 [Eh]
	 Singles Energy            =      -0.0000000000000000 [Eh]
	 Same-Spin Energy          =      -0.4735086093794281 [Eh]
	 Opposite-Spin Energy      =      -1.4973956513566777 [Eh]
	 Correlation Energy        =      -1.9709042607361058 [Eh]
	 Total Energy              =    -440.7588066946855179 [Eh]

	 ================> DF-SCS-MP2 Energies <==================
	-----------------------------------------------------------
	 SCS Same-Spin Scale       =       0.3333333333333333 [-]
	 SCS Opposite-Spin Scale   =       1.2000000000000000 [-]
	 SCS Same-Spin Energy      =      -0.1578362031264760 [Eh]
	 SCS Opposite-Spin Energy  =      -1.7968747816280133 [Eh]
	 SCS Correlation Energy    =      -1.9547109847544892 [Eh]
	 SCS Total Energy          =    -440.7426134187039111 [Eh]
	-----------------------------------------------------------

  Dipole Moment: [D]
     X:     0.2557      Y:     0.1895      Z:     0.7951     Total:     0.8565

*** Psi4 exiting successfully. Buy a developer a beer!
