                               Psi4 1.4a3.dev225

  ==> Input File <==

--------------------------------------------------------------------------
#psi4
#
memory 32 gb

molecule  {
0 1
  O       -1.2691620    -1.9635190    -0.2989340
  N       -1.5914490     0.7494560    -0.4145900
  C       -0.3130270     0.2119120    -0.1595780
  C        0.8301940     1.0305910    -0.0518670
  C       -0.1431580    -1.1878580    -0.1217090
  C        2.0898390     0.4471990     0.1357390
  C        0.6950280     2.5311170    -0.1166830
  C        1.1116310    -1.7522480     0.0999640
  C        2.2372160    -0.9348950     0.2090400
  C       -2.6427770     0.4546790     0.5677560
  H        2.9635850     1.0904280     0.2186520
  H       -1.5225102     1.7733735    -0.5511460
  H        0.3450640     2.8711750    -1.0989170
  H       -0.0074210     2.9084320     0.6355410
  H        1.6619860     3.0062270     0.0664270
  H        1.2125710    -2.8369000     0.1368280
  H        3.2163680    -1.3783700     0.3701280
  H       -2.3586210     0.7219050     1.5961240
  H       -2.8840400    -0.6056810     0.5350110
  H       -3.5330900     1.0242430     0.2900250
  H       -0.9887950    -2.8960920    -0.2836830
units angstrom
no_reorient  #important for SAPT in psi4, default
symmetry c1  #important for SAPT in psi4, default
}

set PROPERTIES_ORIGIN ["COM"]
properties('MP2/aug-cc-pvtz', properties = ['dipole'])
--------------------------------------------------------------------------

    Molecular point group: c1
  Charge       = 0
  Multiplicity = 1
  Basis Set: AUG-CC-PVTZ
    Blend: AUG-CC-PVTZ
  Basis Set: (AUG-CC-PVTZ AUX)
    Blend: AUG-CC-PVTZ-JKFIT

    Orbital Energies [Eh]
    ---------------------

    Doubly Occupied:

       1A    -20.586923     2A    -15.555966     3A    -11.294878
       4A    -11.263132     5A    -11.240440     6A    -11.239811
       7A    -11.231535     8A    -11.230308     9A    -11.229381
      10A    -11.223851    11A     -1.396581    12A     -1.221933
      13A     -1.130701    14A     -1.040788    15A     -0.994067
      16A     -0.937838    17A     -0.899442    18A     -0.822597
      19A     -0.800221    20A     -0.706233    21A     -0.691193
      22A     -0.671501    23A     -0.617105    24A     -0.607559
      25A     -0.597696    26A     -0.587712    27A     -0.575381
      28A     -0.570257    29A     -0.559632    30A     -0.536184
      31A     -0.527728    32A     -0.505135    33A     -0.483901
      34A     -0.470074    35A     -0.412696    36A     -0.318049
      37A     -0.290433

  @DF-RHF Final Energy:  -438.79999785839897

   => Energetics <=

    Nuclear Repulsion Energy =            524.0257184509060835
    One-Electron Energy =               -1635.5137101847626582
    Two-Electron Energy =                 672.6879938754577779
    Total Energy =                       -438.7999978583989105
  Basis Set: (AUG-CC-PVTZ AUX)
    Blend: AUG-CC-PVTZ-RI
    Molecular point group: c1

    Geometry (in Angstrom), charge = 0, multiplicity = 1:

       Center              X                  Y                   Z               Mass
    ------------   -----------------  -----------------  -----------------  -----------------
         O           -1.282907617959    -1.922795885012    -0.285037130119    15.994914619570
         N           -1.605194617959     0.790179114988    -0.400693130119    14.003074004430
         C           -0.326772617959     0.252635114988    -0.145681130119    12.000000000000
         C            0.816448382041     1.071314114988    -0.037970130119    12.000000000000
         C           -0.156903617959    -1.147134885012    -0.107812130119    12.000000000000
         C            2.076093382041     0.487922114988     0.149635869881    12.000000000000
         C            0.681282382041     2.571840114988    -0.102786130119    12.000000000000
         C            1.097885382041    -1.711524885012     0.113860869881    12.000000000000
         C            2.223470382041    -0.894171885012     0.222936869881    12.000000000000
         C           -2.656522617959     0.495402114988     0.581652869881    12.000000000000
         H            2.949839382041     1.131151114988     0.232548869881     1.007825032230
         H           -1.536255817959     1.814096614988    -0.537249130119     1.007825032230
         H            0.331318382041     2.911898114988    -1.085020130119     1.007825032230
         H           -0.021166617959     2.949155114988     0.649437869881     1.007825032230
         H            1.648240382041     3.046950114988     0.080323869881     1.007825032230
         H            1.198825382041    -2.796176885012     0.150724869881     1.007825032230
         H            3.202622382041    -1.337646885012     0.384024869881     1.007825032230
         H           -2.372366617959     0.762628114988     1.610020869881     1.007825032230
         H           -2.897785617959    -0.564957885012     0.548907869881     1.007825032230
         H           -3.546835617959     1.064966114988     0.303921869881     1.007825032230
         H           -1.002540617959    -2.855368885012    -0.269786130119     1.007825032230

  Basis Set: AUG-CC-PVTZ
    Blend: AUG-CC-PVTZ
  Basis Set: (AUG-CC-PVTZ AUX)
    Blend: AUG-CC-PVTZ-JKFIT
	 Reference Energy          =    -438.7999978583989673 [Eh]
	 Singles Energy            =      -0.0000000000000000 [Eh]
	 Same-Spin Energy          =      -0.4738924002010455 [Eh]
	 Opposite-Spin Energy      =      -1.4976659736281845 [Eh]
	 Correlation Energy        =      -1.9715583738292302 [Eh]
	 Total Energy              =    -440.7715562322281926 [Eh]

	 ================> DF-SCS-MP2 Energies <==================
	-----------------------------------------------------------
	 SCS Same-Spin Scale       =       0.3333333333333333 [-]
	 SCS Opposite-Spin Scale   =       1.2000000000000000 [-]
	 SCS Same-Spin Energy      =      -0.1579641334003485 [Eh]
	 SCS Opposite-Spin Energy  =      -1.7971991683538213 [Eh]
	 SCS Correlation Energy    =      -1.9551633017541699 [Eh]
	 SCS Total Energy          =    -440.7551611601531363 [Eh]
	-----------------------------------------------------------

  Dipole Moment: [D]
     X:     0.1867      Y:     0.1060      Z:     0.7771     Total:     0.8062

*** Psi4 exiting successfully. Buy a developer a beer!
