                               Psi4 1.4a3.dev225

  ==> Input File <==

--------------------------------------------------------------------------
#psi4
#
memory 32 gb

molecule  {
0 1
  O       -1.2691620    -1.9635190    -0.2989340
  N       -1.5914490     0.7494560    -0.4145900
  C       -0.3130270     0.2119120    -0.1595780
  C        0.8301940     1.0305910    -0.0518670
  C       -0.1431580    -1.1878580    -0.1217090
  C        2.0898390     0.4471990     0.1357390
  C        0.6950280     2.5311170    -0.1166830
  C        1.1116310    -1.7522480     0.0999640
  C        2.2372160    -0.9348950     0.2090400
  C       -2.6427770     0.4546790     0.5677560
  H        2.9635850     1.0904280     0.2186520
  H       -1.5238420     1.7535930    -0.5485080
  H        0.3450640     2.8711750    -1.0989170
  H       -0.0074210     2.9084320     0.6355410
  H        1.6619860     3.0062270     0.0664270
  H        1.2125710    -2.8369000     0.1368280
  H        3.2163680    -1.3783700     0.3701280
  H       -2.3586210     0.7219050     1.5961240
  H       -2.9193804    -0.5966342     0.5244613
  H       -3.5330900     1.0242430     0.2900250
  H       -0.9887950    -2.8960920    -0.2836830
units angstrom
no_reorient  #important for SAPT in psi4, default
symmetry c1  #important for SAPT in psi4, default
}

set PROPERTIES_ORIGIN ["COM"]
properties('MP2/aug-cc-pvtz', properties = ['dipole'])
--------------------------------------------------------------------------

    Molecular point group: c1
  Charge       = 0
  Multiplicity = 1
  Basis Set: AUG-CC-PVTZ
    Blend: AUG-CC-PVTZ
  Basis Set: (AUG-CC-PVTZ AUX)
    Blend: AUG-CC-PVTZ-JKFIT

    Orbital Energies [Eh]
    ---------------------

    Doubly Occupied:

       1A    -20.586660     2A    -15.554255     3A    -11.294751
       4A    -11.263007     5A    -11.240446     6A    -11.240038
       7A    -11.231473     8A    -11.230223     9A    -11.229365
      10A    -11.223794    11A     -1.396257    12A     -1.223892
      13A     -1.131042    14A     -1.040755    15A     -0.994214
      16A     -0.937822    17A     -0.900904    18A     -0.822642
      19A     -0.801017    20A     -0.706142    21A     -0.692697
      22A     -0.671483    23A     -0.616892    24A     -0.608184
      25A     -0.598476    26A     -0.588091    27A     -0.575355
      28A     -0.570336    29A     -0.560919    30A     -0.536043
      31A     -0.526736    32A     -0.504854    33A     -0.483815
      34A     -0.470385    35A     -0.413726    36A     -0.317994
      37A     -0.290479

  @DF-RHF Final Energy:  -438.80106598755532

   => Energetics <=

    Nuclear Repulsion Energy =            524.0557632825988321
    One-Electron Energy =               -1635.5633276079522602
    Two-Electron Energy =                 672.7064983377982799
    Total Energy =                       -438.8010659875552619
  Basis Set: (AUG-CC-PVTZ AUX)
    Blend: AUG-CC-PVTZ-RI
    Molecular point group: c1

    Geometry (in Angstrom), charge = 0, multiplicity = 1:

       Center              X                  Y                   Z               Mass
    ------------   -----------------  -----------------  -----------------  -----------------
         O           -1.282638008494    -1.922716972181    -0.284978964282    15.994914619570
         N           -1.604925008494     0.790258027819    -0.400634964282    14.003074004430
         C           -0.326503008494     0.252714027819    -0.145622964282    12.000000000000
         C            0.816717991506     1.071393027819    -0.037911964282    12.000000000000
         C           -0.156634008494    -1.147055972181    -0.107753964282    12.000000000000
         C            2.076362991506     0.488001027819     0.149694035718    12.000000000000
         C            0.681551991506     2.571919027819    -0.102727964282    12.000000000000
         C            1.098154991506    -1.711445972181     0.113919035718    12.000000000000
         C            2.223739991506    -0.894092972181     0.222995035718    12.000000000000
         C           -2.656253008494     0.495481027819     0.581711035718    12.000000000000
         H            2.950108991506     1.131230027819     0.232607035718     1.007825032230
         H           -1.537318008494     1.794395027819    -0.534552964282     1.007825032230
         H            0.331587991506     2.911977027819    -1.084961964282     1.007825032230
         H           -0.020897008494     2.949234027819     0.649496035718     1.007825032230
         H            1.648509991506     3.047029027819     0.080382035718     1.007825032230
         H            1.199094991506    -2.796097972181     0.150783035718     1.007825032230
         H            3.202891991506    -1.337567972181     0.384083035718     1.007825032230
         H           -2.372097008494     0.762707027819     1.610079035718     1.007825032230
         H           -2.932856408494    -0.555832172181     0.538416335718     1.007825032230
         H           -3.546566008494     1.065045027819     0.303980035718     1.007825032230
         H           -1.002271008494    -2.855289972181    -0.269727964282     1.007825032230

  Basis Set: AUG-CC-PVTZ
    Blend: AUG-CC-PVTZ
  Basis Set: (AUG-CC-PVTZ AUX)
    Blend: AUG-CC-PVTZ-JKFIT
	 Reference Energy          =    -438.8010659875553188 [Eh]
	 Singles Energy            =      -0.0000000000000000 [Eh]
	 Same-Spin Energy          =      -0.4736883175585184 [Eh]
	 Opposite-Spin Energy      =      -1.4971966230481715 [Eh]
	 Correlation Energy        =      -1.9708849406066897 [Eh]
	 Total Energy              =    -440.7719509281620276 [Eh]

	 ================> DF-SCS-MP2 Energies <==================
	-----------------------------------------------------------
	 SCS Same-Spin Scale       =       0.3333333333333333 [-]
	 SCS Opposite-Spin Scale   =       1.2000000000000000 [-]
	 SCS Same-Spin Energy      =      -0.1578961058528394 [Eh]
	 SCS Opposite-Spin Energy  =      -1.7966359476578058 [Eh]
	 SCS Correlation Energy    =      -1.9545320535106452 [Eh]
	 SCS Total Energy          =    -440.7555980410659799 [Eh]
	-----------------------------------------------------------

  Dipole Moment: [D]
     X:     0.1690      Y:     0.1011      Z:     0.7767     Total:     0.8013

*** Psi4 exiting successfully. Buy a developer a beer!
