                               Psi4 1.4a3.dev225

  ==> Input File <==

--------------------------------------------------------------------------
#psi4
#
memory 32 gb

molecule  {
0 1
  O       -1.2691620    -1.9635190    -0.2989340
  N       -1.5914490     0.7494560    -0.4145900
  C       -0.3130270     0.2119120    -0.1595780
  C        0.8301940     1.0305910    -0.0518670
  C       -0.1431580    -1.1878580    -0.1217090
  C        2.0898390     0.4471990     0.1357390
  C        0.6950280     2.5311170    -0.1166830
  C        1.1116310    -1.7522480     0.0999640
  C        2.2350983    -0.9150353     0.2079867
  C       -2.6427770     0.4546790     0.5677560
  H        2.9635850     1.0904280     0.2186520
  H       -1.5238420     1.7535930    -0.5485080
  H        0.3450640     2.8711750    -1.0989170
  H       -0.0074210     2.9084320     0.6355410
  H        1.6619860     3.0062270     0.0664270
  H        1.2125710    -2.8369000     0.1368280
  H        3.2163680    -1.3783700     0.3701280
  H       -2.3586210     0.7219050     1.5961240
  H       -2.8840400    -0.6056810     0.5350110
  H       -3.5330900     1.0242430     0.2900250
  H       -0.9887950    -2.8960920    -0.2836830
units angstrom
no_reorient  #important for SAPT in psi4, default
symmetry c1  #important for SAPT in psi4, default
}

set PROPERTIES_ORIGIN ["COM"]
properties('MP2/aug-cc-pvtz', properties = ['dipole'])
--------------------------------------------------------------------------

    Molecular point group: c1
  Charge       = 0
  Multiplicity = 1
  Basis Set: AUG-CC-PVTZ
    Blend: AUG-CC-PVTZ
  Basis Set: (AUG-CC-PVTZ AUX)
    Blend: AUG-CC-PVTZ-JKFIT

    Orbital Energies [Eh]
    ---------------------

    Doubly Occupied:

       1A    -20.586935     2A    -15.553970     3A    -11.295153
       4A    -11.263115     5A    -11.240294     6A    -11.239836
       7A    -11.231466     8A    -11.230239     9A    -11.229312
      10A    -11.221788    11A     -1.396650    12A     -1.223976
      13A     -1.132248    14A     -1.039779    15A     -0.996115
      16A     -0.938284    17A     -0.900142    18A     -0.823522
      19A     -0.799690    20A     -0.706610    21A     -0.693019
      22A     -0.671229    23A     -0.617759    24A     -0.607185
      25A     -0.598402    26A     -0.587829    27A     -0.576043
      28A     -0.570287    29A     -0.559857    30A     -0.535484
      31A     -0.527588    32A     -0.505044    33A     -0.484344
      34A     -0.471044    35A     -0.413305    36A     -0.317313
      37A     -0.291813

  @DF-RHF Final Energy:  -438.80074191951314

   => Energetics <=

    Nuclear Repulsion Energy =            524.3414612005929030
    One-Electron Energy =               -1636.1310652116846995
    Two-Electron Energy =                 672.9888620915786532
    Total Energy =                       -438.8007419195131433
  Basis Set: (AUG-CC-PVTZ AUX)
    Blend: AUG-CC-PVTZ-RI
    Molecular point group: c1

    Geometry (in Angstrom), charge = 0, multiplicity = 1:

       Center              X                  Y                   Z               Mass
    ------------   -----------------  -----------------  -----------------  -----------------
         O           -1.282712448509    -1.924388930262    -0.284964321090    15.994914619570
         N           -1.604999448509     0.788586069738    -0.400620321090    14.003074004430
         C           -0.326577448509     0.251042069738    -0.145608321090    12.000000000000
         C            0.816643551491     1.069721069738    -0.037897321090    12.000000000000
         C           -0.156708448509    -1.148727930262    -0.107739321090    12.000000000000
         C            2.076288551491     0.486329069738     0.149708678910    12.000000000000
         C            0.681477551491     2.570247069738    -0.102713321090    12.000000000000
         C            1.098080551491    -1.713117930262     0.113933678910    12.000000000000
         C            2.221547851491    -0.875905230262     0.221956378910    12.000000000000
         C           -2.656327448509     0.493809069738     0.581725678910    12.000000000000
         H            2.950034551491     1.129558069738     0.232621678910     1.007825032230
         H           -1.537392448509     1.792723069738    -0.534538321090     1.007825032230
         H            0.331513551491     2.910305069738    -1.084947321090     1.007825032230
         H           -0.020971448509     2.947562069738     0.649510678910     1.007825032230
         H            1.648435551491     3.045357069738     0.080396678910     1.007825032230
         H            1.199020551491    -2.797769930262     0.150797678910     1.007825032230
         H            3.202817551491    -1.339239930262     0.384097678910     1.007825032230
         H           -2.372171448509     0.761035069738     1.610093678910     1.007825032230
         H           -2.897590448509    -0.566550930262     0.548980678910     1.007825032230
         H           -3.546640448509     1.063373069738     0.303994678910     1.007825032230
         H           -1.002345448509    -2.856961930262    -0.269713321090     1.007825032230

  Basis Set: AUG-CC-PVTZ
    Blend: AUG-CC-PVTZ
  Basis Set: (AUG-CC-PVTZ AUX)
    Blend: AUG-CC-PVTZ-JKFIT
	 Reference Energy          =    -438.8007419195131433 [Eh]
	 Singles Energy            =      -0.0000000000000000 [Eh]
	 Same-Spin Energy          =      -0.4736838236116447 [Eh]
	 Opposite-Spin Energy      =      -1.4971766865754133 [Eh]
	 Correlation Energy        =      -1.9708605101870580 [Eh]
	 Total Energy              =    -440.7716024297001809 [Eh]

	 ================> DF-SCS-MP2 Energies <==================
	-----------------------------------------------------------
	 SCS Same-Spin Scale       =       0.3333333333333333 [-]
	 SCS Opposite-Spin Scale   =       1.2000000000000000 [-]
	 SCS Same-Spin Energy      =      -0.1578946078705482 [Eh]
	 SCS Opposite-Spin Energy  =      -1.7966120238904959 [Eh]
	 SCS Correlation Energy    =      -1.9545066317610442 [Eh]
	 SCS Total Energy          =    -440.7552485512741782 [Eh]
	-----------------------------------------------------------

  Dipole Moment: [D]
     X:     0.1821      Y:     0.0987      Z:     0.7772     Total:     0.8043

*** Psi4 exiting successfully. Buy a developer a beer!
