                               Psi4 1.4a3.dev225

  ==> Input File <==

--------------------------------------------------------------------------
#psi4
#
memory 32 gb

molecule  {
0 1
  O       -1.2691620    -1.9635190    -0.2989340
  N       -1.5914490     0.7494560    -0.4145900
  C       -0.3130270     0.2119120    -0.1595780
  C        0.8301940     1.0305910    -0.0518670
  C       -0.1431580    -1.1878580    -0.1217090
  C        2.0898390     0.4471990     0.1357390
  C        0.7039913     2.4316123    -0.1123848
  C        1.1116310    -1.7522480     0.0999640
  C        2.2372160    -0.9348950     0.2090400
  C       -2.6427770     0.4546790     0.5677560
  H        2.9635850     1.0904280     0.2186520
  H       -1.5238420     1.7535930    -0.5485080
  H        0.3450640     2.8711750    -1.0989170
  H       -0.0074210     2.9084320     0.6355410
  H        1.6619860     3.0062270     0.0664270
  H        1.2125710    -2.8369000     0.1368280
  H        3.2163680    -1.3783700     0.3701280
  H       -2.3586210     0.7219050     1.5961240
  H       -2.8840400    -0.6056810     0.5350110
  H       -3.5330900     1.0242430     0.2900250
  H       -0.9887950    -2.8960920    -0.2836830
units angstrom
no_reorient  #important for SAPT in psi4, default
symmetry c1  #important for SAPT in psi4, default
}

set PROPERTIES_ORIGIN ["COM"]
properties('MP2/aug-cc-pvtz', properties = ['dipole'])
--------------------------------------------------------------------------

    Molecular point group: c1
  Charge       = 0
  Multiplicity = 1
  Basis Set: AUG-CC-PVTZ
    Blend: AUG-CC-PVTZ
  Basis Set: (AUG-CC-PVTZ AUX)
    Blend: AUG-CC-PVTZ-JKFIT

    Orbital Energies [Eh]
    ---------------------

    Doubly Occupied:

       1A    -20.587251     2A    -15.554367     3A    -11.295249
       4A    -11.263582     5A    -11.240066     6A    -11.235183
       7A    -11.233694     8A    -11.231971     9A    -11.230767
      10A    -11.224200    11A     -1.396913    12A     -1.225594
      13A     -1.135047    14A     -1.053164    15A     -0.994921
      16A     -0.935141    17A     -0.900884    18A     -0.820427
      19A     -0.802690    20A     -0.710562    21A     -0.693993
      22A     -0.673054    23A     -0.618042    24A     -0.612965
      25A     -0.599156    26A     -0.588272    27A     -0.584407
      28A     -0.566855    29A     -0.555340    30A     -0.533738
      31A     -0.517438    32A     -0.509388    33A     -0.484692
      34A     -0.466242    35A     -0.413378    36A     -0.316180
      37A     -0.290681

  @DF-RHF Final Energy:  -438.78863315046021

   => Energetics <=

    Nuclear Repulsion Energy =            526.0014575817865534
    One-Electron Energy =               -1639.3891894191049232
    Two-Electron Energy =                 674.5990986868581558
    Total Energy =                       -438.7886331504602140
  Basis Set: (AUG-CC-PVTZ AUX)
    Blend: AUG-CC-PVTZ-RI
    Molecular point group: c1

    Geometry (in Angstrom), charge = 0, multiplicity = 1:

       Center              X                  Y                   Z               Mass
    ------------   -----------------  -----------------  -----------------  -----------------
         O           -1.283682451849    -1.913940065832    -0.285432778167    15.994914619570
         N           -1.605969451849     0.799034934168    -0.401088778167    14.003074004430
         C           -0.327547451849     0.261490934168    -0.146076778167    12.000000000000
         C            0.815673548151     1.080169934168    -0.038365778167    12.000000000000
         C           -0.157678451849    -1.138279065832    -0.108207778167    12.000000000000
         C            2.075318548151     0.496777934168     0.149240221833    12.000000000000
         C            0.689470848151     2.481191234168    -0.098883578167    12.000000000000
         C            1.097110548151    -1.702669065832     0.113465221833    12.000000000000
         C            2.222695548151    -0.885316065832     0.222541221833    12.000000000000
         C           -2.657297451849     0.504257934168     0.581257221833    12.000000000000
         H            2.949064548151     1.140006934168     0.232153221833     1.007825032230
         H           -1.538362451849     1.803171934168    -0.535006778167     1.007825032230
         H            0.330543548151     2.920753934168    -1.085415778167     1.007825032230
         H           -0.021941451849     2.958010934168     0.649042221833     1.007825032230
         H            1.647465548151     3.055805934168     0.079928221833     1.007825032230
         H            1.198050548151    -2.787321065832     0.150329221833     1.007825032230
         H            3.201847548151    -1.328791065832     0.383629221833     1.007825032230
         H           -2.373141451849     0.771483934168     1.609625221833     1.007825032230
         H           -2.898560451849    -0.556102065832     0.548512221833     1.007825032230
         H           -3.547610451849     1.073821934168     0.303526221833     1.007825032230
         H           -1.003315451849    -2.846513065832    -0.270181778167     1.007825032230

  Basis Set: AUG-CC-PVTZ
    Blend: AUG-CC-PVTZ
  Basis Set: (AUG-CC-PVTZ AUX)
    Blend: AUG-CC-PVTZ-JKFIT
	 Reference Energy          =    -438.7886331504602140 [Eh]
	 Singles Energy            =      -0.0000000000000000 [Eh]
	 Same-Spin Energy          =      -0.4751552380117788 [Eh]
	 Opposite-Spin Energy      =      -1.4989045956462645 [Eh]
	 Correlation Energy        =      -1.9740598336580435 [Eh]
	 Total Energy              =    -440.7626929841182459 [Eh]

	 ================> DF-SCS-MP2 Energies <==================
	-----------------------------------------------------------
	 SCS Same-Spin Scale       =       0.3333333333333333 [-]
	 SCS Opposite-Spin Scale   =       1.2000000000000000 [-]
	 SCS Same-Spin Energy      =      -0.1583850793372596 [Eh]
	 SCS Opposite-Spin Energy  =      -1.7986855147755174 [Eh]
	 SCS Correlation Energy    =      -1.9570705941127771 [Eh]
	 SCS Total Energy          =    -440.7457037445730066 [Eh]
	-----------------------------------------------------------

  Dipole Moment: [D]
     X:     0.1802      Y:     0.0782      Z:     0.7852     Total:     0.8094

*** Psi4 exiting successfully. Buy a developer a beer!
