                               Psi4 1.4a3.dev225

  ==> Input File <==

--------------------------------------------------------------------------
#psi4
#
memory 32 gb

molecule  {
0 1
  O       -1.2691620    -1.9635190    -0.2989340
  N       -1.5914490     0.7494560    -0.4145900
  C       -0.3130270     0.2119120    -0.1595780
  C        0.8301940     1.0305910    -0.0518670
  C       -0.1431580    -1.1878580    -0.1217090
  C        2.0898390     0.4471990     0.1357390
  C        0.6950280     2.5311170    -0.1166830
  C        1.1116310    -1.7522480     0.0999640
  C        2.2372160    -0.9348950     0.2090400
  C       -2.6427770     0.4546790     0.5677560
  H        2.9635850     1.0904280     0.2186520
  H       -1.5238420     1.7535930    -0.5485080
  H        0.3450640     2.8711750    -1.0989170
  H       -0.0074210     2.9084320     0.6355410
  H        1.6619860     3.0062270     0.0664270
  H        1.2125710    -2.8369000     0.1368280
  H        3.1262816    -1.3375683     0.3553072
  H       -2.3586210     0.7219050     1.5961240
  H       -2.8840400    -0.6056810     0.5350110
  H       -3.5330900     1.0242430     0.2900250
  H       -0.9887950    -2.8960920    -0.2836830
units angstrom
no_reorient  #important for SAPT in psi4, default
symmetry c1  #important for SAPT in psi4, default
}

set PROPERTIES_ORIGIN ["COM"]
properties('MP2/aug-cc-pvtz', properties = ['dipole'])
--------------------------------------------------------------------------

    Molecular point group: c1
  Charge       = 0
  Multiplicity = 1
  Basis Set: AUG-CC-PVTZ
    Blend: AUG-CC-PVTZ
  Basis Set: (AUG-CC-PVTZ AUX)
    Blend: AUG-CC-PVTZ-JKFIT

    Orbital Energies [Eh]
    ---------------------

    Doubly Occupied:

       1A    -20.586507     2A    -15.553766     3A    -11.294277
       4A    -11.262835     5A    -11.239894     6A    -11.239657
       7A    -11.230043     8A    -11.228996     9A    -11.223252
      10A    -11.218830    11A     -1.396191    12A     -1.223668
      13A     -1.131630    14A     -1.041357    15A     -0.996600
      16A     -0.937364    17A     -0.902129    18A     -0.825633
      19A     -0.805475    20A     -0.707132    21A     -0.693561
      22A     -0.675393    23A     -0.625987    24A     -0.609755
      25A     -0.597811    26A     -0.587651    27A     -0.575513
      28A     -0.569866    29A     -0.559604    30A     -0.537572
      31A     -0.530093    32A     -0.504973    33A     -0.486683
      34A     -0.469678    35A     -0.412761    36A     -0.317553
      37A     -0.290232

  @DF-RHF Final Energy:  -438.79525750039062

   => Energetics <=

    Nuclear Repulsion Energy =            524.6940692268312887
    One-Electron Energy =               -1636.7988076661538344
    Two-Electron Energy =                 673.3094809389318698
    Total Energy =                       -438.7952575003906759
  Basis Set: (AUG-CC-PVTZ AUX)
    Blend: AUG-CC-PVTZ-RI
    Molecular point group: c1

    Geometry (in Angstrom), charge = 0, multiplicity = 1:

       Center              X                  Y                   Z               Mass
    ------------   -----------------  -----------------  -----------------  -----------------
         O           -1.282235522694    -1.922950430267    -0.284947563684    15.994914619570
         N           -1.604522522694     0.790024569733    -0.400603563684    14.003074004430
         C           -0.326100522694     0.252480569733    -0.145591563684    12.000000000000
         C            0.817120477306     1.071159569733    -0.037880563684    12.000000000000
         C           -0.156231522694    -1.147289430267    -0.107722563684    12.000000000000
         C            2.076765477306     0.487767569733     0.149725436316    12.000000000000
         C            0.681954477306     2.571685569733    -0.102696563684    12.000000000000
         C            1.098557477306    -1.711679430267     0.113950436316    12.000000000000
         C            2.224142477306    -0.894326430267     0.223026436316    12.000000000000
         C           -2.655850522694     0.495247569733     0.581742436316    12.000000000000
         H            2.950511477306     1.130996569733     0.232638436316     1.007825032230
         H           -1.536915522694     1.794161569733    -0.534521563684     1.007825032230
         H            0.331990477306     2.911743569733    -1.084930563684     1.007825032230
         H           -0.020494522694     2.949000569733     0.649527436316     1.007825032230
         H            1.648912477306     3.046795569733     0.080413436316     1.007825032230
         H            1.199497477306    -2.796331430267     0.150814436316     1.007825032230
         H            3.113208077306    -1.296999730267     0.369293636316     1.007825032230
         H           -2.371694522694     0.762473569733     1.610110436316     1.007825032230
         H           -2.897113522694    -0.565112430267     0.548997436316     1.007825032230
         H           -3.546163522694     1.064811569733     0.304011436316     1.007825032230
         H           -1.001868522694    -2.855523430267    -0.269696563684     1.007825032230

  Basis Set: AUG-CC-PVTZ
    Blend: AUG-CC-PVTZ
  Basis Set: (AUG-CC-PVTZ AUX)
    Blend: AUG-CC-PVTZ-JKFIT
	 Reference Energy          =    -438.7952575003906190 [Eh]
	 Singles Energy            =      -0.0000000000000000 [Eh]
	 Same-Spin Energy          =      -0.4735875773038976 [Eh]
	 Opposite-Spin Energy      =      -1.4966929972362863 [Eh]
	 Correlation Energy        =      -1.9702805745401839 [Eh]
	 Total Energy              =    -440.7655380749308165 [Eh]

	 ================> DF-SCS-MP2 Energies <==================
	-----------------------------------------------------------
	 SCS Same-Spin Scale       =       0.3333333333333333 [-]
	 SCS Opposite-Spin Scale   =       1.2000000000000000 [-]
	 SCS Same-Spin Energy      =      -0.1578625257679658 [Eh]
	 SCS Opposite-Spin Energy  =      -1.7960315966835436 [Eh]
	 SCS Correlation Energy    =      -1.9538941224515094 [Eh]
	 SCS Total Energy          =    -440.7491516228421347 [Eh]
	-----------------------------------------------------------

  Dipole Moment: [D]
     X:     0.2172      Y:     0.0821      Z:     0.7825     Total:     0.8162

*** Psi4 exiting successfully. Buy a developer a beer!
