                               Psi4 1.4a3.dev225

  ==> Input File <==

--------------------------------------------------------------------------
#psi4
#
memory 32 gb

molecule  {
0 1
  O       -1.2691620    -1.9635190    -0.2989340
  N       -1.5914490     0.7494560    -0.4145900
  C       -0.3130270     0.2119120    -0.1595780
  C        0.8301940     1.0305910    -0.0518670
  C       -0.1431580    -1.1878580    -0.1217090
  C        2.0898390     0.4471990     0.1357390
  C        0.6860647     2.6306217    -0.1209812
  C        1.1116310    -1.7522480     0.0999640
  C        2.2372160    -0.9348950     0.2090400
  C       -2.6427770     0.4546790     0.5677560
  H        2.9635850     1.0904280     0.2186520
  H       -1.5238420     1.7535930    -0.5485080
  H        0.3450640     2.8711750    -1.0989170
  H       -0.0074210     2.9084320     0.6355410
  H        1.6619860     3.0062270     0.0664270
  H        1.2125710    -2.8369000     0.1368280
  H        3.2163680    -1.3783700     0.3701280
  H       -2.3586210     0.7219050     1.5961240
  H       -2.8840400    -0.6056810     0.5350110
  H       -3.5330900     1.0242430     0.2900250
  H       -0.9887950    -2.8960920    -0.2836830
units angstrom
no_reorient  #important for SAPT in psi4, default
symmetry c1  #important for SAPT in psi4, default
}

set PROPERTIES_ORIGIN ["COM"]
properties('MP2/aug-cc-pvtz', properties = ['dipole'])
--------------------------------------------------------------------------

    Molecular point group: c1
  Charge       = 0
  Multiplicity = 1
  Basis Set: AUG-CC-PVTZ
    Blend: AUG-CC-PVTZ
  Basis Set: (AUG-CC-PVTZ AUX)
    Blend: AUG-CC-PVTZ-JKFIT

    Orbital Energies [Eh]
    ---------------------

    Doubly Occupied:

       1A    -20.586685     2A    -15.553660     3A    -11.294574
       4A    -11.262900     5A    -11.244401     6A    -11.239640
       7A    -11.231313     8A    -11.230005     9A    -11.227512
      10A    -11.223822    11A     -1.396340    12A     -1.222748
      13A     -1.128754    14A     -1.031458    15A     -0.993787
      16A     -0.941324    17A     -0.900422    18A     -0.824128
      19A     -0.799868    20A     -0.703350    21A     -0.692315
      22A     -0.670460    23A     -0.617413    24A     -0.607227
      25A     -0.599328    26A     -0.588584    27A     -0.582537
      28A     -0.568278    29A     -0.558117    30A     -0.547881
      31A     -0.527542    32A     -0.500477    33A     -0.473671
      34A     -0.471382    35A     -0.412781    36A     -0.319044
      37A     -0.290365

  @DF-RHF Final Energy:  -438.79415342223905

   => Energetics <=

    Nuclear Repulsion Energy =            522.3835078930234204
    One-Electron Energy =               -1632.2271380306031006
    Two-Electron Energy =                 671.0494767153405746
    Total Energy =                       -438.7941534222389919
  Basis Set: (AUG-CC-PVTZ AUX)
    Blend: AUG-CC-PVTZ-RI
    Molecular point group: c1

    Geometry (in Angstrom), charge = 0, multiplicity = 1:

       Center              X                  Y                   Z               Mass
    ------------   -----------------  -----------------  -----------------  -----------------
         O           -1.282113201612    -1.931360856628    -0.284680270567    15.994914619570
         N           -1.604400201612     0.781614143372    -0.400336270567    14.003074004430
         C           -0.325978201612     0.244070143372    -0.145324270567    12.000000000000
         C            0.817242798388     1.062749143372    -0.037613270567    12.000000000000
         C           -0.156109201612    -1.155699856628    -0.107455270567    12.000000000000
         C            2.076887798388     0.479357143372     0.149992729433    12.000000000000
         C            0.673113498388     2.662779843372    -0.106727470567    12.000000000000
         C            1.098679798388    -1.720089856628     0.114217729433    12.000000000000
         C            2.224264798388    -0.902736856628     0.223293729433    12.000000000000
         C           -2.655728201612     0.486837143372     0.582009729433    12.000000000000
         H            2.950633798388     1.122586143372     0.232905729433     1.007825032230
         H           -1.536793201612     1.785751143372    -0.534254270567     1.007825032230
         H            0.332112798388     2.903333143372    -1.084663270567     1.007825032230
         H           -0.020372201612     2.940590143372     0.649794729433     1.007825032230
         H            1.649034798388     3.038385143372     0.080680729433     1.007825032230
         H            1.199619798388    -2.804741856628     0.151081729433     1.007825032230
         H            3.203416798388    -1.346211856628     0.384381729433     1.007825032230
         H           -2.371572201612     0.754063143372     1.610377729433     1.007825032230
         H           -2.896991201612    -0.573522856628     0.549264729433     1.007825032230
         H           -3.546041201612     1.056401143372     0.304278729433     1.007825032230
         H           -1.001746201612    -2.863933856628    -0.269429270567     1.007825032230

  Basis Set: AUG-CC-PVTZ
    Blend: AUG-CC-PVTZ
  Basis Set: (AUG-CC-PVTZ AUX)
    Blend: AUG-CC-PVTZ-JKFIT
	 Reference Energy          =    -438.7941534222390487 [Eh]
	 Singles Energy            =      -0.0000000000000000 [Eh]
	 Same-Spin Energy          =      -0.4731693403677581 [Eh]
	 Opposite-Spin Energy      =      -1.4969981855773669 [Eh]
	 Correlation Energy        =      -1.9701675259451250 [Eh]
	 Total Energy              =    -440.7643209481841495 [Eh]

	 ================> DF-SCS-MP2 Energies <==================
	-----------------------------------------------------------
	 SCS Same-Spin Scale       =       0.3333333333333333 [-]
	 SCS Opposite-Spin Scale   =       1.2000000000000000 [-]
	 SCS Same-Spin Energy      =      -0.1577231134559194 [Eh]
	 SCS Opposite-Spin Energy  =      -1.7963978226928401 [Eh]
	 SCS Correlation Energy    =      -1.9541209361487595 [Eh]
	 SCS Total Energy          =    -440.7482743583877891 [Eh]
	-----------------------------------------------------------

  Dipole Moment: [D]
     X:     0.1930      Y:     0.0838      Z:     0.7742     Total:     0.8023

*** Psi4 exiting successfully. Buy a developer a beer!
