                               Psi4 1.4a3.dev225

  ==> Input File <==

--------------------------------------------------------------------------
#psi4
#
memory 32 gb

molecule  {
0 1
  O       -1.2418017    -2.0028257    -0.2942008
  N       -1.5914490     0.7494560    -0.4145900
  C       -0.3130270     0.2119120    -0.1595780
  C        0.8301940     1.0305910    -0.0518670
  C       -0.1431580    -1.1878580    -0.1217090
  C        2.0898390     0.4471990     0.1357390
  C        0.6950280     2.5311170    -0.1166830
  C        1.1116310    -1.7522480     0.0999640
  C        2.2372160    -0.9348950     0.2090400
  C       -2.6427770     0.4546790     0.5677560
  H        2.9635850     1.0904280     0.2186520
  H       -1.5238420     1.7535930    -0.5485080
  H        0.3450640     2.8711750    -1.0989170
  H       -0.0074210     2.9084320     0.6355410
  H        1.6619860     3.0062270     0.0664270
  H        1.2125710    -2.8369000     0.1368280
  H        3.2163680    -1.3783700     0.3701280
  H       -2.3586210     0.7219050     1.5961240
  H       -2.8840400    -0.6056810     0.5350110
  H       -3.5330900     1.0242430     0.2900250
  H       -0.9887950    -2.8960920    -0.2836830
units angstrom
no_reorient  #important for SAPT in psi4, default
symmetry c1  #important for SAPT in psi4, default
}

set PROPERTIES_ORIGIN ["COM"]
properties('MP2/aug-cc-pvtz', properties = ['dipole'])
--------------------------------------------------------------------------

    Molecular point group: c1
  Charge       = 0
  Multiplicity = 1
  Basis Set: AUG-CC-PVTZ
    Blend: AUG-CC-PVTZ
  Basis Set: (AUG-CC-PVTZ AUX)
    Blend: AUG-CC-PVTZ-JKFIT

    Orbital Energies [Eh]
    ---------------------

    Doubly Occupied:

       1A    -20.581113     2A    -15.554335     3A    -11.295648
       4A    -11.264402     5A    -11.241075     6A    -11.240595
       7A    -11.231098     8A    -11.229774     9A    -11.229611
      10A    -11.224013    11A     -1.404102    12A     -1.224942
      13A     -1.131424    14A     -1.041307    15A     -0.996007
      16A     -0.937930    17A     -0.901885    18A     -0.826817
      19A     -0.802379    20A     -0.713018    21A     -0.696559
      22A     -0.671216    23A     -0.618982    24A     -0.607668
      25A     -0.598851    26A     -0.587290    27A     -0.575532
      28A     -0.570027    29A     -0.560082    30A     -0.536225
      31A     -0.529011    32A     -0.505556    33A     -0.484689
      34A     -0.470616    35A     -0.413476    36A     -0.317836
      37A     -0.291085

  @DF-RHF Final Energy:  -438.80230744931089

   => Energetics <=

    Nuclear Repulsion Energy =            523.9602391583782719
    One-Electron Energy =               -1635.3127427832341709
    Two-Electron Energy =                 672.5501961755450111
    Total Energy =                       -438.8023074493108879
  Basis Set: (AUG-CC-PVTZ AUX)
    Blend: AUG-CC-PVTZ-RI
    Molecular point group: c1

    Geometry (in Angstrom), charge = 0, multiplicity = 1:

       Center              X                  Y                   Z               Mass
    ------------   -----------------  -----------------  -----------------  -----------------
         O           -1.258729915764    -1.957370870948    -0.280875592280    15.994914619570
         N           -1.608377215764     0.794910829052    -0.401264792280    14.003074004430
         C           -0.329955215764     0.257366829052    -0.146252792280    12.000000000000
         C            0.813265784236     1.076045829052    -0.038541792280    12.000000000000
         C           -0.160086215764    -1.142403170948    -0.108383792280    12.000000000000
         C            2.072910784236     0.492653829052     0.149064207720    12.000000000000
         C            0.678099784236     2.576571829052    -0.103357792280    12.000000000000
         C            1.094702784236    -1.706793170948     0.113289207720    12.000000000000
         C            2.220287784236    -0.889440170948     0.222365207720    12.000000000000
         C           -2.659705215764     0.500133829052     0.581081207720    12.000000000000
         H            2.946656784236     1.135882829052     0.231977207720     1.007825032230
         H           -1.540770215764     1.799047829052    -0.535182792280     1.007825032230
         H            0.328135784236     2.916629829052    -1.085591792280     1.007825032230
         H           -0.024349215764     2.953886829052     0.648866207720     1.007825032230
         H            1.645057784236     3.051681829052     0.079752207720     1.007825032230
         H            1.195642784236    -2.791445170948     0.150153207720     1.007825032230
         H            3.199439784236    -1.332915170948     0.383453207720     1.007825032230
         H           -2.375549215764     0.767359829052     1.609449207720     1.007825032230
         H           -2.900968215764    -0.560226170948     0.548336207720     1.007825032230
         H           -3.550018215764     1.069697829052     0.303350207720     1.007825032230
         H           -1.005723215764    -2.850637170948    -0.270357792280     1.007825032230

  Basis Set: AUG-CC-PVTZ
    Blend: AUG-CC-PVTZ
  Basis Set: (AUG-CC-PVTZ AUX)
    Blend: AUG-CC-PVTZ-JKFIT
	 Reference Energy          =    -438.8023074493108879 [Eh]
	 Singles Energy            =      -0.0000000000000000 [Eh]
	 Same-Spin Energy          =      -0.4728555649588122 [Eh]
	 Opposite-Spin Energy      =      -1.4953852641181258 [Eh]
	 Correlation Energy        =      -1.9682408290769380 [Eh]
	 Total Energy              =    -440.7705482783878210 [Eh]

	 ================> DF-SCS-MP2 Energies <==================
	-----------------------------------------------------------
	 SCS Same-Spin Scale       =       0.3333333333333333 [-]
	 SCS Opposite-Spin Scale   =       1.2000000000000000 [-]
	 SCS Same-Spin Energy      =      -0.1576185216529374 [Eh]
	 SCS Opposite-Spin Energy  =      -1.7944623169417508 [Eh]
	 SCS Correlation Energy    =      -1.9520808385946882 [Eh]
	 SCS Total Energy          =    -440.7543882879055559 [Eh]
	-----------------------------------------------------------

  Dipole Moment: [D]
     X:     0.1842      Y:     0.1630      Z:     0.7803     Total:     0.8182

*** Psi4 exiting successfully. Buy a developer a beer!
