                               Psi4 1.4a3.dev225

  ==> Input File <==

--------------------------------------------------------------------------
#psi4
#
memory 32 gb

molecule  {
0 1
  O       -1.2691620    -1.9635190    -0.2989340
  N       -1.5914490     0.7494560    -0.4145900
  C       -0.3130270     0.2119120    -0.1595780
  C        0.8301940     1.0305910    -0.0518670
  C       -0.0764890    -1.0581153    -0.1207644
  C        2.0898390     0.4471990     0.1357390
  C        0.6950280     2.5311170    -0.1166830
  C        1.1116310    -1.7522480     0.0999640
  C        2.2372160    -0.9348950     0.2090400
  C       -2.6427770     0.4546790     0.5677560
  H        2.9635850     1.0904280     0.2186520
  H       -1.5238420     1.7535930    -0.5485080
  H        0.3450640     2.8711750    -1.0989170
  H       -0.0074210     2.9084320     0.6355410
  H        1.6619860     3.0062270     0.0664270
  H        1.2125710    -2.8369000     0.1368280
  H        3.2163680    -1.3783700     0.3701280
  H       -2.3586210     0.7219050     1.5961240
  H       -2.8840400    -0.6056810     0.5350110
  H       -3.5330900     1.0242430     0.2900250
  H       -0.9887950    -2.8960920    -0.2836830
units angstrom
no_reorient  #important for SAPT in psi4, default
symmetry c1  #important for SAPT in psi4, default
}

set PROPERTIES_ORIGIN ["COM"]
properties('MP2/aug-cc-pvtz', properties = ['dipole'])
--------------------------------------------------------------------------

    Molecular point group: c1
  Charge       = 0
  Multiplicity = 1
  Basis Set: AUG-CC-PVTZ
    Blend: AUG-CC-PVTZ
  Basis Set: (AUG-CC-PVTZ AUX)
    Blend: AUG-CC-PVTZ-JKFIT

    Orbital Energies [Eh]
    ---------------------

    Doubly Occupied:

       1A    -20.561069     2A    -15.555816     3A    -11.285777
       4A    -11.255464     5A    -11.248237     6A    -11.238470
       7A    -11.238456     8A    -11.235994     9A    -11.233202
      10A    -11.229127    11A     -1.338255    12A     -1.229587
      13A     -1.144500    14A     -1.045450    15A     -1.015089
      16A     -0.942960    17A     -0.903702    18A     -0.823841
      19A     -0.797394    20A     -0.710363    21A     -0.666285
      22A     -0.664215    23A     -0.635643    24A     -0.606065
      25A     -0.597447    26A     -0.586334    27A     -0.571222
      28A     -0.563393    29A     -0.546943    30A     -0.534628
      31A     -0.528874    32A     -0.503174    33A     -0.481479
      34A     -0.471776    35A     -0.415304    36A     -0.322459
      37A     -0.310203

  @DF-RHF Final Energy:  -438.77537016367160

   => Energetics <=

    Nuclear Repulsion Energy =            525.3074268525766684
    One-Electron Energy =               -1638.0892040612920937
    Two-Electron Energy =                 674.0064070450439431
    Total Energy =                       -438.7753701636715959
  Basis Set: (AUG-CC-PVTZ AUX)
    Blend: AUG-CC-PVTZ-RI
    Molecular point group: c1

    Geometry (in Angstrom), charge = 0, multiplicity = 1:

       Center              X                  Y                   Z               Mass
    ------------   -----------------  -----------------  -----------------  -----------------
         O           -1.288733866142    -1.934007816380    -0.285139212316    15.994914619570
         N           -1.611020866142     0.778967183620    -0.400795212316    14.003074004430
         C           -0.332598866142     0.241423183620    -0.145783212316    12.000000000000
         C            0.810622133858     1.060102183620    -0.038072212316    12.000000000000
         C           -0.096060866142    -1.028604116380    -0.106969612316    12.000000000000
         C            2.070267133858     0.476710183620     0.149533787684    12.000000000000
         C            0.675456133858     2.560628183620    -0.102888212316    12.000000000000
         C            1.092059133858    -1.722736816380     0.113758787684    12.000000000000
         C            2.217644133858    -0.905383816380     0.222834787684    12.000000000000
         C           -2.662348866142     0.484190183620     0.581550787684    12.000000000000
         H            2.944013133858     1.119939183620     0.232446787684     1.007825032230
         H           -1.543413866142     1.783104183620    -0.534713212316     1.007825032230
         H            0.325492133858     2.900686183620    -1.085122212316     1.007825032230
         H           -0.026992866142     2.937943183620     0.649335787684     1.007825032230
         H            1.642414133858     3.035738183620     0.080221787684     1.007825032230
         H            1.192999133858    -2.807388816380     0.150622787684     1.007825032230
         H            3.196796133858    -1.348858816380     0.383922787684     1.007825032230
         H           -2.378192866142     0.751416183620     1.609918787684     1.007825032230
         H           -2.903611866142    -0.576169816380     0.548805787684     1.007825032230
         H           -3.552661866142     1.053754183620     0.303819787684     1.007825032230
         H           -1.008366866142    -2.866580816380    -0.269888212316     1.007825032230

  Basis Set: AUG-CC-PVTZ
    Blend: AUG-CC-PVTZ
  Basis Set: (AUG-CC-PVTZ AUX)
    Blend: AUG-CC-PVTZ-JKFIT
	 Reference Energy          =    -438.7753701636715959 [Eh]
	 Singles Energy            =      -0.0000000000000000 [Eh]
	 Same-Spin Energy          =      -0.4735731072435731 [Eh]
	 Opposite-Spin Energy      =      -1.4987914781937330 [Eh]
	 Correlation Energy        =      -1.9723645854373062 [Eh]
	 Total Energy              =    -440.7477347491089290 [Eh]

	 ================> DF-SCS-MP2 Energies <==================
	-----------------------------------------------------------
	 SCS Same-Spin Scale       =       0.3333333333333333 [-]
	 SCS Opposite-Spin Scale   =       1.2000000000000000 [-]
	 SCS Same-Spin Energy      =      -0.1578577024145243 [Eh]
	 SCS Opposite-Spin Energy  =      -1.7985497738324796 [Eh]
	 SCS Correlation Energy    =      -1.9564074762470041 [Eh]
	 SCS Total Energy          =    -440.7317776399186187 [Eh]
	-----------------------------------------------------------

  Dipole Moment: [D]
     X:     0.8632      Y:     0.6016      Z:     0.8962     Total:     1.3821

*** Psi4 exiting successfully. Buy a developer a beer!
