                               Psi4 1.4a3.dev225

  ==> Input File <==

--------------------------------------------------------------------------
#psi4
#
memory 32 gb

molecule  {
0 1
  O       -1.2691620    -1.9635190    -0.2989340
  N       -1.5914490     0.7494560    -0.4145900
  C       -0.3130270     0.2119120    -0.1595780
  C        0.8301940     1.0305910    -0.0518670
  C       -0.1431580    -1.1878580    -0.1217090
  C        2.0898390     0.4471990     0.1357390
  C        0.6950280     2.5311170    -0.1166830
  C        1.1116310    -1.7522480     0.0999640
  C        2.2372160    -0.9348950     0.2090400
  C       -2.6427770     0.4546790     0.5677560
  H        2.9635850     1.0904280     0.2186520
  H       -1.5238420     1.7535930    -0.5485080
  H        0.3450640     2.8711750    -1.0989170
  H       -0.0074210     2.9084320     0.6355410
  H        1.6619860     3.0062270     0.0664270
  H        1.2125710    -2.8369000     0.1368280
  H        3.2163680    -1.3783700     0.3701280
  H       -2.3586210     0.7219050     1.5961240
  H       -2.8662568    -0.6097206     0.5403016
  H       -3.5330900     1.0242430     0.2900250
  H       -0.9887950    -2.8960920    -0.2836830
units angstrom
no_reorient  #important for SAPT in psi4, default
symmetry c1  #important for SAPT in psi4, default
}

set PROPERTIES_ORIGIN ["COM"]
properties('MP2/aug-cc-pvtz', properties = ['dipole'])
--------------------------------------------------------------------------

    Molecular point group: c1
  Charge       = 0
  Multiplicity = 1
  Basis Set: AUG-CC-PVTZ
    Blend: AUG-CC-PVTZ
  Basis Set: (AUG-CC-PVTZ AUX)
    Blend: AUG-CC-PVTZ-JKFIT

    Orbital Energies [Eh]
    ---------------------

    Doubly Occupied:

       1A    -20.587071     2A    -15.553805     3A    -11.294911
       4A    -11.263118     5A    -11.240508     6A    -11.239705
       7A    -11.231595     8A    -11.230364     9A    -11.229345
      10A    -11.223903    11A     -1.396755    12A     -1.223906
      13A     -1.131148    14A     -1.040828    15A     -0.994278
      16A     -0.937816    17A     -0.900544    18A     -0.822849
      19A     -0.801118    20A     -0.706490    21A     -0.693157
      22A     -0.671609    23A     -0.617643    24A     -0.607713
      25A     -0.598037    26A     -0.587726    27A     -0.575686
      28A     -0.570220    29A     -0.559237    30A     -0.536560
      31A     -0.528884    32A     -0.505286    33A     -0.484631
      34A     -0.470069    35A     -0.412683    36A     -0.318103
      37A     -0.290555

  @DF-RHF Final Energy:  -438.80103665338970

   => Energetics <=

    Nuclear Repulsion Energy =            524.1757724810254331
    One-Electron Energy =               -1635.7979059215881534
    Two-Electron Energy =                 672.8210967871730190
    Total Energy =                       -438.8010366533897013
  Basis Set: (AUG-CC-PVTZ AUX)
    Blend: AUG-CC-PVTZ-RI
    Molecular point group: c1

    Geometry (in Angstrom), charge = 0, multiplicity = 1:

       Center              X                  Y                   Z               Mass
    ------------   -----------------  -----------------  -----------------  -----------------
         O           -1.283028566611    -1.922620762592    -0.285095420202    15.994914619570
         N           -1.605315566611     0.790354237408    -0.400751420202    14.003074004430
         C           -0.326893566611     0.252810237408    -0.145739420202    12.000000000000
         C            0.816327433389     1.071489237408    -0.038028420202    12.000000000000
         C           -0.157024566611    -1.146959762592    -0.107870420202    12.000000000000
         C            2.075972433389     0.488097237408     0.149577579798    12.000000000000
         C            0.681161433389     2.572015237408    -0.102844420202    12.000000000000
         C            1.097764433389    -1.711349762592     0.113802579798    12.000000000000
         C            2.223349433389    -0.893996762592     0.222878579798    12.000000000000
         C           -2.656643566611     0.495577237408     0.581594579798    12.000000000000
         H            2.949718433389     1.131326237408     0.232490579798     1.007825032230
         H           -1.537708566611     1.794491237408    -0.534669420202     1.007825032230
         H            0.331197433389     2.912073237408    -1.085078420202     1.007825032230
         H           -0.021287566611     2.949330237408     0.649379579798     1.007825032230
         H            1.648119433389     3.047125237408     0.080265579798     1.007825032230
         H            1.198704433389    -2.796001762592     0.150666579798     1.007825032230
         H            3.202501433389    -1.337471762592     0.383966579798     1.007825032230
         H           -2.372487566611     0.762803237408     1.609962579798     1.007825032230
         H           -2.880123366611    -0.568822362592     0.554140179798     1.007825032230
         H           -3.546956566611     1.065141237408     0.303863579798     1.007825032230
         H           -1.002661566611    -2.855193762592    -0.269844420202     1.007825032230

  Basis Set: AUG-CC-PVTZ
    Blend: AUG-CC-PVTZ
  Basis Set: (AUG-CC-PVTZ AUX)
    Blend: AUG-CC-PVTZ-JKFIT
	 Reference Energy          =    -438.8010366533897013 [Eh]
	 Singles Energy            =      -0.0000000000000000 [Eh]
	 Same-Spin Energy          =      -0.4737441496931980 [Eh]
	 Opposite-Spin Energy      =      -1.4972644275100389 [Eh]
	 Correlation Energy        =      -1.9710085772032369 [Eh]
	 Total Energy              =    -440.7720452305929371 [Eh]

	 ================> DF-SCS-MP2 Energies <==================
	-----------------------------------------------------------
	 SCS Same-Spin Scale       =       0.3333333333333333 [-]
	 SCS Opposite-Spin Scale   =       1.2000000000000000 [-]
	 SCS Same-Spin Energy      =      -0.1579147165643993 [Eh]
	 SCS Opposite-Spin Energy  =      -1.7967173130120466 [Eh]
	 SCS Correlation Energy    =      -1.9546320295764459 [Eh]
	 SCS Total Energy          =    -440.7556686829661317 [Eh]
	-----------------------------------------------------------

  Dipole Moment: [D]
     X:     0.1954      Y:     0.0963      Z:     0.7787     Total:     0.8086

*** Psi4 exiting successfully. Buy a developer a beer!
