                               Psi4 1.4a3.dev225

  ==> Input File <==

--------------------------------------------------------------------------
#psi4
#
memory 32 gb

molecule  {
0 1
  O       -1.2691620    -1.9635190    -0.2989340
  N       -1.5914490     0.7494560    -0.4145900
  C       -0.3130270     0.2119120    -0.1595780
  C        0.8301940     1.0305910    -0.0518670
  C       -0.1431580    -1.1878580    -0.1217090
  C        2.0898390     0.4471990     0.1357390
  C        0.6950280     2.5311170    -0.1166830
  C        1.1116310    -1.7522480     0.0999640
  C        2.2372160    -0.9348950     0.2090400
  C       -2.6427770     0.4546790     0.5677560
  H        2.9635850     1.0904280     0.2186520
  H       -1.5238420     1.7535930    -0.5485080
  H        0.3450640     2.8711750    -1.0989170
  H       -0.0074210     2.9084320     0.6355410
  H        1.6619860     3.0062270     0.0664270
  H        1.2125710    -2.8369000     0.1368280
  H        3.2163680    -1.3783700     0.3701280
  H       -2.3844566     0.6976087     1.5026242
  H       -2.8840400    -0.6056810     0.5350110
  H       -3.5330900     1.0242430     0.2900250
  H       -0.9887950    -2.8960920    -0.2836830
units angstrom
no_reorient  #important for SAPT in psi4, default
symmetry c1  #important for SAPT in psi4, default
}

set PROPERTIES_ORIGIN ["COM"]
properties('MP2/aug-cc-pvtz', properties = ['dipole'])
--------------------------------------------------------------------------

    Molecular point group: c1
  Charge       = 0
  Multiplicity = 1
  Basis Set: AUG-CC-PVTZ
    Blend: AUG-CC-PVTZ
  Basis Set: (AUG-CC-PVTZ AUX)
    Blend: AUG-CC-PVTZ-JKFIT

    Orbital Energies [Eh]
    ---------------------

    Doubly Occupied:

       1A    -20.586526     2A    -15.552295     3A    -11.294365
       4A    -11.262756     5A    -11.239981     6A    -11.231186
       7A    -11.229981     8A    -11.229150     9A    -11.227185
      10A    -11.223614    11A     -1.396187    12A     -1.223628
      13A     -1.130982    14A     -1.040660    15A     -0.995283
      16A     -0.938406    17A     -0.908714    18A     -0.822532
      19A     -0.801906    20A     -0.706006    21A     -0.692301
      22A     -0.674074    23A     -0.619012    24A     -0.608267
      25A     -0.601967    26A     -0.595001    27A     -0.575419
      28A     -0.570020    29A     -0.559965    30A     -0.536217
      31A     -0.528029    32A     -0.505157    33A     -0.483905
      34A     -0.470329    35A     -0.415646    36A     -0.317790
      37A     -0.289898

  @DF-RHF Final Energy:  -438.79548584942989

   => Energetics <=

    Nuclear Repulsion Energy =            524.5871033559058105
    One-Electron Energy =               -1636.5965042610521323
    Two-Electron Energy =                 673.2139150557163703
    Total Energy =                       -438.7954858494299515
  Basis Set: (AUG-CC-PVTZ AUX)
    Blend: AUG-CC-PVTZ-RI
    Molecular point group: c1

    Geometry (in Angstrom), charge = 0, multiplicity = 1:

       Center              X                  Y                   Z               Mass
    ------------   -----------------  -----------------  -----------------  -----------------
         O           -1.282707886604    -1.922471837847    -0.284369125437    15.994914619570
         N           -1.604994886604     0.790503162153    -0.400025125437    14.003074004430
         C           -0.326572886604     0.252959162153    -0.145013125437    12.000000000000
         C            0.816648113396     1.071638162153    -0.037302125437    12.000000000000
         C           -0.156703886604    -1.146810837847    -0.107144125437    12.000000000000
         C            2.076293113396     0.488246162153     0.150303874563    12.000000000000
         C            0.681482113396     2.572164162153    -0.102118125437    12.000000000000
         C            1.098085113396    -1.711200837847     0.114528874563    12.000000000000
         C            2.223670113396    -0.893847837847     0.223604874563    12.000000000000
         C           -2.656322886604     0.495726162153     0.582320874563    12.000000000000
         H            2.950039113396     1.131475162153     0.233216874563     1.007825032230
         H           -1.537387886604     1.794640162153    -0.533943125437     1.007825032230
         H            0.331518113396     2.912222162153    -1.084352125437     1.007825032230
         H           -0.020966886604     2.949479162153     0.650105874563     1.007825032230
         H            1.648440113396     3.047274162153     0.080991874563     1.007825032230
         H            1.199025113396    -2.795852837847     0.151392874563     1.007825032230
         H            3.202822113396    -1.337322837847     0.384692874563     1.007825032230
         H           -2.398002486604     0.738655862153     1.517189074563     1.007825032230
         H           -2.897585886604    -0.564633837847     0.549575874563     1.007825032230
         H           -3.546635886604     1.065290162153     0.304589874563     1.007825032230
         H           -1.002340886604    -2.855044837847    -0.269118125437     1.007825032230

  Basis Set: AUG-CC-PVTZ
    Blend: AUG-CC-PVTZ
  Basis Set: (AUG-CC-PVTZ AUX)
    Blend: AUG-CC-PVTZ-JKFIT
	 Reference Energy          =    -438.7954858494298946 [Eh]
	 Singles Energy            =      -0.0000000000000000 [Eh]
	 Same-Spin Energy          =      -0.4737391314639352 [Eh]
	 Opposite-Spin Energy      =      -1.4967735466545045 [Eh]
	 Correlation Energy        =      -1.9705126781184397 [Eh]
	 Total Energy              =    -440.7659985275483336 [Eh]

	 ================> DF-SCS-MP2 Energies <==================
	-----------------------------------------------------------
	 SCS Same-Spin Scale       =       0.3333333333333333 [-]
	 SCS Opposite-Spin Scale   =       1.2000000000000000 [-]
	 SCS Same-Spin Energy      =      -0.1579130438213117 [Eh]
	 SCS Opposite-Spin Energy  =      -1.7961282559854053 [Eh]
	 SCS Correlation Energy    =      -1.9540412998067169 [Eh]
	 SCS Total Energy          =    -440.7495271492365987 [Eh]
	-----------------------------------------------------------

  Dipole Moment: [D]
     X:     0.1415      Y:     0.1190      Z:     0.8637     Total:     0.8833

*** Psi4 exiting successfully. Buy a developer a beer!
