                               Psi4 1.4a3.dev225

  ==> Input File <==

--------------------------------------------------------------------------
#psi4
#
memory 32 gb

molecule  {
0 1
  O       -1.2691620    -1.9635190    -0.2989340
  N       -1.5914490     0.7494560    -0.4145900
  C       -0.3130270     0.2119120    -0.1595780
  C        0.8301940     1.0305910    -0.0518670
  C       -0.1431580    -1.1878580    -0.1217090
  C        2.0898390     0.4471990     0.1357390
  C        0.6932353     2.5510179    -0.1175426
  C        1.1116310    -1.7522480     0.0999640
  C        2.2372160    -0.9348950     0.2090400
  C       -2.6427770     0.4546790     0.5677560
  H        2.9635850     1.0904280     0.2186520
  H       -1.5238420     1.7535930    -0.5485080
  H        0.3450640     2.8711750    -1.0989170
  H       -0.0074210     2.9084320     0.6355410
  H        1.6619860     3.0062270     0.0664270
  H        1.2125710    -2.8369000     0.1368280
  H        3.2163680    -1.3783700     0.3701280
  H       -2.3586210     0.7219050     1.5961240
  H       -2.8840400    -0.6056810     0.5350110
  H       -3.5330900     1.0242430     0.2900250
  H       -0.9887950    -2.8960920    -0.2836830
units angstrom
no_reorient  #important for SAPT in psi4, default
symmetry c1  #important for SAPT in psi4, default
}

set PROPERTIES_ORIGIN ["COM"]
properties('MP2/aug-cc-pvtz', properties = ['dipole'])
--------------------------------------------------------------------------

    Molecular point group: c1
  Charge       = 0
  Multiplicity = 1
  Basis Set: AUG-CC-PVTZ
    Blend: AUG-CC-PVTZ
  Basis Set: (AUG-CC-PVTZ AUX)
    Blend: AUG-CC-PVTZ-JKFIT

    Orbital Energies [Eh]
    ---------------------

    Doubly Occupied:

       1A    -20.586879     2A    -15.553888     3A    -11.294793
       4A    -11.263024     5A    -11.241388     6A    -11.239777
       7A    -11.231495     8A    -11.230245     9A    -11.228744
      10A    -11.223839    11A     -1.396533    12A     -1.223635
      13A     -1.130545    14A     -1.038705    15A     -0.994149
      16A     -0.938472    17A     -0.900609    18A     -0.823115
      19A     -0.800812    20A     -0.705677    21A     -0.692842
      22A     -0.671317    23A     -0.617334    24A     -0.607418
      25A     -0.598212    26A     -0.587904    27A     -0.576061
      28A     -0.569528    29A     -0.560219    30A     -0.538719
      31A     -0.528531    32A     -0.504031    33A     -0.483047
      34A     -0.470728    35A     -0.412980    36A     -0.318320
      37A     -0.290498

  @DF-RHF Final Energy:  -438.80105693676455

   => Energetics <=

    Nuclear Repulsion Energy =            523.7771189373574998
    One-Electron Energy =               -1635.0083203108054022
    Two-Electron Energy =                 672.4301444366833493
    Total Energy =                       -438.8010569367645530
  Basis Set: (AUG-CC-PVTZ AUX)
    Blend: AUG-CC-PVTZ-RI
    Molecular point group: c1

    Geometry (in Angstrom), charge = 0, multiplicity = 1:

       Center              X                  Y                   Z               Mass
    ------------   -----------------  -----------------  -----------------  -----------------
         O           -1.282740898205    -1.924392536808    -0.284981277109    15.994914619570
         N           -1.605027898205     0.788582463192    -0.400637277109    14.003074004430
         C           -0.326605898205     0.251038463192    -0.145625277109    12.000000000000
         C            0.816615101795     1.069717463192    -0.037914277109    12.000000000000
         C           -0.156736898205    -1.148731536808    -0.107756277109    12.000000000000
         C            2.076260101795     0.486325463192     0.149691722891    12.000000000000
         C            0.679656401795     2.590144363192    -0.103589877109    12.000000000000
         C            1.098052101795    -1.713121536808     0.113916722891    12.000000000000
         C            2.223637101795    -0.895768536808     0.222992722891    12.000000000000
         C           -2.656355898205     0.493805463192     0.581708722891    12.000000000000
         H            2.950006101795     1.129554463192     0.232604722891     1.007825032230
         H           -1.537420898205     1.792719463192    -0.534555277109     1.007825032230
         H            0.331485101795     2.910301463192    -1.084964277109     1.007825032230
         H           -0.020999898205     2.947558463192     0.649493722891     1.007825032230
         H            1.648407101795     3.045353463192     0.080379722891     1.007825032230
         H            1.198992101795    -2.797773536808     0.150780722891     1.007825032230
         H            3.202789101795    -1.339243536808     0.384080722891     1.007825032230
         H           -2.372199898205     0.761031463192     1.610076722891     1.007825032230
         H           -2.897618898205    -0.566554536808     0.548963722891     1.007825032230
         H           -3.546668898205     1.063369463192     0.303977722891     1.007825032230
         H           -1.002373898205    -2.856965536808    -0.269730277109     1.007825032230

  Basis Set: AUG-CC-PVTZ
    Blend: AUG-CC-PVTZ
  Basis Set: (AUG-CC-PVTZ AUX)
    Blend: AUG-CC-PVTZ-JKFIT
	 Reference Energy          =    -438.8010569367645530 [Eh]
	 Singles Energy            =      -0.0000000000000000 [Eh]
	 Same-Spin Energy          =      -0.4735456173416696 [Eh]
	 Opposite-Spin Energy      =      -1.4970810775373187 [Eh]
	 Correlation Energy        =      -1.9706266948789883 [Eh]
	 Total Energy              =    -440.7716836316435547 [Eh]

	 ================> DF-SCS-MP2 Energies <==================
	-----------------------------------------------------------
	 SCS Same-Spin Scale       =       0.3333333333333333 [-]
	 SCS Opposite-Spin Scale   =       1.2000000000000000 [-]
	 SCS Same-Spin Energy      =      -0.1578485391138899 [Eh]
	 SCS Opposite-Spin Energy  =      -1.7964972930447825 [Eh]
	 SCS Correlation Energy    =      -1.9543458321586724 [Eh]
	 SCS Total Energy          =    -440.7554027689232043 [Eh]
	-----------------------------------------------------------

  Dipole Moment: [D]
     X:     0.1879      Y:     0.0975      Z:     0.7771     Total:     0.8054

*** Psi4 exiting successfully. Buy a developer a beer!
