                               Psi4 1.4a3.dev225

  ==> Input File <==

--------------------------------------------------------------------------
#psi4
#
memory 32 gb

molecule  {
0 1
  O       -1.2691620    -1.9635190    -0.2989340
  N       -1.5914490     0.7494560    -0.4145900
  C       -0.3130270     0.2119120    -0.1595780
  C        0.8301940     1.0305910    -0.0518670
  C       -0.1431580    -1.1878580    -0.1217090
  C        2.0898390     0.4471990     0.1357390
  C        0.6950280     2.5311170    -0.1166830
  C        1.1116310    -1.7522480     0.0999640
  C        2.2372160    -0.9348950     0.2090400
  C       -2.6427770     0.4546790     0.5677560
  H        3.0037336     1.1199843     0.2224618
  H       -1.5238420     1.7535930    -0.5485080
  H        0.3450640     2.8711750    -1.0989170
  H       -0.0074210     2.9084320     0.6355410
  H        1.6619860     3.0062270     0.0664270
  H        1.2125710    -2.8369000     0.1368280
  H        3.2163680    -1.3783700     0.3701280
  H       -2.3586210     0.7219050     1.5961240
  H       -2.8840400    -0.6056810     0.5350110
  H       -3.5330900     1.0242430     0.2900250
  H       -0.9887950    -2.8960920    -0.2836830
units angstrom
no_reorient  #important for SAPT in psi4, default
symmetry c1  #important for SAPT in psi4, default
}

set PROPERTIES_ORIGIN ["COM"]
properties('MP2/aug-cc-pvtz', properties = ['dipole'])
--------------------------------------------------------------------------

    Molecular point group: c1
  Charge       = 0
  Multiplicity = 1
  Basis Set: AUG-CC-PVTZ
    Blend: AUG-CC-PVTZ
  Basis Set: (AUG-CC-PVTZ AUX)
    Blend: AUG-CC-PVTZ-JKFIT

    Orbital Energies [Eh]
    ---------------------

    Doubly Occupied:

       1A    -20.587124     2A    -15.554184     3A    -11.295098
       4A    -11.263513     5A    -11.241054     6A    -11.239970
       7A    -11.232114     8A    -11.230851     9A    -11.229561
      10A    -11.229288    11A     -1.396785    12A     -1.224140
      13A     -1.131061    14A     -1.040886    15A     -0.993443
      16A     -0.937365    17A     -0.900828    18A     -0.822604
      19A     -0.798881    20A     -0.706640    21A     -0.691628
      22A     -0.670145    23A     -0.616903    24A     -0.606715
      25A     -0.596961    26A     -0.587901    27A     -0.575527
      28A     -0.569749    29A     -0.559517    30A     -0.535525
      31A     -0.528245    32A     -0.502010    33A     -0.484724
      34A     -0.470468    35A     -0.413213    36A     -0.318395
      37A     -0.290821

  @DF-RHF Final Energy:  -438.79863139660802

   => Energetics <=

    Nuclear Repulsion Energy =            523.8799928934369063
    One-Electron Energy =               -1635.2095740728734654
    Two-Electron Energy =                 672.5309497828284293
    Total Energy =                       -438.7986313966080161
  Basis Set: (AUG-CC-PVTZ AUX)
    Blend: AUG-CC-PVTZ-RI
    Molecular point group: c1

    Geometry (in Angstrom), charge = 0, multiplicity = 1:

       Center              X                  Y                   Z               Mass
    ------------   -----------------  -----------------  -----------------  -----------------
         O           -1.283192994257    -1.922867755481    -0.285084533544    15.994914619570
         N           -1.605479994257     0.790107244519    -0.400740533544    14.003074004430
         C           -0.327057994257     0.252563244519    -0.145728533544    12.000000000000
         C            0.816163005743     1.071242244519    -0.038017533544    12.000000000000
         C           -0.157188994257    -1.147206755481    -0.107859533544    12.000000000000
         C            2.075808005743     0.487850244519     0.149588466456    12.000000000000
         C            0.680997005743     2.571768244519    -0.102833533544    12.000000000000
         C            1.097600005743    -1.711596755481     0.113813466456    12.000000000000
         C            2.223185005743    -0.894243755481     0.222889466456    12.000000000000
         C           -2.656807994257     0.495330244519     0.581605466456    12.000000000000
         H            2.989702605743     1.160635544519     0.236311266456     1.007825032230
         H           -1.537872994257     1.794244244519    -0.534658533544     1.007825032230
         H            0.331033005743     2.911826244519    -1.085067533544     1.007825032230
         H           -0.021451994257     2.949083244519     0.649390466456     1.007825032230
         H            1.647955005743     3.046878244519     0.080276466456     1.007825032230
         H            1.198540005743    -2.796248755481     0.150677466456     1.007825032230
         H            3.202337005743    -1.337718755481     0.383977466456     1.007825032230
         H           -2.372651994257     0.762556244519     1.609973466456     1.007825032230
         H           -2.898070994257    -0.565029755481     0.548860466456     1.007825032230
         H           -3.547120994257     1.064894244519     0.303874466456     1.007825032230
         H           -1.002825994257    -2.855440755481    -0.269833533544     1.007825032230

  Basis Set: AUG-CC-PVTZ
    Blend: AUG-CC-PVTZ
  Basis Set: (AUG-CC-PVTZ AUX)
    Blend: AUG-CC-PVTZ-JKFIT
	 Reference Energy          =    -438.7986313966080161 [Eh]
	 Singles Energy            =      -0.0000000000000000 [Eh]
	 Same-Spin Energy          =      -0.4738419253303723 [Eh]
	 Opposite-Spin Energy      =      -1.4976632532075684 [Eh]
	 Correlation Energy        =      -1.9715051785379407 [Eh]
	 Total Energy              =    -440.7701365751459548 [Eh]

	 ================> DF-SCS-MP2 Energies <==================
	-----------------------------------------------------------
	 SCS Same-Spin Scale       =       0.3333333333333333 [-]
	 SCS Opposite-Spin Scale   =       1.2000000000000000 [-]
	 SCS Same-Spin Energy      =      -0.1579473084434574 [Eh]
	 SCS Opposite-Spin Energy  =      -1.7971959038490821 [Eh]
	 SCS Correlation Energy    =      -1.9551432122925396 [Eh]
	 SCS Total Energy          =    -440.7537746089005282 [Eh]
	-----------------------------------------------------------

  Dipole Moment: [D]
     X:     0.1641      Y:     0.0825      Z:     0.7766     Total:     0.7981

*** Psi4 exiting successfully. Buy a developer a beer!
