                               Psi4 1.4a3.dev225

  ==> Input File <==

--------------------------------------------------------------------------
#psi4
#
memory 32 gb

molecule  {
0 1
  O       -1.2691620    -1.9635190    -0.2989340
  N       -1.5914490     0.7494560    -0.4145900
  C       -0.3130270     0.2119120    -0.1595780
  C        0.8301940     1.0305910    -0.0518670
  C       -0.1431580    -1.1878580    -0.1217090
  C        2.0718544     0.4555284     0.1330604
  C        0.6950280     2.5311170    -0.1166830
  C        1.1116310    -1.7522480     0.0999640
  C        2.2372160    -0.9348950     0.2090400
  C       -2.6427770     0.4546790     0.5677560
  H        2.9635850     1.0904280     0.2186520
  H       -1.5238420     1.7535930    -0.5485080
  H        0.3450640     2.8711750    -1.0989170
  H       -0.0074210     2.9084320     0.6355410
  H        1.6619860     3.0062270     0.0664270
  H        1.2125710    -2.8369000     0.1368280
  H        3.2163680    -1.3783700     0.3701280
  H       -2.3586210     0.7219050     1.5961240
  H       -2.8840400    -0.6056810     0.5350110
  H       -3.5330900     1.0242430     0.2900250
  H       -0.9887950    -2.8960920    -0.2836830
units angstrom
no_reorient  #important for SAPT in psi4, default
symmetry c1  #important for SAPT in psi4, default
}

set PROPERTIES_ORIGIN ["COM"]
properties('MP2/aug-cc-pvtz', properties = ['dipole'])
--------------------------------------------------------------------------

    Molecular point group: c1
  Charge       = 0
  Multiplicity = 1
  Basis Set: AUG-CC-PVTZ
    Blend: AUG-CC-PVTZ
  Basis Set: (AUG-CC-PVTZ AUX)
    Blend: AUG-CC-PVTZ-JKFIT

    Orbital Energies [Eh]
    ---------------------

    Doubly Occupied:

       1A    -20.586565     2A    -15.553955     3A    -11.294049
       4A    -11.263019     5A    -11.239776     6A    -11.238522
       7A    -11.232380     8A    -11.230956     9A    -11.229196
      10A    -11.223790    11A     -1.396238    12A     -1.224025
      13A     -1.132197    14A     -1.042030    15A     -0.992898
      16A     -0.938028    17A     -0.901069    18A     -0.822510
      19A     -0.801613    20A     -0.706672    21A     -0.692478
      22A     -0.671521    23A     -0.616788    24A     -0.607699
      25A     -0.597484    26A     -0.587845    27A     -0.575800
      28A     -0.570772    29A     -0.559722    30A     -0.535854
      31A     -0.529812    32A     -0.502527    33A     -0.485019
      34A     -0.470535    35A     -0.412699    36A     -0.320656
      37A     -0.288969

  @DF-RHF Final Energy:  -438.80063714671002

   => Energetics <=

    Nuclear Repulsion Energy =            524.4093420212335559
    One-Electron Energy =               -1636.2686222677425576
    Two-Electron Energy =                 673.0586430997990419
    Total Energy =                       -438.8006371467100735
  Basis Set: (AUG-CC-PVTZ AUX)
    Blend: AUG-CC-PVTZ-RI
    Molecular point group: c1

    Geometry (in Angstrom), charge = 0, multiplicity = 1:

       Center              X                  Y                   Z               Mass
    ------------   -----------------  -----------------  -----------------  -----------------
         O           -1.281323499316    -1.923379596310    -0.284822046347    15.994914619570
         N           -1.603610499316     0.789595403690    -0.400478046347    14.003074004430
         C           -0.325188499316     0.252051403690    -0.145466046347    12.000000000000
         C            0.818032500684     1.070730403690    -0.037755046347    12.000000000000
         C           -0.155319499316    -1.147718596310    -0.107597046347    12.000000000000
         C            2.059692900684     0.495667803690     0.147172353653    12.000000000000
         C            0.682866500684     2.571256403690    -0.102571046347    12.000000000000
         C            1.099469500684    -1.712108596310     0.114075953653    12.000000000000
         C            2.225054500684    -0.894755596310     0.223151953653    12.000000000000
         C           -2.654938499316     0.494818403690     0.581867953653    12.000000000000
         H            2.951423500684     1.130567403690     0.232763953653     1.007825032230
         H           -1.536003499316     1.793732403690    -0.534396046347     1.007825032230
         H            0.332902500684     2.911314403690    -1.084805046347     1.007825032230
         H           -0.019582499316     2.948571403690     0.649652953653     1.007825032230
         H            1.649824500684     3.046366403690     0.080538953653     1.007825032230
         H            1.200409500684    -2.796760596310     0.150939953653     1.007825032230
         H            3.204206500684    -1.338230596310     0.384239953653     1.007825032230
         H           -2.370782499316     0.762044403690     1.610235953653     1.007825032230
         H           -2.896201499316    -0.565541596310     0.549122953653     1.007825032230
         H           -3.545251499316     1.064382403690     0.304136953653     1.007825032230
         H           -1.000956499316    -2.855952596310    -0.269571046347     1.007825032230

  Basis Set: AUG-CC-PVTZ
    Blend: AUG-CC-PVTZ
  Basis Set: (AUG-CC-PVTZ AUX)
    Blend: AUG-CC-PVTZ-JKFIT
	 Reference Energy          =    -438.8006371467100166 [Eh]
	 Singles Energy            =      -0.0000000000000000 [Eh]
	 Same-Spin Energy          =      -0.4737783841911262 [Eh]
	 Opposite-Spin Energy      =      -1.4972957191252265 [Eh]
	 Correlation Energy        =      -1.9710741033163526 [Eh]
	 Total Energy              =    -440.7717112500263852 [Eh]

	 ================> DF-SCS-MP2 Energies <==================
	-----------------------------------------------------------
	 SCS Same-Spin Scale       =       0.3333333333333333 [-]
	 SCS Opposite-Spin Scale   =       1.2000000000000000 [-]
	 SCS Same-Spin Energy      =      -0.1579261280637087 [Eh]
	 SCS Opposite-Spin Energy  =      -1.7967548629502719 [Eh]
	 SCS Correlation Energy    =      -1.9546809910139806 [Eh]
	 SCS Total Energy          =    -440.7553181377239753 [Eh]
	-----------------------------------------------------------

  Dipole Moment: [D]
     X:     0.1918      Y:     0.0948      Z:     0.7790     Total:     0.8078

*** Psi4 exiting successfully. Buy a developer a beer!
