                               Psi4 1.4a3.dev225

  ==> Input File <==

--------------------------------------------------------------------------
#psi4
#
memory 32 gb

molecule  {
0 1
  O       -1.2691620    -1.9635190    -0.2989340
  N       -1.5914490     0.7494560    -0.4145900
  C       -0.3130270     0.2119120    -0.1595780
  C        0.8301940     1.0305910    -0.0518670
  C       -0.1431580    -1.1878580    -0.1217090
  C        1.9999159     0.4888460     0.1223462
  C        0.6950280     2.5311170    -0.1166830
  C        1.1116310    -1.7522480     0.0999640
  C        2.2372160    -0.9348950     0.2090400
  C       -2.6427770     0.4546790     0.5677560
  H        2.9635850     1.0904280     0.2186520
  H       -1.5238420     1.7535930    -0.5485080
  H        0.3450640     2.8711750    -1.0989170
  H       -0.0074210     2.9084320     0.6355410
  H        1.6619860     3.0062270     0.0664270
  H        1.2125710    -2.8369000     0.1368280
  H        3.2163680    -1.3783700     0.3701280
  H       -2.3586210     0.7219050     1.5961240
  H       -2.8840400    -0.6056810     0.5350110
  H       -3.5330900     1.0242430     0.2900250
  H       -0.9887950    -2.8960920    -0.2836830
units angstrom
no_reorient  #important for SAPT in psi4, default
symmetry c1  #important for SAPT in psi4, default
}

set PROPERTIES_ORIGIN ["COM"]
properties('MP2/aug-cc-pvtz', properties = ['dipole'])
--------------------------------------------------------------------------

    Molecular point group: c1
  Charge       = 0
  Multiplicity = 1
  Basis Set: AUG-CC-PVTZ
    Blend: AUG-CC-PVTZ
  Basis Set: (AUG-CC-PVTZ AUX)
    Blend: AUG-CC-PVTZ-JKFIT

    Orbital Energies [Eh]
    ---------------------

    Doubly Occupied:

       1A    -20.585187     2A    -15.553987     3A    -11.290888
       4A    -11.262770     5A    -11.239621     6A    -11.236034
       7A    -11.233183     8A    -11.229577     9A    -11.228511
      10A    -11.222878    11A     -1.394909    12A     -1.224725
      13A     -1.138058    14A     -1.047538    15A     -0.987671
      16A     -0.939661    17A     -0.902418    18A     -0.822030
      19A     -0.802944    20A     -0.708047    21A     -0.690844
      22A     -0.670553    23A     -0.616037    24A     -0.607191
      25A     -0.594208    26A     -0.587819    27A     -0.577466
      28A     -0.572646    29A     -0.559389    30A     -0.536116
      31A     -0.534320    32A     -0.497046    33A     -0.478602
      34A     -0.471557    35A     -0.411293    36A     -0.332275
      37A     -0.283062

  @DF-RHF Final Energy:  -438.78754264562815

   => Energetics <=

    Nuclear Repulsion Energy =            525.5723316249415120
    One-Electron Energy =               -1638.5776235535286105
    Two-Electron Energy =                 674.2177492829590619
    Total Energy =                       -438.7875426456281502
  Basis Set: (AUG-CC-PVTZ AUX)
    Blend: AUG-CC-PVTZ-RI
    Molecular point group: c1

    Geometry (in Angstrom), charge = 0, multiplicity = 1:

       Center              X                  Y                   Z               Mass
    ------------   -----------------  -----------------  -----------------  -----------------
         O           -1.275026180905    -1.926296136632    -0.283884151771    15.994914619570
         N           -1.597313180905     0.786678863368    -0.399540151771    14.003074004430
         C           -0.318891180905     0.249134863368    -0.144528151771    12.000000000000
         C            0.824329819095     1.067813863368    -0.036817151771    12.000000000000
         C           -0.149022180905    -1.150635136632    -0.106659151771    12.000000000000
         C            1.994051719095     0.526068863368     0.137396048229    12.000000000000
         C            0.689163819095     2.568339863368    -0.101633151771    12.000000000000
         C            1.105766819095    -1.715025136632     0.115013848229    12.000000000000
         C            2.231351819095    -0.897672136632     0.224089848229    12.000000000000
         C           -2.648641180905     0.491901863368     0.582805848229    12.000000000000
         H            2.957720819095     1.127650863368     0.233701848229     1.007825032230
         H           -1.529706180905     1.790815863368    -0.533458151771     1.007825032230
         H            0.339199819095     2.908397863368    -1.083867151771     1.007825032230
         H           -0.013285180905     2.945654863368     0.650590848229     1.007825032230
         H            1.656121819095     3.043449863368     0.081476848229     1.007825032230
         H            1.206706819095    -2.799677136632     0.151877848229     1.007825032230
         H            3.210503819095    -1.341147136632     0.385177848229     1.007825032230
         H           -2.364485180905     0.759127863368     1.611173848229     1.007825032230
         H           -2.889904180905    -0.568458136632     0.550060848229     1.007825032230
         H           -3.538954180905     1.061465863368     0.305074848229     1.007825032230
         H           -0.994659180905    -2.858869136632    -0.268633151771     1.007825032230

  Basis Set: AUG-CC-PVTZ
    Blend: AUG-CC-PVTZ
  Basis Set: (AUG-CC-PVTZ AUX)
    Blend: AUG-CC-PVTZ-JKFIT
	 Reference Energy          =    -438.7875426456281502 [Eh]
	 Singles Energy            =      -0.0000000000000000 [Eh]
	 Same-Spin Energy          =      -0.4738527460721640 [Eh]
	 Opposite-Spin Energy      =      -1.4979129352167746 [Eh]
	 Correlation Energy        =      -1.9717656812889386 [Eh]
	 Total Energy              =    -440.7593083269171075 [Eh]

	 ================> DF-SCS-MP2 Energies <==================
	-----------------------------------------------------------
	 SCS Same-Spin Scale       =       0.3333333333333333 [-]
	 SCS Opposite-Spin Scale   =       1.2000000000000000 [-]
	 SCS Same-Spin Energy      =      -0.1579509153573880 [Eh]
	 SCS Opposite-Spin Energy  =      -1.7974955222601294 [Eh]
	 SCS Correlation Energy    =      -1.9554464376175174 [Eh]
	 SCS Total Energy          =    -440.7429890832456749 [Eh]
	-----------------------------------------------------------

  Dipole Moment: [D]
     X:     0.2112      Y:     0.0790      Z:     0.7822     Total:     0.8140

*** Psi4 exiting successfully. Buy a developer a beer!
