                               Psi4 1.4a3.dev225

  ==> Input File <==

--------------------------------------------------------------------------
#psi4
#
memory 32 gb

molecule  {
0 1
  O       -1.2691620    -1.9635190    -0.2989340
  N       -1.5914490     0.7494560    -0.4145900
  C       -0.3130270     0.2119120    -0.1595780
  C        0.8301940     1.0305910    -0.0518670
  C       -0.1431580    -1.1878580    -0.1217090
  C        2.0898390     0.4471990     0.1357390
  C        0.6950280     2.5311170    -0.1166830
  C        1.1116310    -1.7522480     0.0999640
  C        2.2372160    -0.9348950     0.2090400
  C       -2.6427770     0.4546790     0.5677560
  H        2.9635850     1.0904280     0.2186520
  H       -1.5238420     1.7535930    -0.5485080
  H        0.3450640     2.8711750    -1.0989170
  H       -0.0074210     2.9084320     0.6355410
  H        1.6619860     3.0062270     0.0664270
  H        1.2125710    -2.8369000     0.1368280
  H        3.2163680    -1.3783700     0.3701280
  H       -2.3715388     0.7097568     1.5493741
  H       -2.8840400    -0.6056810     0.5350110
  H       -3.5330900     1.0242430     0.2900250
  H       -0.9887950    -2.8960920    -0.2836830
units angstrom
no_reorient  #important for SAPT in psi4, default
symmetry c1  #important for SAPT in psi4, default
}

set PROPERTIES_ORIGIN ["COM"]
properties('MP2/aug-cc-pvtz', properties = ['dipole'])
--------------------------------------------------------------------------

    Molecular point group: c1
  Charge       = 0
  Multiplicity = 1
  Basis Set: AUG-CC-PVTZ
    Blend: AUG-CC-PVTZ
  Basis Set: (AUG-CC-PVTZ AUX)
    Blend: AUG-CC-PVTZ-JKFIT

    Orbital Energies [Eh]
    ---------------------

    Doubly Occupied:

       1A    -20.586714     2A    -15.553055     3A    -11.294595
       4A    -11.262899     5A    -11.240219     6A    -11.233547
       7A    -11.231357     8A    -11.230140     9A    -11.229245
      10A    -11.223731    11A     -1.396371    12A     -1.223692
      13A     -1.131014    14A     -1.040709    15A     -0.994652
      16A     -0.938014    17A     -0.904372    18A     -0.822637
      19A     -0.801453    20A     -0.706174    21A     -0.692620
      22A     -0.672638    23A     -0.617839    24A     -0.607817
      25A     -0.599238    26A     -0.592680    27A     -0.575512
      28A     -0.570137    29A     -0.559955    30A     -0.536289
      31A     -0.528115    32A     -0.505161    33A     -0.484121
      34A     -0.470257    35A     -0.414414    36A     -0.317919
      37A     -0.290195

  @DF-RHF Final Energy:  -438.80025013682894

   => Energetics <=

    Nuclear Repulsion Energy =            524.3541232003154846
    One-Electron Energy =               -1636.1497576150713940
    Two-Electron Energy =                 672.9953842779270872
    Total Energy =                       -438.8002501368289359
  Basis Set: (AUG-CC-PVTZ AUX)
    Blend: AUG-CC-PVTZ-RI
    Molecular point group: c1

    Geometry (in Angstrom), charge = 0, multiplicity = 1:

       Center              X                  Y                   Z               Mass
    ------------   -----------------  -----------------  -----------------  -----------------
         O           -1.282802856667    -1.922561149171    -0.284712824902    15.994914619570
         N           -1.605089856667     0.790413850829    -0.400368824902    14.003074004430
         C           -0.326667856667     0.252869850829    -0.145356824902    12.000000000000
         C            0.816553143333     1.071548850829    -0.037645824902    12.000000000000
         C           -0.156798856667    -1.146900149171    -0.107487824902    12.000000000000
         C            2.076198143333     0.488156850829     0.149960175098    12.000000000000
         C            0.681387143333     2.572074850829    -0.102461824902    12.000000000000
         C            1.097990143333    -1.711290149171     0.114185175098    12.000000000000
         C            2.223575143333    -0.893937149171     0.223261175098    12.000000000000
         C           -2.656417856667     0.495636850829     0.581977175098    12.000000000000
         H            2.949944143333     1.131385850829     0.232873175098     1.007825032230
         H           -1.537482856667     1.794550850829    -0.534286824902     1.007825032230
         H            0.331423143333     2.912132850829    -1.084695824902     1.007825032230
         H           -0.021061856667     2.949389850829     0.649762175098     1.007825032230
         H            1.648345143333     3.047184850829     0.080648175098     1.007825032230
         H            1.198930143333    -2.795942149171     0.151049175098     1.007825032230
         H            3.202727143333    -1.337412149171     0.384349175098     1.007825032230
         H           -2.385179656667     0.750714650829     1.563595275098     1.007825032230
         H           -2.897680856667    -0.564723149171     0.549232175098     1.007825032230
         H           -3.546730856667     1.065200850829     0.304246175098     1.007825032230
         H           -1.002435856667    -2.855134149171    -0.269461824902     1.007825032230

  Basis Set: AUG-CC-PVTZ
    Blend: AUG-CC-PVTZ
  Basis Set: (AUG-CC-PVTZ AUX)
    Blend: AUG-CC-PVTZ-JKFIT
	 Reference Energy          =    -438.8002501368289359 [Eh]
	 Singles Energy            =      -0.0000000000000000 [Eh]
	 Same-Spin Energy          =      -0.4737235813499321 [Eh]
	 Opposite-Spin Energy      =      -1.4969685680632931 [Eh]
	 Correlation Energy        =      -1.9706921494132252 [Eh]
	 Total Energy              =    -440.7709422862421889 [Eh]

	 ================> DF-SCS-MP2 Energies <==================
	-----------------------------------------------------------
	 SCS Same-Spin Scale       =       0.3333333333333333 [-]
	 SCS Opposite-Spin Scale   =       1.2000000000000000 [-]
	 SCS Same-Spin Energy      =      -0.1579078604499774 [Eh]
	 SCS Opposite-Spin Energy  =      -1.7963622816759517 [Eh]
	 SCS Correlation Energy    =      -1.9542701421259290 [Eh]
	 SCS Total Energy          =    -440.7545202789548853 [Eh]
	-----------------------------------------------------------

  Dipole Moment: [D]
     X:     0.1631      Y:     0.1092      Z:     0.8243     Total:     0.8473

*** Psi4 exiting successfully. Buy a developer a beer!
