                               Psi4 1.4a3.dev225

  ==> Input File <==

--------------------------------------------------------------------------
#psi4
#
memory 32 gb

molecule  {
0 1
  O       -1.2691620    -1.9635190    -0.2989340
  N       -1.5914490     0.7494560    -0.4145900
  C       -0.3554036     0.1233350    -0.1528426
  C        0.8301940     1.0305910    -0.0518670
  C       -0.1431580    -1.1878580    -0.1217090
  C        2.0898390     0.4471990     0.1357390
  C        0.6950280     2.5311170    -0.1166830
  C        1.1116310    -1.7522480     0.0999640
  C        2.2372160    -0.9348950     0.2090400
  C       -2.6427770     0.4546790     0.5677560
  H        2.9635850     1.0904280     0.2186520
  H       -1.5238420     1.7535930    -0.5485080
  H        0.3450640     2.8711750    -1.0989170
  H       -0.0074210     2.9084320     0.6355410
  H        1.6619860     3.0062270     0.0664270
  H        1.2125710    -2.8369000     0.1368280
  H        3.2163680    -1.3783700     0.3701280
  H       -2.3586210     0.7219050     1.5961240
  H       -2.8840400    -0.6056810     0.5350110
  H       -3.5330900     1.0242430     0.2900250
  H       -0.9887950    -2.8960920    -0.2836830
units angstrom
no_reorient  #important for SAPT in psi4, default
symmetry c1  #important for SAPT in psi4, default
}

set PROPERTIES_ORIGIN ["COM"]
properties('MP2/aug-cc-pvtz', properties = ['dipole'])
--------------------------------------------------------------------------

    Molecular point group: c1
  Charge       = 0
  Multiplicity = 1
  Basis Set: AUG-CC-PVTZ
    Blend: AUG-CC-PVTZ
  Basis Set: (AUG-CC-PVTZ AUX)
    Blend: AUG-CC-PVTZ-JKFIT

    Orbital Energies [Eh]
    ---------------------

    Doubly Occupied:

       1A    -20.581608     2A    -15.553214     3A    -11.282557
       4A    -11.260484     5A    -11.250255     6A    -11.237629
       7A    -11.233748     8A    -11.232162     9A    -11.231824
      10A    -11.224384    11A     -1.394804    12A     -1.221460
      13A     -1.130674    14A     -1.038551    15A     -1.003776
      16A     -0.938207    17A     -0.900426    18A     -0.825781
      19A     -0.792013    20A     -0.710056    21A     -0.690137
      22A     -0.667592    23A     -0.627437    24A     -0.606887
      25A     -0.600794    26A     -0.584455    27A     -0.574230
      28A     -0.569696    29A     -0.558088    30A     -0.536696
      31A     -0.526956    32A     -0.500832    33A     -0.489604
      34A     -0.467939    35A     -0.408861    36A     -0.317287
      37A     -0.292855

  @DF-RHF Final Energy:  -438.78937008031102

   => Energetics <=

    Nuclear Repulsion Energy =            524.3895201903065981
    One-Electron Energy =               -1636.2298582170317331
    Two-Electron Energy =                 673.0509679464140618
    Total Energy =                       -438.7893700803109596
  Basis Set: (AUG-CC-PVTZ AUX)
    Blend: AUG-CC-PVTZ-RI
    Molecular point group: c1

    Geometry (in Angstrom), charge = 0, multiplicity = 1:

       Center              X                  Y                   Z               Mass
    ------------   -----------------  -----------------  -----------------  -----------------
         O           -1.279188283949    -1.914896649670    -0.285646124629    15.994914619570
         N           -1.601475283949     0.798078350330    -0.401302124629    14.003074004430
         C           -0.365429883949     0.171957350330    -0.139554724629    12.000000000000
         C            0.820167716051     1.079213350330    -0.038579124629    12.000000000000
         C           -0.153184283949    -1.139235649670    -0.108421124629    12.000000000000
         C            2.079812716051     0.495821350330     0.149026875371    12.000000000000
         C            0.685001716051     2.579739350330    -0.103395124629    12.000000000000
         C            1.101604716051    -1.703625649670     0.113251875371    12.000000000000
         C            2.227189716051    -0.886272649670     0.222327875371    12.000000000000
         C           -2.652803283949     0.503301350330     0.581043875371    12.000000000000
         H            2.953558716051     1.139050350330     0.231939875371     1.007825032230
         H           -1.533868283949     1.802215350330    -0.535220124629     1.007825032230
         H            0.335037716051     2.919797350330    -1.085629124629     1.007825032230
         H           -0.017447283949     2.957054350330     0.648828875371     1.007825032230
         H            1.651959716051     3.054849350330     0.079714875371     1.007825032230
         H            1.202544716051    -2.788277649670     0.150115875371     1.007825032230
         H            3.206341716051    -1.329747649670     0.383415875371     1.007825032230
         H           -2.368647283949     0.770527350330     1.609411875371     1.007825032230
         H           -2.894066283949    -0.557058649670     0.548298875371     1.007825032230
         H           -3.543116283949     1.072865350330     0.303312875371     1.007825032230
         H           -0.998821283949    -2.847469649670    -0.270395124629     1.007825032230

  Basis Set: AUG-CC-PVTZ
    Blend: AUG-CC-PVTZ
  Basis Set: (AUG-CC-PVTZ AUX)
    Blend: AUG-CC-PVTZ-JKFIT
	 Reference Energy          =    -438.7893700803110164 [Eh]
	 Singles Energy            =      -0.0000000000000000 [Eh]
	 Same-Spin Energy          =      -0.4734852250302556 [Eh]
	 Opposite-Spin Energy      =      -1.4975087640379452 [Eh]
	 Correlation Energy        =      -1.9709939890682007 [Eh]
	 Total Energy              =    -440.7603640693791931 [Eh]

	 ================> DF-SCS-MP2 Energies <==================
	-----------------------------------------------------------
	 SCS Same-Spin Scale       =       0.3333333333333333 [-]
	 SCS Opposite-Spin Scale   =       1.2000000000000000 [-]
	 SCS Same-Spin Energy      =      -0.1578284083434185 [Eh]
	 SCS Opposite-Spin Energy  =      -1.7970105168455341 [Eh]
	 SCS Correlation Energy    =      -1.9548389251889526 [Eh]
	 SCS Total Energy          =    -440.7442090054999539 [Eh]
	-----------------------------------------------------------

  Dipole Moment: [D]
     X:     0.3333      Y:     0.1728      Z:     0.7683     Total:     0.8551

*** Psi4 exiting successfully. Buy a developer a beer!
