                               Psi4 1.4a3.dev225

  ==> Input File <==

--------------------------------------------------------------------------
#psi4
#
memory 32 gb

molecule  {
0 1
  O       -1.2691620    -1.9635190    -0.2989340
  N       -1.5914490     0.7494560    -0.4145900
  C       -0.3130270     0.2119120    -0.1595780
  C        0.8301940     1.0305910    -0.0518670
  C       -0.1431580    -1.1878580    -0.1217090
  C        2.0898390     0.4471990     0.1357390
  C        0.6950280     2.5311170    -0.1166830
  C        1.1116310    -1.7522480     0.0999640
  C        2.2372160    -0.9348950     0.2090400
  C       -2.6427770     0.4546790     0.5677560
  H        2.9635850     1.0904280     0.2186520
  H       -1.5305009     1.6546906    -0.5353178
  H        0.3450640     2.8711750    -1.0989170
  H       -0.0074210     2.9084320     0.6355410
  H        1.6619860     3.0062270     0.0664270
  H        1.2125710    -2.8369000     0.1368280
  H        3.2163680    -1.3783700     0.3701280
  H       -2.3586210     0.7219050     1.5961240
  H       -2.8840400    -0.6056810     0.5350110
  H       -3.5330900     1.0242430     0.2900250
  H       -0.9887950    -2.8960920    -0.2836830
units angstrom
no_reorient  #important for SAPT in psi4, default
symmetry c1  #important for SAPT in psi4, default
}

set PROPERTIES_ORIGIN ["COM"]
properties('MP2/aug-cc-pvtz', properties = ['dipole'])
--------------------------------------------------------------------------

    Molecular point group: c1
  Charge       = 0
  Multiplicity = 1
  Basis Set: AUG-CC-PVTZ
    Blend: AUG-CC-PVTZ
  Basis Set: (AUG-CC-PVTZ AUX)
    Blend: AUG-CC-PVTZ-JKFIT

    Orbital Energies [Eh]
    ---------------------

    Doubly Occupied:

       1A    -20.587037     2A    -15.543061     3A    -11.294842
       4A    -11.262913     5A    -11.240782     6A    -11.239914
       7A    -11.231704     8A    -11.230399     9A    -11.229176
      10A    -11.223972    11A     -1.396681    12A     -1.236386
      13A     -1.133401    14A     -1.040919    15A     -0.995451
      16A     -0.937732    17A     -0.908074    18A     -0.824060
      19A     -0.805808    20A     -0.708446    21A     -0.701085
      22A     -0.671887    23A     -0.619002    24A     -0.609461
      25A     -0.600199    26A     -0.588479    27A     -0.576423
      28A     -0.570214    29A     -0.560746    30A     -0.537587
      31A     -0.529930    32A     -0.505295    33A     -0.486384
      34A     -0.470616    35A     -0.414771    36A     -0.318191
      37A     -0.291118

  @DF-RHF Final Energy:  -438.79508026836464

   => Energetics <=

    Nuclear Repulsion Energy =            524.7322360854428780
    One-Electron Energy =               -1636.8103399707822518
    Two-Electron Energy =                 673.2830236169746740
    Total Energy =                       -438.7950802683645861
  Basis Set: (AUG-CC-PVTZ AUX)
    Blend: AUG-CC-PVTZ-RI
    Molecular point group: c1

    Geometry (in Angstrom), charge = 0, multiplicity = 1:

       Center              X                  Y                   Z               Mass
    ------------   -----------------  -----------------  -----------------  -----------------
         O           -1.282848871324    -1.921923343055    -0.285153497081    15.994914619570
         N           -1.605135871324     0.791051656945    -0.400809497081    14.003074004430
         C           -0.326713871324     0.253507656945    -0.145797497081    12.000000000000
         C            0.816507128676     1.072186656945    -0.038086497081    12.000000000000
         C           -0.156844871324    -1.146262343055    -0.107928497081    12.000000000000
         C            2.076152128676     0.488794656945     0.149519502919    12.000000000000
         C            0.681341128676     2.572712656945    -0.102902497081    12.000000000000
         C            1.097944128676    -1.710652343055     0.113744502919    12.000000000000
         C            2.223529128676    -0.893299343055     0.222820502919    12.000000000000
         C           -2.656463871324     0.496274656945     0.581536502919    12.000000000000
         H            2.949898128676     1.132023656945     0.232432502919     1.007825032230
         H           -1.544187771324     1.696286256945    -0.521537297081     1.007825032230
         H            0.331377128676     2.912770656945    -1.085136497081     1.007825032230
         H           -0.021107871324     2.950027656945     0.649321502919     1.007825032230
         H            1.648299128676     3.047822656945     0.080207502919     1.007825032230
         H            1.198884128676    -2.795304343055     0.150608502919     1.007825032230
         H            3.202681128676    -1.336774343055     0.383908502919     1.007825032230
         H           -2.372307871324     0.763500656945     1.609904502919     1.007825032230
         H           -2.897726871324    -0.564085343055     0.548791502919     1.007825032230
         H           -3.546776871324     1.065838656945     0.303805502919     1.007825032230
         H           -1.002481871324    -2.854496343055    -0.269902497081     1.007825032230

  Basis Set: AUG-CC-PVTZ
    Blend: AUG-CC-PVTZ
  Basis Set: (AUG-CC-PVTZ AUX)
    Blend: AUG-CC-PVTZ-JKFIT
	 Reference Energy          =    -438.7950802683646430 [Eh]
	 Singles Energy            =      -0.0000000000000000 [Eh]
	 Same-Spin Energy          =      -0.4729099405107176 [Eh]
	 Opposite-Spin Energy      =      -1.4953184226995073 [Eh]
	 Correlation Energy        =      -1.9682283632102249 [Eh]
	 Total Energy              =    -440.7633086315748869 [Eh]

	 ================> DF-SCS-MP2 Energies <==================
	-----------------------------------------------------------
	 SCS Same-Spin Scale       =       0.3333333333333333 [-]
	 SCS Opposite-Spin Scale   =       1.2000000000000000 [-]
	 SCS Same-Spin Energy      =      -0.1576366468369058 [Eh]
	 SCS Opposite-Spin Energy  =      -1.7943821072394088 [Eh]
	 SCS Correlation Energy    =      -1.9520187540763148 [Eh]
	 SCS Total Energy          =    -440.7470990224409775 [Eh]
	-----------------------------------------------------------

  Dipole Moment: [D]
     X:     0.1893      Y:     0.0517      Z:     0.7867     Total:     0.8108

*** Psi4 exiting successfully. Buy a developer a beer!
