                               Psi4 1.4a3.dev225

  ==> Input File <==

--------------------------------------------------------------------------
#psi4
#
memory 32 gb

molecule  {
0 1
  O       -1.2691620    -1.9635190    -0.2989340
  N       -1.5914490     0.7494560    -0.4145900
  C       -0.3130270     0.2119120    -0.1595780
  C        0.8301940     1.0305910    -0.0518670
  C       -0.1431580    -1.1878580    -0.1217090
  C        2.0898390     0.4471990     0.1357390
  C        0.6968207     2.5112161    -0.1158234
  C        1.1116310    -1.7522480     0.0999640
  C        2.2372160    -0.9348950     0.2090400
  C       -2.6427770     0.4546790     0.5677560
  H        2.9635850     1.0904280     0.2186520
  H       -1.5238420     1.7535930    -0.5485080
  H        0.3450640     2.8711750    -1.0989170
  H       -0.0074210     2.9084320     0.6355410
  H        1.6619860     3.0062270     0.0664270
  H        1.2125710    -2.8369000     0.1368280
  H        3.2163680    -1.3783700     0.3701280
  H       -2.3586210     0.7219050     1.5961240
  H       -2.8840400    -0.6056810     0.5350110
  H       -3.5330900     1.0242430     0.2900250
  H       -0.9887950    -2.8960920    -0.2836830
units angstrom
no_reorient  #important for SAPT in psi4, default
symmetry c1  #important for SAPT in psi4, default
}

set PROPERTIES_ORIGIN ["COM"]
properties('MP2/aug-cc-pvtz', properties = ['dipole'])
--------------------------------------------------------------------------

    Molecular point group: c1
  Charge       = 0
  Multiplicity = 1
  Basis Set: AUG-CC-PVTZ
    Blend: AUG-CC-PVTZ
  Basis Set: (AUG-CC-PVTZ AUX)
    Blend: AUG-CC-PVTZ-JKFIT

    Orbital Energies [Eh]
    ---------------------

    Doubly Occupied:

       1A    -20.586989     2A    -15.554023     3A    -11.294924
       4A    -11.263148     5A    -11.239858     6A    -11.239522
       7A    -11.231618     8A    -11.230394     9A    -11.230067
      10A    -11.223903    11A     -1.396643    12A     -1.224184
      13A     -1.131739    14A     -1.043025    15A     -0.994368
      16A     -0.937196    17A     -0.900700    18A     -0.822402
      19A     -0.801369    20A     -0.707114    21A     -0.693168
      22A     -0.671829    23A     -0.617435    24A     -0.608448
      25A     -0.598216    26A     -0.587855    27A     -0.576536
      28A     -0.569938    29A     -0.559203    30A     -0.534614
      31A     -0.527161    32A     -0.506285    33A     -0.485260
      34A     -0.469552    35A     -0.413095    36A     -0.317776
      37A     -0.290562

  @DF-RHF Final Energy:  -438.80040684177408

   => Energetics <=

    Nuclear Repulsion Energy =            524.4980871263458084
    One-Electron Energy =               -1636.4367495930885070
    Two-Electron Energy =                 673.1382556249686786
    Total Energy =                       -438.8004068417740200
  Basis Set: (AUG-CC-PVTZ AUX)
    Blend: AUG-CC-PVTZ-RI
    Molecular point group: c1

    Geometry (in Angstrom), charge = 0, multiplicity = 1:

       Center              X                  Y                   Z               Mass
    ------------   -----------------  -----------------  -----------------  -----------------
         O           -1.283054755256    -1.920908385652    -0.285131771626    15.994914619570
         N           -1.605341755256     0.792066614348    -0.400787771626    14.003074004430
         C           -0.326919755256     0.254522614348    -0.145775771626    12.000000000000
         C            0.816301244744     1.073201614348    -0.038064771626    12.000000000000
         C           -0.157050755256    -1.145247385652    -0.107906771626    12.000000000000
         C            2.075946244744     0.489809614348     0.149541228374    12.000000000000
         C            0.682927944744     2.553826714348    -0.102021171626    12.000000000000
         C            1.097738244744    -1.709637385652     0.113766228374    12.000000000000
         C            2.223323244744    -0.892284385652     0.222842228374    12.000000000000
         C           -2.656669755256     0.497289614348     0.581558228374    12.000000000000
         H            2.949692244744     1.133038614348     0.232454228374     1.007825032230
         H           -1.537734755256     1.796203614348    -0.534705771626     1.007825032230
         H            0.331171244744     2.913785614348    -1.085114771626     1.007825032230
         H           -0.021313755256     2.951042614348     0.649343228374     1.007825032230
         H            1.648093244744     3.048837614348     0.080229228374     1.007825032230
         H            1.198678244744    -2.794289385652     0.150630228374     1.007825032230
         H            3.202475244744    -1.335759385652     0.383930228374     1.007825032230
         H           -2.372513755256     0.764515614348     1.609926228374     1.007825032230
         H           -2.897932755256    -0.563070385652     0.548813228374     1.007825032230
         H           -3.546982755256     1.066853614348     0.303827228374     1.007825032230
         H           -1.002687755256    -2.853481385652    -0.269880771626     1.007825032230

  Basis Set: AUG-CC-PVTZ
    Blend: AUG-CC-PVTZ
  Basis Set: (AUG-CC-PVTZ AUX)
    Blend: AUG-CC-PVTZ-JKFIT
	 Reference Energy          =    -438.8004068417740768 [Eh]
	 Singles Energy            =      -0.0000000000000000 [Eh]
	 Same-Spin Energy          =      -0.4739331581553957 [Eh]
	 Opposite-Spin Energy      =      -1.4974482383189076 [Eh]
	 Correlation Energy        =      -1.9713813964743032 [Eh]
	 Total Energy              =    -440.7717882382484049 [Eh]

	 ================> DF-SCS-MP2 Energies <==================
	-----------------------------------------------------------
	 SCS Same-Spin Scale       =       0.3333333333333333 [-]
	 SCS Opposite-Spin Scale   =       1.2000000000000000 [-]
	 SCS Same-Spin Energy      =      -0.1579777193851319 [Eh]
	 SCS Opposite-Spin Energy  =      -1.7969378859826890 [Eh]
	 SCS Correlation Energy    =      -1.9549156053678209 [Eh]
	 SCS Total Energy          =    -440.7553224471419071 [Eh]
	-----------------------------------------------------------

  Dipole Moment: [D]
     X:     0.1854      Y:     0.0968      Z:     0.7793     Total:     0.8069

*** Psi4 exiting successfully. Buy a developer a beer!
