                               Psi4 1.4a3.dev225

  ==> Input File <==

--------------------------------------------------------------------------
#psi4
#
memory 32 gb

molecule  {
0 1
  O       -1.2691620    -1.9635190    -0.2989340
  N       -1.5914490     0.7494560    -0.4145900
  C       -0.3130270     0.2119120    -0.1595780
  C        0.8301940     1.0305910    -0.0518670
  C       -0.1431580    -1.1878580    -0.1217090
  C        2.1078236     0.4388696     0.1384176
  C        0.6950280     2.5311170    -0.1166830
  C        1.1116310    -1.7522480     0.0999640
  C        2.2372160    -0.9348950     0.2090400
  C       -2.6427770     0.4546790     0.5677560
  H        2.9635850     1.0904280     0.2186520
  H       -1.5238420     1.7535930    -0.5485080
  H        0.3450640     2.8711750    -1.0989170
  H       -0.0074210     2.9084320     0.6355410
  H        1.6619860     3.0062270     0.0664270
  H        1.2125710    -2.8369000     0.1368280
  H        3.2163680    -1.3783700     0.3701280
  H       -2.3586210     0.7219050     1.5961240
  H       -2.8840400    -0.6056810     0.5350110
  H       -3.5330900     1.0242430     0.2900250
  H       -0.9887950    -2.8960920    -0.2836830
units angstrom
no_reorient  #important for SAPT in psi4, default
symmetry c1  #important for SAPT in psi4, default
}

set PROPERTIES_ORIGIN ["COM"]
properties('MP2/aug-cc-pvtz', properties = ['dipole'])
--------------------------------------------------------------------------

    Molecular point group: c1
  Charge       = 0
  Multiplicity = 1
  Basis Set: AUG-CC-PVTZ
    Blend: AUG-CC-PVTZ
  Basis Set: (AUG-CC-PVTZ AUX)
    Blend: AUG-CC-PVTZ-JKFIT

    Orbital Energies [Eh]
    ---------------------

    Doubly Occupied:

       1A    -20.587306     2A    -15.553953     3A    -11.295666
       4A    -11.263135     5A    -11.242322     6A    -11.239855
       7A    -11.230815     8A    -11.229608     9A    -11.229504
      10A    -11.223900    11A     -1.396939    12A     -1.223786
      13A     -1.130156    14A     -1.039645    15A     -0.995623
      16A     -0.937674    17A     -0.900224    18A     -0.823082
      19A     -0.800517    20A     -0.706102    21A     -0.693569
      22A     -0.671537    23A     -0.618167    24A     -0.607963
      25A     -0.598780    26A     -0.587881    27A     -0.575398
      28A     -0.569727    29A     -0.559916    30A     -0.536974
      31A     -0.526662    32A     -0.507794    33A     -0.483119
      34A     -0.469857    35A     -0.413367    36A     -0.315614
      37A     -0.292108

  @DF-RHF Final Energy:  -438.80062234082885

   => Energetics <=

    Nuclear Repulsion Energy =            523.8671791865104979
    One-Electron Energy =               -1635.1791088566874350
    Two-Electron Energy =                 672.5113073293482557
    Total Energy =                       -438.8006223408287951
  Basis Set: (AUG-CC-PVTZ AUX)
    Blend: AUG-CC-PVTZ-RI
    Molecular point group: c1

    Geometry (in Angstrom), charge = 0, multiplicity = 1:

       Center              X                  Y                   Z               Mass
    ------------   -----------------  -----------------  -----------------  -----------------
         O           -1.284472154145    -1.921921326150    -0.285291002388    15.994914619570
         N           -1.606759154145     0.791053673850    -0.400947002388    14.003074004430
         C           -0.328337154145     0.253509673850    -0.145935002388    12.000000000000
         C            0.814883845855     1.072188673850    -0.038224002388    12.000000000000
         C           -0.158468154145    -1.146260326150    -0.108066002388    12.000000000000
         C            2.092513445855     0.480467273850     0.152060597612    12.000000000000
         C            0.679717845855     2.572714673850    -0.103040002388    12.000000000000
         C            1.096320845855    -1.710650326150     0.113606997612    12.000000000000
         C            2.221905845855    -0.893297326150     0.222682997612    12.000000000000
         C           -2.658087154145     0.496276673850     0.581398997612    12.000000000000
         H            2.948274845855     1.132025673850     0.232294997612     1.007825032230
         H           -1.539152154145     1.795190673850    -0.534865002388     1.007825032230
         H            0.329753845855     2.912772673850    -1.085274002388     1.007825032230
         H           -0.022731154145     2.950029673850     0.649183997612     1.007825032230
         H            1.646675845855     3.047824673850     0.080069997612     1.007825032230
         H            1.197260845855    -2.795302326150     0.150470997612     1.007825032230
         H            3.201057845855    -1.336772326150     0.383770997612     1.007825032230
         H           -2.373931154145     0.763502673850     1.609766997612     1.007825032230
         H           -2.899350154145    -0.564083326150     0.548653997612     1.007825032230
         H           -3.548400154145     1.065840673850     0.303667997612     1.007825032230
         H           -1.004105154145    -2.854494326150    -0.270040002388     1.007825032230

  Basis Set: AUG-CC-PVTZ
    Blend: AUG-CC-PVTZ
  Basis Set: (AUG-CC-PVTZ AUX)
    Blend: AUG-CC-PVTZ-JKFIT
	 Reference Energy          =    -438.8006223408288520 [Eh]
	 Singles Energy            =      -0.0000000000000000 [Eh]
	 Same-Spin Energy          =      -0.4736513744536036 [Eh]
	 Opposite-Spin Energy      =      -1.4972160879842027 [Eh]
	 Correlation Energy        =      -1.9708674624378062 [Eh]
	 Total Energy              =    -440.7714898032666611 [Eh]

	 ================> DF-SCS-MP2 Energies <==================
	-----------------------------------------------------------
	 SCS Same-Spin Scale       =       0.3333333333333333 [-]
	 SCS Opposite-Spin Scale   =       1.2000000000000000 [-]
	 SCS Same-Spin Energy      =      -0.1578837914845345 [Eh]
	 SCS Opposite-Spin Energy  =      -1.7966593055810431 [Eh]
	 SCS Correlation Energy    =      -1.9545430970655777 [Eh]
	 SCS Total Energy          =    -440.7551654378944477 [Eh]
	-----------------------------------------------------------

  Dipole Moment: [D]
     X:     0.1814      Y:     0.1003      Z:     0.7773     Total:     0.8045

*** Psi4 exiting successfully. Buy a developer a beer!
