                               Psi4 1.4a3.dev225

  ==> Input File <==

--------------------------------------------------------------------------
#psi4
#
memory 32 gb

molecule  {
0 1
  O       -1.2691620    -1.9635190    -0.2989340
  N       -1.5914490     0.7494560    -0.4145900
  C       -0.3130270     0.2119120    -0.1595780
  C        0.8301940     1.0305910    -0.0518670
  C       -0.1431580    -1.1878580    -0.1217090
  C        2.0448775     0.4680225     0.1290426
  C        0.6950280     2.5311170    -0.1166830
  C        1.1116310    -1.7522480     0.0999640
  C        2.2372160    -0.9348950     0.2090400
  C       -2.6427770     0.4546790     0.5677560
  H        2.9635850     1.0904280     0.2186520
  H       -1.5238420     1.7535930    -0.5485080
  H        0.3450640     2.8711750    -1.0989170
  H       -0.0074210     2.9084320     0.6355410
  H        1.6619860     3.0062270     0.0664270
  H        1.2125710    -2.8369000     0.1368280
  H        3.2163680    -1.3783700     0.3701280
  H       -2.3586210     0.7219050     1.5961240
  H       -2.8840400    -0.6056810     0.5350110
  H       -3.5330900     1.0242430     0.2900250
  H       -0.9887950    -2.8960920    -0.2836830
units angstrom
no_reorient  #important for SAPT in psi4, default
symmetry c1  #important for SAPT in psi4, default
}

set PROPERTIES_ORIGIN ["COM"]
properties('MP2/aug-cc-pvtz', properties = ['dipole'])
--------------------------------------------------------------------------

    Molecular point group: c1
  Charge       = 0
  Multiplicity = 1
  Basis Set: AUG-CC-PVTZ
    Blend: AUG-CC-PVTZ
  Basis Set: (AUG-CC-PVTZ AUX)
    Blend: AUG-CC-PVTZ-JKFIT

    Orbital Energies [Eh]
    ---------------------

    Doubly Occupied:

       1A    -20.586029     2A    -15.553960     3A    -11.292845
       4A    -11.262922     5A    -11.239715     6A    -11.235343
       7A    -11.233720     8A    -11.231829     9A    -11.228961
      10A    -11.223581    11A     -1.395725    12A     -1.224244
      13A     -1.134091    14A     -1.043991    15A     -0.990894
      16A     -0.938486    17A     -0.901645    18A     -0.822201
      19A     -0.802293    20A     -0.707166    21A     -0.691786
      22A     -0.671309    23A     -0.616258    24A     -0.607460
      25A     -0.596325    26A     -0.587834    27A     -0.576260
      28A     -0.571536    29A     -0.559586    30A     -0.535284
      31A     -0.532149    32A     -0.499225    33A     -0.484367
      34A     -0.471119    35A     -0.412183    36A     -0.324786
      37A     -0.286680

  @DF-RHF Final Energy:  -438.79793636404247

   => Energetics <=

    Nuclear Repulsion Energy =            524.8322610354308608
    One-Electron Energy =               -1637.1128175777057550
    Two-Electron Energy =                 673.4826201782325370
    Total Energy =                       -438.7979363640424708
  Basis Set: (AUG-CC-PVTZ AUX)
    Blend: AUG-CC-PVTZ-RI
    Molecular point group: c1

    Geometry (in Angstrom), charge = 0, multiplicity = 1:

       Center              X                  Y                   Z               Mass
    ------------   -----------------  -----------------  -----------------  -----------------
         O           -1.278962008195    -1.924473298931    -0.284470338069    15.994914619570
         N           -1.601249008195     0.788501701069    -0.400126338069    14.003074004430
         C           -0.322827008195     0.250957701069    -0.145114338069    12.000000000000
         C            0.820393991805     1.069636701069    -0.037403338069    12.000000000000
         C           -0.152958008195    -1.148812298931    -0.107245338069    12.000000000000
         C            2.035077491805     0.507068201069     0.143506261931    12.000000000000
         C            0.685227991805     2.570162701069    -0.102219338069    12.000000000000
         C            1.101830991805    -1.713202298931     0.114427661931    12.000000000000
         C            2.227415991805    -0.895849298931     0.223503661931    12.000000000000
         C           -2.652577008195     0.493724701069     0.582219661931    12.000000000000
         H            2.953784991805     1.129473701069     0.233115661931     1.007825032230
         H           -1.533642008195     1.792638701069    -0.534044338069     1.007825032230
         H            0.335263991805     2.910220701069    -1.084453338069     1.007825032230
         H           -0.017221008195     2.947477701069     0.650004661931     1.007825032230
         H            1.652185991805     3.045272701069     0.080890661931     1.007825032230
         H            1.202770991805    -2.797854298931     0.151291661931     1.007825032230
         H            3.206567991805    -1.339324298931     0.384591661931     1.007825032230
         H           -2.368421008195     0.760950701069     1.610587661931     1.007825032230
         H           -2.893840008195    -0.566635298931     0.549474661931     1.007825032230
         H           -3.542890008195     1.063288701069     0.304488661931     1.007825032230
         H           -0.998595008195    -2.857046298931    -0.269219338069     1.007825032230

  Basis Set: AUG-CC-PVTZ
    Blend: AUG-CC-PVTZ
  Basis Set: (AUG-CC-PVTZ AUX)
    Blend: AUG-CC-PVTZ-JKFIT
	 Reference Energy          =    -438.7979363640424708 [Eh]
	 Singles Energy            =      -0.0000000000000000 [Eh]
	 Same-Spin Energy          =      -0.4738347678555835 [Eh]
	 Opposite-Spin Energy      =      -1.4974575554119305 [Eh]
	 Correlation Energy        =      -1.9712923232675139 [Eh]
	 Total Energy              =    -440.7692286873099761 [Eh]

	 ================> DF-SCS-MP2 Energies <==================
	-----------------------------------------------------------
	 SCS Same-Spin Scale       =       0.3333333333333333 [-]
	 SCS Opposite-Spin Scale   =       1.2000000000000000 [-]
	 SCS Same-Spin Energy      =      -0.1579449226185278 [Eh]
	 SCS Opposite-Spin Energy  =      -1.7969490664943166 [Eh]
	 SCS Correlation Energy    =      -1.9548939891128445 [Eh]
	 SCS Total Energy          =    -440.7528303531553320 [Eh]
	-----------------------------------------------------------

  Dipole Moment: [D]
     X:     0.1995      Y:     0.0896      Z:     0.7802     Total:     0.8103

*** Psi4 exiting successfully. Buy a developer a beer!
