                               Psi4 1.4a3.dev225

  ==> Input File <==

--------------------------------------------------------------------------
#psi4
#
memory 32 gb

molecule  {
0 1
  O       -1.2691620    -1.9635190    -0.2989340
  N       -1.5914490     0.7494560    -0.4145900
  C       -0.3130270     0.2119120    -0.1595780
  C        0.8301940     1.0305910    -0.0518670
  C       -0.1431580    -1.1878580    -0.1217090
  C        2.0898390     0.4471990     0.1357390
  C        0.6950280     2.5311170    -0.1166830
  C        1.1116310    -1.7522480     0.0999640
  C        2.2372160    -0.9348950     0.2090400
  C       -2.6427770     0.4546790     0.5677560
  H        2.9635850     1.0904280     0.2186520
  H       -1.5271715     1.7041418    -0.5419129
  H        0.3450640     2.8711750    -1.0989170
  H       -0.0074210     2.9084320     0.6355410
  H        1.6619860     3.0062270     0.0664270
  H        1.2125710    -2.8369000     0.1368280
  H        3.2163680    -1.3783700     0.3701280
  H       -2.3586210     0.7219050     1.5961240
  H       -2.8840400    -0.6056810     0.5350110
  H       -3.5330900     1.0242430     0.2900250
  H       -0.9887950    -2.8960920    -0.2836830
units angstrom
no_reorient  #important for SAPT in psi4, default
symmetry c1  #important for SAPT in psi4, default
}

set PROPERTIES_ORIGIN ["COM"]
properties('MP2/aug-cc-pvtz', properties = ['dipole'])
--------------------------------------------------------------------------

    Molecular point group: c1
  Charge       = 0
  Multiplicity = 1
  Basis Set: AUG-CC-PVTZ
    Blend: AUG-CC-PVTZ
  Basis Set: (AUG-CC-PVTZ AUX)
    Blend: AUG-CC-PVTZ-JKFIT

    Orbital Energies [Eh]
    ---------------------

    Doubly Occupied:

       1A    -20.586974     2A    -15.548674     3A    -11.294831
       4A    -11.262977     5A    -11.240621     6A    -11.239850
       7A    -11.231617     8A    -11.230350     9A    -11.229270
      10A    -11.223912    11A     -1.396620    12A     -1.229545
      13A     -1.132211    14A     -1.040853    15A     -0.994796
      16A     -0.937771    17A     -0.904072    18A     -0.823331
      19A     -0.803378    20A     -0.706986    21A     -0.697414
      22A     -0.671726    23A     -0.618130    24A     -0.608631
      25A     -0.599267    26A     -0.588188    27A     -0.576022
      28A     -0.570229    29A     -0.560283    30A     -0.536913
      31A     -0.529225    32A     -0.505219    33A     -0.485453
      34A     -0.470409    35A     -0.413893    36A     -0.318120
      37A     -0.290803

  @DF-RHF Final Energy:  -438.80089011180769

   => Energetics <=

    Nuclear Repulsion Energy =            524.4228996690636677
    One-Electron Energy =               -1636.2504505273550421
    Two-Electron Energy =                 673.0266607464837989
    Total Energy =                       -438.8008901118076892
  Basis Set: (AUG-CC-PVTZ AUX)
    Blend: AUG-CC-PVTZ-RI
    Molecular point group: c1

    Geometry (in Angstrom), charge = 0, multiplicity = 1:

       Center              X                  Y                   Z               Mass
    ------------   -----------------  -----------------  -----------------  -----------------
         O           -1.282873348660    -1.922286902142    -0.285105010724    15.994914619570
         N           -1.605160348660     0.790688097858    -0.400761010724    14.003074004430
         C           -0.326738348660     0.253144097858    -0.145749010724    12.000000000000
         C            0.816482651340     1.071823097858    -0.038038010724    12.000000000000
         C           -0.156869348660    -1.146625902142    -0.107880010724    12.000000000000
         C            2.076127651340     0.488431097858     0.149567989276    12.000000000000
         C            0.681316651340     2.572349097858    -0.102854010724    12.000000000000
         C            1.097919651340    -1.711015902142     0.113792989276    12.000000000000
         C            2.223504651340    -0.893662902142     0.222868989276    12.000000000000
         C           -2.656488348660     0.495911097858     0.581584989276    12.000000000000
         H            2.949873651340     1.131660097858     0.232480989276     1.007825032230
         H           -1.540882848660     1.745373897858    -0.528083910724     1.007825032230
         H            0.331352651340     2.912407097858    -1.085088010724     1.007825032230
         H           -0.021132348660     2.949664097858     0.649369989276     1.007825032230
         H            1.648274651340     3.047459097858     0.080255989276     1.007825032230
         H            1.198859651340    -2.795667902142     0.150656989276     1.007825032230
         H            3.202656651340    -1.337137902142     0.383956989276     1.007825032230
         H           -2.372332348660     0.763137097858     1.609952989276     1.007825032230
         H           -2.897751348660    -0.564448902142     0.548839989276     1.007825032230
         H           -3.546801348660     1.065475097858     0.303853989276     1.007825032230
         H           -1.002506348660    -2.854859902142    -0.269854010724     1.007825032230

  Basis Set: AUG-CC-PVTZ
    Blend: AUG-CC-PVTZ
  Basis Set: (AUG-CC-PVTZ AUX)
    Blend: AUG-CC-PVTZ-JKFIT
	 Reference Energy          =    -438.8008901118076892 [Eh]
	 Singles Energy            =      -0.0000000000000000 [Eh]
	 Same-Spin Energy          =      -0.4733053067717498 [Eh]
	 Opposite-Spin Energy      =      -1.4962256471883042 [Eh]
	 Correlation Energy        =      -1.9695309539600541 [Eh]
	 Total Energy              =    -440.7704210657677208 [Eh]

	 ================> DF-SCS-MP2 Energies <==================
	-----------------------------------------------------------
	 SCS Same-Spin Scale       =       0.3333333333333333 [-]
	 SCS Opposite-Spin Scale   =       1.2000000000000000 [-]
	 SCS Same-Spin Energy      =      -0.1577684355905833 [Eh]
	 SCS Opposite-Spin Energy  =      -1.7954707766259650 [Eh]
	 SCS Correlation Energy    =      -1.9532392122165483 [Eh]
	 SCS Total Energy          =    -440.7541293240242339 [Eh]
	-----------------------------------------------------------

  Dipole Moment: [D]
     X:     0.1874      Y:     0.0757      Z:     0.7817     Total:     0.8074

*** Psi4 exiting successfully. Buy a developer a beer!
