                               Psi4 1.4a3.dev225

  ==> Input File <==

--------------------------------------------------------------------------
#psi4
#
memory 32 gb

molecule  {
0 1
  O       -1.2691620    -1.9635190    -0.2989340
  N       -1.5914490     0.7494560    -0.4145900
  C       -0.3130270     0.2119120    -0.1595780
  C        0.8301940     1.0305910    -0.0518670
  C       -0.1431580    -1.1878580    -0.1217090
  C        2.0898390     0.4471990     0.1357390
  C        0.6950280     2.5311170    -0.1166830
  C        1.1566501    -1.7724971     0.1079171
  C        2.2372160    -0.9348950     0.2090400
  C       -2.6427770     0.4546790     0.5677560
  H        2.9635850     1.0904280     0.2186520
  H       -1.5238420     1.7535930    -0.5485080
  H        0.3450640     2.8711750    -1.0989170
  H       -0.0074210     2.9084320     0.6355410
  H        1.6619860     3.0062270     0.0664270
  H        1.2125710    -2.8369000     0.1368280
  H        3.2163680    -1.3783700     0.3701280
  H       -2.3586210     0.7219050     1.5961240
  H       -2.8840400    -0.6056810     0.5350110
  H       -3.5330900     1.0242430     0.2900250
  H       -0.9887950    -2.8960920    -0.2836830
units angstrom
no_reorient  #important for SAPT in psi4, default
symmetry c1  #important for SAPT in psi4, default
}

set PROPERTIES_ORIGIN ["COM"]
properties('MP2/aug-cc-pvtz', properties = ['dipole'])
--------------------------------------------------------------------------

    Molecular point group: c1
  Charge       = 0
  Multiplicity = 1
  Basis Set: AUG-CC-PVTZ
    Blend: AUG-CC-PVTZ
  Basis Set: (AUG-CC-PVTZ AUX)
    Blend: AUG-CC-PVTZ-JKFIT

    Orbital Energies [Eh]
    ---------------------

    Doubly Occupied:

       1A    -20.588763     2A    -15.553091     3A    -11.299529
       4A    -11.261566     5A    -11.242147     6A    -11.239366
       7A    -11.232153     8A    -11.229704     9A    -11.229174
      10A    -11.222945    11A     -1.397047    12A     -1.223144
      13A     -1.130046    14A     -1.040892    15A     -0.992170
      16A     -0.937343    17A     -0.900822    18A     -0.823303
      19A     -0.798622    20A     -0.707012    21A     -0.694033
      22A     -0.671785    23A     -0.617766    24A     -0.608962
      25A     -0.598086    26A     -0.589443    27A     -0.575761
      28A     -0.569864    29A     -0.559067    30A     -0.536342
      31A     -0.527769    32A     -0.509007    33A     -0.479903
      34A     -0.470377    35A     -0.413473    36A     -0.316449
      37A     -0.289575

  @DF-RHF Final Energy:  -438.79780476960639

   => Energetics <=

    Nuclear Repulsion Energy =            523.4118417327073303
    One-Electron Energy =               -1634.2662943604964312
    Two-Electron Energy =                 672.0566478581828278
    Total Energy =                       -438.7978047696063868
  Basis Set: (AUG-CC-PVTZ AUX)
    Blend: AUG-CC-PVTZ-RI
    Molecular point group: c1

    Geometry (in Angstrom), charge = 0, multiplicity = 1:

       Center              X                  Y                   Z               Mass
    ------------   -----------------  -----------------  -----------------  -----------------
         O           -1.286838687428    -1.920877905085    -0.285752719076    15.994914619570
         N           -1.609125687428     0.792097094915    -0.401408719076    14.003074004430
         C           -0.330703687428     0.254553094915    -0.146396719076    12.000000000000
         C            0.812517312572     1.073232094915    -0.038685719076    12.000000000000
         C           -0.160834687428    -1.145216905085    -0.108527719076    12.000000000000
         C            2.072162312572     0.489840094915     0.148920280924    12.000000000000
         C            0.677351312572     2.573758094915    -0.103501719076    12.000000000000
         C            1.138973412572    -1.729856005085     0.121098380924    12.000000000000
         C            2.219539312572    -0.892253905085     0.222221280924    12.000000000000
         C           -2.660453687428     0.497320094915     0.580937280924    12.000000000000
         H            2.945908312572     1.133069094915     0.231833280924     1.007825032230
         H           -1.541518687428     1.796234094915    -0.535326719076     1.007825032230
         H            0.327387312572     2.913816094915    -1.085735719076     1.007825032230
         H           -0.025097687428     2.951073094915     0.648722280924     1.007825032230
         H            1.644309312572     3.048868094915     0.079608280924     1.007825032230
         H            1.194894312572    -2.794258905085     0.150009280924     1.007825032230
         H            3.198691312572    -1.335728905085     0.383309280924     1.007825032230
         H           -2.376297687428     0.764546094915     1.609305280924     1.007825032230
         H           -2.901716687428    -0.563039905085     0.548192280924     1.007825032230
         H           -3.550766687428     1.066884094915     0.303206280924     1.007825032230
         H           -1.006471687428    -2.853450905085    -0.270501719076     1.007825032230

  Basis Set: AUG-CC-PVTZ
    Blend: AUG-CC-PVTZ
  Basis Set: (AUG-CC-PVTZ AUX)
    Blend: AUG-CC-PVTZ-JKFIT
	 Reference Energy          =    -438.7978047696063868 [Eh]
	 Singles Energy            =      -0.0000000000000000 [Eh]
	 Same-Spin Energy          =      -0.4736981813534658 [Eh]
	 Opposite-Spin Energy      =      -1.4975037002017737 [Eh]
	 Correlation Energy        =      -1.9712018815552395 [Eh]
	 Total Energy              =    -440.7690066511616465 [Eh]

	 ================> DF-SCS-MP2 Energies <==================
	-----------------------------------------------------------
	 SCS Same-Spin Scale       =       0.3333333333333333 [-]
	 SCS Opposite-Spin Scale   =       1.2000000000000000 [-]
	 SCS Same-Spin Energy      =      -0.1578993937844886 [Eh]
	 SCS Opposite-Spin Energy  =      -1.7970044402421284 [Eh]
	 SCS Correlation Energy    =      -1.9549038340266169 [Eh]
	 SCS Total Energy          =    -440.7527086036329820 [Eh]
	-----------------------------------------------------------

  Dipole Moment: [D]
     X:     0.1660      Y:     0.0572      Z:     0.7716     Total:     0.7913

*** Psi4 exiting successfully. Buy a developer a beer!
