                               Psi4 1.4a3.dev225

  ==> Input File <==

--------------------------------------------------------------------------
#psi4
#
memory 32 gb

molecule  {
0 1
  O       -1.2691620    -1.9635190    -0.2989340
  N       -1.5914490     0.7494560    -0.4145900
  C       -0.3130270     0.2119120    -0.1595780
  C        0.8301940     1.0305910    -0.0518670
  C       -0.1431580    -1.1878580    -0.1217090
  C        2.0898390     0.4471990     0.1357390
  C        0.6950280     2.5311170    -0.1166830
  C        1.1116310    -1.7522480     0.0999640
  C        2.2372160    -0.9348950     0.2090400
  C       -2.6427770     0.4546790     0.5677560
  H        2.9635850     1.0904280     0.2186520
  H       -1.5238420     1.7535930    -0.5485080
  H        0.3450640     2.8711750    -1.0989170
  H       -0.0074210     2.9084320     0.6355410
  H        1.6619860     3.0062270     0.0664270
  H        1.2125710    -2.8369000     0.1368280
  H        3.2163680    -1.3783700     0.3701280
  H       -2.3457032     0.7340532     1.6428739
  H       -2.8840400    -0.6056810     0.5350110
  H       -3.5330900     1.0242430     0.2900250
  H       -0.9887950    -2.8960920    -0.2836830
units angstrom
no_reorient  #important for SAPT in psi4, default
symmetry c1  #important for SAPT in psi4, default
}

set PROPERTIES_ORIGIN ["COM"]
properties('MP2/aug-cc-pvtz', properties = ['dipole'])
--------------------------------------------------------------------------

    Molecular point group: c1
  Charge       = 0
  Multiplicity = 1
  Basis Set: AUG-CC-PVTZ
    Blend: AUG-CC-PVTZ
  Basis Set: (AUG-CC-PVTZ AUX)
    Blend: AUG-CC-PVTZ-JKFIT

    Orbital Energies [Eh]
    ---------------------

    Doubly Occupied:

       1A    -20.587184     2A    -15.554995     3A    -11.295150
       4A    -11.263300     5A    -11.245939     6A    -11.240785
       7A    -11.231777     8A    -11.230512     9A    -11.229471
      10A    -11.224019    11A     -1.396834    12A     -1.224243
      13A     -1.131272    14A     -1.040939    15A     -0.994041
      16A     -0.937750    17A     -0.897580    18A     -0.822956
      19A     -0.800805    20A     -0.706599    21A     -0.693441
      22A     -0.670790    23A     -0.617272    24A     -0.608094
      25A     -0.597966    26A     -0.582526    27A     -0.575497
      28A     -0.570318    29A     -0.559394    30A     -0.536425
      31A     -0.528326    32A     -0.505129    33A     -0.484676
      34A     -0.470086    35A     -0.411482    36A     -0.318233
      37A     -0.290903

  @DF-RHF Final Energy:  -438.79906066671612

   => Energetics <=

    Nuclear Repulsion Energy =            523.9289537980713476
    One-Electron Energy =               -1635.3026072637655943
    Two-Electron Energy =                 672.5745927989780739
    Total Energy =                       -438.7990606667160591
  Basis Set: (AUG-CC-PVTZ AUX)
    Blend: AUG-CC-PVTZ-RI
    Molecular point group: c1

    Geometry (in Angstrom), charge = 0, multiplicity = 1:

       Center              X                  Y                   Z               Mass
    ------------   -----------------  -----------------  -----------------  -----------------
         O           -1.282992796794    -1.922739773289    -0.285400223833    15.994914619570
         N           -1.605279796794     0.790235226711    -0.401056223833    14.003074004430
         C           -0.326857796794     0.252691226711    -0.146044223833    12.000000000000
         C            0.816363203206     1.071370226711    -0.038333223833    12.000000000000
         C           -0.156988796794    -1.147078773289    -0.108175223833    12.000000000000
         C            2.076008203206     0.487978226711     0.149272776167    12.000000000000
         C            0.681197203206     2.571896226711    -0.103149223833    12.000000000000
         C            1.097800203206    -1.711468773289     0.113497776167    12.000000000000
         C            2.223385203206    -0.894115773289     0.222573776167    12.000000000000
         C           -2.656607796794     0.495458226711     0.581289776167    12.000000000000
         H            2.949754203206     1.131207226711     0.232185776167     1.007825032230
         H           -1.537672796794     1.794372226711    -0.534974223833     1.007825032230
         H            0.331233203206     2.911954226711    -1.085383223833     1.007825032230
         H           -0.021251796794     2.949211226711     0.649074776167     1.007825032230
         H            1.648155203206     3.047006226711     0.079960776167     1.007825032230
         H            1.198740203206    -2.796120773289     0.150361776167     1.007825032230
         H            3.202537203206    -1.337590773289     0.383661776167     1.007825032230
         H           -2.359533996794     0.774832426711     1.656407676167     1.007825032230
         H           -2.897870796794    -0.564901773289     0.548544776167     1.007825032230
         H           -3.546920796794     1.065022226711     0.303558776167     1.007825032230
         H           -1.002625796794    -2.855312773289    -0.270149223833     1.007825032230

  Basis Set: AUG-CC-PVTZ
    Blend: AUG-CC-PVTZ
  Basis Set: (AUG-CC-PVTZ AUX)
    Blend: AUG-CC-PVTZ-JKFIT
	 Reference Energy          =    -438.7990606667161160 [Eh]
	 Singles Energy            =      -0.0000000000000000 [Eh]
	 Same-Spin Energy          =      -0.4737295501587672 [Eh]
	 Opposite-Spin Energy      =      -1.4975623476586390 [Eh]
	 Correlation Energy        =      -1.9712918978174063 [Eh]
	 Total Energy              =    -440.7703525645335390 [Eh]

	 ================> DF-SCS-MP2 Energies <==================
	-----------------------------------------------------------
	 SCS Same-Spin Scale       =       0.3333333333333333 [-]
	 SCS Opposite-Spin Scale   =       1.2000000000000000 [-]
	 SCS Same-Spin Energy      =      -0.1579098500529224 [Eh]
	 SCS Opposite-Spin Energy  =      -1.7970748171903668 [Eh]
	 SCS Correlation Energy    =      -1.9549846672432891 [Eh]
	 SCS Total Energy          =    -440.7540453339594251 [Eh]
	-----------------------------------------------------------

  Dipole Moment: [D]
     X:     0.2123      Y:     0.0847      Z:     0.7253     Total:     0.7604

*** Psi4 exiting successfully. Buy a developer a beer!
