                               Psi4 1.4a3.dev225

  ==> Input File <==

--------------------------------------------------------------------------
#psi4
#
memory 32 gb

molecule  {
0 1
  O       -1.2691620    -1.9635190    -0.2989340
  N       -1.5914490     0.7494560    -0.4145900
  C       -0.3130270     0.2119120    -0.1595780
  C        0.8301940     1.0305910    -0.0518670
  C       -0.1431580    -1.1878580    -0.1217090
  C        2.1137546     0.4497180     0.1391756
  C        0.6950280     2.5311170    -0.1166830
  C        1.1116310    -1.7522480     0.0999640
  C        2.2372160    -0.9348950     0.2090400
  C       -2.6427770     0.4546790     0.5677560
  H        2.9635850     1.0904280     0.2186520
  H       -1.5238420     1.7535930    -0.5485080
  H        0.3450640     2.8711750    -1.0989170
  H       -0.0074210     2.9084320     0.6355410
  H        1.6619860     3.0062270     0.0664270
  H        1.2125710    -2.8369000     0.1368280
  H        3.2163680    -1.3783700     0.3701280
  H       -2.3586210     0.7219050     1.5961240
  H       -2.8840400    -0.6056810     0.5350110
  H       -3.5330900     1.0242430     0.2900250
  H       -0.9887950    -2.8960920    -0.2836830
units angstrom
no_reorient  #important for SAPT in psi4, default
symmetry c1  #important for SAPT in psi4, default
}

set PROPERTIES_ORIGIN ["COM"]
properties('MP2/aug-cc-pvtz', properties = ['dipole'])
--------------------------------------------------------------------------

    Molecular point group: c1
  Charge       = 0
  Multiplicity = 1
  Basis Set: AUG-CC-PVTZ
    Blend: AUG-CC-PVTZ
  Basis Set: (AUG-CC-PVTZ AUX)
    Blend: AUG-CC-PVTZ-JKFIT

    Orbital Energies [Eh]
    ---------------------

    Doubly Occupied:

       1A    -20.587511     2A    -15.553945     3A    -11.295898
       4A    -11.263085     5A    -11.242649     6A    -11.239832
       7A    -11.231744     8A    -11.230213     9A    -11.229196
      10A    -11.224167    11A     -1.397111    12A     -1.223714
      13A     -1.129083    14A     -1.039678    15A     -0.995010
      16A     -0.937410    17A     -0.900142    18A     -0.822710
      19A     -0.801520    20A     -0.705612    21A     -0.694218
      22A     -0.671687    23A     -0.617747    24A     -0.608547
      25A     -0.599005    26A     -0.587909    27A     -0.575386
      28A     -0.569875    29A     -0.560022    30A     -0.537255
      31A     -0.526376    32A     -0.509286    33A     -0.482094
      34A     -0.469085    35A     -0.413162    36A     -0.315891
      37A     -0.291423

  @DF-RHF Final Energy:  -438.80023289842711

   => Energetics <=

    Nuclear Repulsion Energy =            523.6809931359027814
    One-Electron Energy =               -1634.8040575976538094
    Two-Electron Energy =                 672.3228315633239163
    Total Energy =                       -438.8002328984271116
  Basis Set: (AUG-CC-PVTZ AUX)
    Blend: AUG-CC-PVTZ-RI
    Molecular point group: c1

    Geometry (in Angstrom), charge = 0, multiplicity = 1:

       Center              X                  Y                   Z               Mass
    ------------   -----------------  -----------------  -----------------  -----------------
         O           -1.284991339220    -1.922870968261    -0.285357355834    15.994914619570
         N           -1.607278339220     0.790104031739    -0.401013355834    14.003074004430
         C           -0.328856339220     0.252560031739    -0.146001355834    12.000000000000
         C            0.814364660780     1.071239031739    -0.038290355834    12.000000000000
         C           -0.158987339220    -1.147209968261    -0.108132355834    12.000000000000
         C            2.097925260780     0.490366031739     0.152752244166    12.000000000000
         C            0.679198660780     2.571765031739    -0.103106355834    12.000000000000
         C            1.095801660780    -1.711599968261     0.113540644166    12.000000000000
         C            2.221386660780    -0.894246968261     0.222616644166    12.000000000000
         C           -2.658606339220     0.495327031739     0.581332644166    12.000000000000
         H            2.947755660780     1.131076031739     0.232228644166     1.007825032230
         H           -1.539671339220     1.794241031739    -0.534931355834     1.007825032230
         H            0.329234660780     2.911823031739    -1.085340355834     1.007825032230
         H           -0.023250339220     2.949080031739     0.649117644166     1.007825032230
         H            1.646156660780     3.046875031739     0.080003644166     1.007825032230
         H            1.196741660780    -2.796251968261     0.150404644166     1.007825032230
         H            3.200538660780    -1.337721968261     0.383704644166     1.007825032230
         H           -2.374450339220     0.762553031739     1.609700644166     1.007825032230
         H           -2.899869339220    -0.565032968261     0.548587644166     1.007825032230
         H           -3.548919339220     1.064891031739     0.303601644166     1.007825032230
         H           -1.004624339220    -2.855443968261    -0.270106355834     1.007825032230

  Basis Set: AUG-CC-PVTZ
    Blend: AUG-CC-PVTZ
  Basis Set: (AUG-CC-PVTZ AUX)
    Blend: AUG-CC-PVTZ-JKFIT
	 Reference Energy          =    -438.8002328984271116 [Eh]
	 Singles Energy            =      -0.0000000000000000 [Eh]
	 Same-Spin Energy          =      -0.4736573995126358 [Eh]
	 Opposite-Spin Energy      =      -1.4972904629830850 [Eh]
	 Correlation Energy        =      -1.9709478624957208 [Eh]
	 Total Energy              =    -440.7711807609228458 [Eh]

	 ================> DF-SCS-MP2 Energies <==================
	-----------------------------------------------------------
	 SCS Same-Spin Scale       =       0.3333333333333333 [-]
	 SCS Opposite-Spin Scale   =       1.2000000000000000 [-]
	 SCS Same-Spin Energy      =      -0.1578857998375452 [Eh]
	 SCS Opposite-Spin Energy  =      -1.7967485555797020 [Eh]
	 SCS Correlation Energy    =      -1.9546343554172474 [Eh]
	 SCS Total Energy          =    -440.7548672538443384 [Eh]
	-----------------------------------------------------------

  Dipole Moment: [D]
     X:     0.1822      Y:     0.0956      Z:     0.7775     Total:     0.8042

*** Psi4 exiting successfully. Buy a developer a beer!
