                               Psi4 1.4a3.dev225

  ==> Input File <==

--------------------------------------------------------------------------
#psi4
#
memory 32 gb

molecule  {
0 1
  O       -1.2691620    -1.9635190    -0.2989340
  N       -1.5914490     0.7494560    -0.4145900
  C       -0.3130270     0.2119120    -0.1595780
  C        0.8301940     1.0305910    -0.0518670
  C       -0.1431580    -1.1878580    -0.1217090
  C        2.0898390     0.4471990     0.1357390
  C        0.6950280     2.5311170    -0.1166830
  C        1.0936234    -1.7441484     0.0967827
  C        2.2372160    -0.9348950     0.2090400
  C       -2.6427770     0.4546790     0.5677560
  H        2.9635850     1.0904280     0.2186520
  H       -1.5238420     1.7535930    -0.5485080
  H        0.3450640     2.8711750    -1.0989170
  H       -0.0074210     2.9084320     0.6355410
  H        1.6619860     3.0062270     0.0664270
  H        1.2125710    -2.8369000     0.1368280
  H        3.2163680    -1.3783700     0.3701280
  H       -2.3586210     0.7219050     1.5961240
  H       -2.8840400    -0.6056810     0.5350110
  H       -3.5330900     1.0242430     0.2900250
  H       -0.9887950    -2.8960920    -0.2836830
units angstrom
no_reorient  #important for SAPT in psi4, default
symmetry c1  #important for SAPT in psi4, default
}

set PROPERTIES_ORIGIN ["COM"]
properties('MP2/aug-cc-pvtz', properties = ['dipole'])
--------------------------------------------------------------------------

    Molecular point group: c1
  Charge       = 0
  Multiplicity = 1
  Basis Set: AUG-CC-PVTZ
    Blend: AUG-CC-PVTZ
  Basis Set: (AUG-CC-PVTZ AUX)
    Blend: AUG-CC-PVTZ-JKFIT

    Orbital Energies [Eh]
    ---------------------

    Doubly Occupied:

       1A    -20.586133     2A    -15.554305     3A    -11.292723
       4A    -11.263685     5A    -11.239994     6A    -11.239826
       7A    -11.231993     8A    -11.230063     9A    -11.229215
      10A    -11.224256    11A     -1.396378    12A     -1.224207
      13A     -1.131679    14A     -1.041118    15A     -0.995019
      16A     -0.938150    17A     -0.900473    18A     -0.822673
      19A     -0.801994    20A     -0.706022    21A     -0.692605
      22A     -0.671588    23A     -0.617224    24A     -0.607623
      25A     -0.598242    26A     -0.587606    27A     -0.575291
      28A     -0.570459    29A     -0.559946    30A     -0.536169
      31A     -0.528354    32A     -0.503402    33A     -0.485607
      34A     -0.470139    35A     -0.412890    36A     -0.319389
      37A     -0.290501

  @DF-RHF Final Energy:  -438.80076050447030

   => Energetics <=

    Nuclear Repulsion Energy =            524.4352998109903865
    One-Electron Energy =               -1636.3182391207897126
    Two-Electron Energy =                 673.0821788053291357
    Total Energy =                       -438.8007605044703041
  Basis Set: (AUG-CC-PVTZ AUX)
    Blend: AUG-CC-PVTZ-RI
    Molecular point group: c1

    Geometry (in Angstrom), charge = 0, multiplicity = 1:

       Center              X                  Y                   Z               Mass
    ------------   -----------------  -----------------  -----------------  -----------------
         O           -1.281321485953    -1.923359480187    -0.284778041232    15.994914619570
         N           -1.603608485953     0.789615519813    -0.400434041232    14.003074004430
         C           -0.325186485953     0.252071519813    -0.145422041232    12.000000000000
         C            0.818034514047     1.070750519813    -0.037711041232    12.000000000000
         C           -0.155317485953    -1.147698480187    -0.107553041232    12.000000000000
         C            2.077679514047     0.487358519813     0.149894958768    12.000000000000
         C            0.682868514047     2.571276519813    -0.102527041232    12.000000000000
         C            1.081463914047    -1.703988880187     0.110938658768    12.000000000000
         C            2.225056514047    -0.894735480187     0.223195958768    12.000000000000
         C           -2.654936485953     0.494838519813     0.581911958768    12.000000000000
         H            2.951425514047     1.130587519813     0.232807958768     1.007825032230
         H           -1.536001485953     1.793752519813    -0.534352041232     1.007825032230
         H            0.332904514047     2.911334519813    -1.084761041232     1.007825032230
         H           -0.019580485953     2.948591519813     0.649696958768     1.007825032230
         H            1.649826514047     3.046386519813     0.080582958768     1.007825032230
         H            1.200411514047    -2.796740480187     0.150983958768     1.007825032230
         H            3.204208514047    -1.338210480187     0.384283958768     1.007825032230
         H           -2.370780485953     0.762064519813     1.610279958768     1.007825032230
         H           -2.896199485953    -0.565521480187     0.549166958768     1.007825032230
         H           -3.545249485953     1.064402519813     0.304180958768     1.007825032230
         H           -1.000954485953    -2.855932480187    -0.269527041232     1.007825032230

  Basis Set: AUG-CC-PVTZ
    Blend: AUG-CC-PVTZ
  Basis Set: (AUG-CC-PVTZ AUX)
    Blend: AUG-CC-PVTZ-JKFIT
	 Reference Energy          =    -438.8007605044703041 [Eh]
	 Singles Energy            =      -0.0000000000000000 [Eh]
	 Same-Spin Energy          =      -0.4737070862953162 [Eh]
	 Opposite-Spin Energy      =      -1.4971950154902725 [Eh]
	 Correlation Energy        =      -1.9709021017855886 [Eh]
	 Total Energy              =    -440.7716626062559158 [Eh]

	 ================> DF-SCS-MP2 Energies <==================
	-----------------------------------------------------------
	 SCS Same-Spin Scale       =       0.3333333333333333 [-]
	 SCS Opposite-Spin Scale   =       1.2000000000000000 [-]
	 SCS Same-Spin Energy      =      -0.1579023620984387 [Eh]
	 SCS Opposite-Spin Energy  =      -1.7966340185883269 [Eh]
	 SCS Correlation Energy    =      -1.9545363806867657 [Eh]
	 SCS Total Energy          =    -440.7552968851570654 [Eh]
	-----------------------------------------------------------

  Dipole Moment: [D]
     X:     0.1975      Y:     0.1150      Z:     0.7811     Total:     0.8139

*** Psi4 exiting successfully. Buy a developer a beer!
