                               Psi4 1.4a3.dev225

  ==> Input File <==

--------------------------------------------------------------------------
#psi4
#
memory 32 gb

molecule  {
0 1
  O       -1.2691620    -1.9635190    -0.2989340
  N       -1.5914490     0.7494560    -0.4145900
  C       -0.3130270     0.2119120    -0.1595780
  C        0.8301940     1.0305910    -0.0518670
  C       -0.1431580    -1.1878580    -0.1217090
  C        2.0898390     0.4471990     0.1357390
  C        0.6950280     2.5311170    -0.1166830
  C        1.1116310    -1.7522480     0.0999640
  C        2.2372160    -0.9348950     0.2090400
  C       -2.6427770     0.4546790     0.5677560
  H        2.9635850     1.0904280     0.2186520
  H       -1.5238420     1.7535930    -0.5485080
  H        0.3450640     2.8711750    -1.0989170
  H       -0.0074210     2.9084320     0.6355410
  H        1.6619860     3.0062270     0.0664270
  H        1.2125710    -2.8369000     0.1368280
  H        3.1713248    -1.3579691     0.3627176
  H       -2.3586210     0.7219050     1.5961240
  H       -2.8840400    -0.6056810     0.5350110
  H       -3.5330900     1.0242430     0.2900250
  H       -0.9887950    -2.8960920    -0.2836830
units angstrom
no_reorient  #important for SAPT in psi4, default
symmetry c1  #important for SAPT in psi4, default
}

set PROPERTIES_ORIGIN ["COM"]
properties('MP2/aug-cc-pvtz', properties = ['dipole'])
--------------------------------------------------------------------------

    Molecular point group: c1
  Charge       = 0
  Multiplicity = 1
  Basis Set: AUG-CC-PVTZ
    Blend: AUG-CC-PVTZ
  Basis Set: (AUG-CC-PVTZ AUX)
    Blend: AUG-CC-PVTZ-JKFIT

    Orbital Energies [Eh]
    ---------------------

    Doubly Occupied:

       1A    -20.586705     2A    -15.553844     3A    -11.294547
       4A    -11.262934     5A    -11.240171     6A    -11.239725
       7A    -11.230430     8A    -11.229161     9A    -11.225203
      10A    -11.223281    11A     -1.396374    12A     -1.223766
      13A     -1.131290    14A     -1.040998    15A     -0.995288
      16A     -0.937573    17A     -0.901291    18A     -0.823894
      19A     -0.803251    20A     -0.706652    21A     -0.693200
      22A     -0.673325    23A     -0.621401    24A     -0.609192
      25A     -0.597976    26A     -0.587748    27A     -0.575544
      28A     -0.570042    29A     -0.559700    30A     -0.536895
      31A     -0.529321    32A     -0.505050    33A     -0.485668
      34A     -0.469903    35A     -0.412879    36A     -0.317791
      37A     -0.290355

  @DF-RHF Final Energy:  -438.80033696882373

   => Energetics <=

    Nuclear Repulsion Energy =            524.4060050209643578
    One-Electron Energy =               -1636.2479408798649274
    Two-Electron Energy =                 673.0415988900768980
    Total Energy =                       -438.8003369688236717
  Basis Set: (AUG-CC-PVTZ AUX)
    Blend: AUG-CC-PVTZ-RI
    Molecular point group: c1

    Geometry (in Angstrom), charge = 0, multiplicity = 1:

       Center              X                  Y                   Z               Mass
    ------------   -----------------  -----------------  -----------------  -----------------
         O           -1.282566674712    -1.922800446116    -0.285002044026    15.994914619570
         N           -1.604853674712     0.790174553884    -0.400658044026    14.003074004430
         C           -0.326431674712     0.252630553884    -0.145646044026    12.000000000000
         C            0.816789325288     1.071309553884    -0.037935044026    12.000000000000
         C           -0.156562674712    -1.147139446116    -0.107777044026    12.000000000000
         C            2.076434325288     0.487917553884     0.149670955974    12.000000000000
         C            0.681623325288     2.571835553884    -0.102751044026    12.000000000000
         C            1.098226325288    -1.711529446116     0.113895955974    12.000000000000
         C            2.223811325288    -0.894176446116     0.222971955974    12.000000000000
         C           -2.656181674712     0.495397553884     0.581687955974    12.000000000000
         H            2.950180325288     1.131146553884     0.232583955974     1.007825032230
         H           -1.537246674712     1.794311553884    -0.534576044026     1.007825032230
         H            0.331659325288     2.911893553884    -1.084985044026     1.007825032230
         H           -0.020825674712     2.949150553884     0.649472955974     1.007825032230
         H            1.648581325288     3.046945553884     0.080358955974     1.007825032230
         H            1.199166325288    -2.796181446116     0.150759955974     1.007825032230
         H            3.157920125288    -1.317250546116     0.376649555974     1.007825032230
         H           -2.372025674712     0.762623553884     1.610055955974     1.007825032230
         H           -2.897444674712    -0.564962446116     0.548942955974     1.007825032230
         H           -3.546494674712     1.064961553884     0.303956955974     1.007825032230
         H           -1.002199674712    -2.855373446116    -0.269751044026     1.007825032230

  Basis Set: AUG-CC-PVTZ
    Blend: AUG-CC-PVTZ
  Basis Set: (AUG-CC-PVTZ AUX)
    Blend: AUG-CC-PVTZ-JKFIT
	 Reference Energy          =    -438.8003369688237285 [Eh]
	 Singles Energy            =      -0.0000000000000000 [Eh]
	 Same-Spin Energy          =      -0.4736427400964821 [Eh]
	 Opposite-Spin Energy      =      -1.4969008643168840 [Eh]
	 Correlation Energy        =      -1.9705436044133660 [Eh]
	 Total Energy              =    -440.7708805732370934 [Eh]

	 ================> DF-SCS-MP2 Energies <==================
	-----------------------------------------------------------
	 SCS Same-Spin Scale       =       0.3333333333333333 [-]
	 SCS Opposite-Spin Scale   =       1.2000000000000000 [-]
	 SCS Same-Spin Energy      =      -0.1578809133654940 [Eh]
	 SCS Opposite-Spin Energy  =      -1.7962810371802607 [Eh]
	 SCS Correlation Energy    =      -1.9541619505457546 [Eh]
	 SCS Total Energy          =    -440.7544989193694960 [Eh]
	-----------------------------------------------------------

  Dipole Moment: [D]
     X:     0.2040      Y:     0.0890      Z:     0.7806     Total:     0.8117

*** Psi4 exiting successfully. Buy a developer a beer!
