                               Psi4 1.4a3.dev225

  ==> Input File <==

--------------------------------------------------------------------------
#psi4
#
memory 32 gb

molecule  {
0 1
  O       -1.2691620    -1.9635190    -0.2989340
  N       -1.5914490     0.7494560    -0.4145900
  C       -0.3130270     0.2119120    -0.1595780
  C        0.8301940     1.0305910    -0.0518670
  C       -0.1960793    -1.3237843    -0.1202249
  C        2.0898390     0.4471990     0.1357390
  C        0.6950280     2.5311170    -0.1166830
  C        1.1116310    -1.7522480     0.0999640
  C        2.2372160    -0.9348950     0.2090400
  C       -2.6427770     0.4546790     0.5677560
  H        2.9635850     1.0904280     0.2186520
  H       -1.5238420     1.7535930    -0.5485080
  H        0.3450640     2.8711750    -1.0989170
  H       -0.0074210     2.9084320     0.6355410
  H        1.6619860     3.0062270     0.0664270
  H        1.2125710    -2.8369000     0.1368280
  H        3.2163680    -1.3783700     0.3701280
  H       -2.3586210     0.7219050     1.5961240
  H       -2.8840400    -0.6056810     0.5350110
  H       -3.5330900     1.0242430     0.2900250
  H       -0.9887950    -2.8960920    -0.2836830
units angstrom
no_reorient  #important for SAPT in psi4, default
symmetry c1  #important for SAPT in psi4, default
}

set PROPERTIES_ORIGIN ["COM"]
properties('MP2/aug-cc-pvtz', properties = ['dipole'])
--------------------------------------------------------------------------

    Molecular point group: c1
  Charge       = 0
  Multiplicity = 1
  Basis Set: AUG-CC-PVTZ
    Blend: AUG-CC-PVTZ
  Basis Set: (AUG-CC-PVTZ AUX)
    Blend: AUG-CC-PVTZ-JKFIT

    Orbital Energies [Eh]
    ---------------------

    Doubly Occupied:

       1A    -20.614148     2A    -15.553178     3A    -11.308614
       4A    -11.267750     5A    -11.241698     6A    -11.232904
       7A    -11.227006     8A    -11.225476     9A    -11.223949
      10A    -11.217674    11A     -1.470419    12A     -1.219470
      13A     -1.120090    14A     -1.036389    15A     -0.979560
      16A     -0.933662    17A     -0.898037    18A     -0.837592
      19A     -0.803916    20A     -0.720866    21A     -0.696397
      22A     -0.681787    23A     -0.630676    24A     -0.621488
      25A     -0.602966    26A     -0.589117    27A     -0.580608
      28A     -0.565475    29A     -0.561167    30A     -0.534717
      31A     -0.525219    32A     -0.507713    33A     -0.465349
      34A     -0.461306    35A     -0.410890    36A     -0.315713
      37A     -0.271350

  @DF-RHF Final Energy:  -438.77387164755032

   => Energetics <=

    Nuclear Repulsion Energy =            523.2402790640876447
    One-Electron Energy =               -1633.7196322456788948
    Two-Electron Energy =                 671.7054815340409277
    Total Energy =                       -438.7738716475503225
  Basis Set: (AUG-CC-PVTZ AUX)
    Blend: AUG-CC-PVTZ-RI
    Molecular point group: c1

    Geometry (in Angstrom), charge = 0, multiplicity = 1:

       Center              X                  Y                   Z               Mass
    ------------   -----------------  -----------------  -----------------  -----------------
         O           -1.278265226984    -1.910751809026    -0.285186438812    15.994914619570
         N           -1.600552226984     0.802223190974    -0.400842438812    14.003074004430
         C           -0.322130226984     0.264679190974    -0.145830438812    12.000000000000
         C            0.821090773016     1.083358190974    -0.038119438812    12.000000000000
         C           -0.205182526984    -1.271017109026    -0.106477338812    12.000000000000
         C            2.080735773016     0.499966190974     0.149486561188    12.000000000000
         C            0.685924773016     2.583884190974    -0.102935438812    12.000000000000
         C            1.102527773016    -1.699480809026     0.113711561188    12.000000000000
         C            2.228112773016    -0.882127809026     0.222787561188    12.000000000000
         C           -2.651880226984     0.507446190974     0.581503561188    12.000000000000
         H            2.954481773016     1.143195190974     0.232399561188     1.007825032230
         H           -1.532945226984     1.806360190974    -0.534760438812     1.007825032230
         H            0.335960773016     2.923942190974    -1.085169438812     1.007825032230
         H           -0.016524226984     2.961199190974     0.649288561188     1.007825032230
         H            1.652882773016     3.058994190974     0.080174561188     1.007825032230
         H            1.203467773016    -2.784132809026     0.150575561188     1.007825032230
         H            3.207264773016    -1.325602809026     0.383875561188     1.007825032230
         H           -2.367724226984     0.774672190974     1.609871561188     1.007825032230
         H           -2.893143226984    -0.552913809026     0.548758561188     1.007825032230
         H           -3.542193226984     1.077010190974     0.303772561188     1.007825032230
         H           -0.997898226984    -2.843324809026    -0.269935438812     1.007825032230

  Basis Set: AUG-CC-PVTZ
    Blend: AUG-CC-PVTZ
  Basis Set: (AUG-CC-PVTZ AUX)
    Blend: AUG-CC-PVTZ-JKFIT
	 Reference Energy          =    -438.7738716475503225 [Eh]
	 Singles Energy            =      -0.0000000000000000 [Eh]
	 Same-Spin Energy          =      -0.4745464619756611 [Eh]
	 Opposite-Spin Energy      =      -1.4982287234240850 [Eh]
	 Correlation Energy        =      -1.9727751853997462 [Eh]
	 Total Energy              =    -440.7466468329500913 [Eh]

	 ================> DF-SCS-MP2 Energies <==================
	-----------------------------------------------------------
	 SCS Same-Spin Scale       =       0.3333333333333333 [-]
	 SCS Opposite-Spin Scale   =       1.2000000000000000 [-]
	 SCS Same-Spin Energy      =      -0.1581821539918870 [Eh]
	 SCS Opposite-Spin Energy  =      -1.7978744681089018 [Eh]
	 SCS Correlation Energy    =      -1.9560566221007889 [Eh]
	 SCS Total Energy          =    -440.7299282696511113 [Eh]
	-----------------------------------------------------------

  Dipole Moment: [D]
     X:    -0.5230      Y:    -0.4006      Z:     0.6559     Total:     0.9296

*** Psi4 exiting successfully. Buy a developer a beer!
