                               Psi4 1.4a3.dev225

  ==> Input File <==

--------------------------------------------------------------------------
#psi4
#
memory 32 gb

molecule  {
0 1
  O       -1.2691620    -1.9635190    -0.2989340
  N       -1.5914490     0.7494560    -0.4145900
  C       -0.3130270     0.2119120    -0.1595780
  C        0.8301940     1.0305910    -0.0518670
  C       -0.1431580    -1.1878580    -0.1217090
  C        2.0898390     0.4471990     0.1357390
  C        0.6950280     2.5311170    -0.1166830
  C        1.1116310    -1.7522480     0.0999640
  C        2.2210822    -0.9466107     0.2074765
  C       -2.6427770     0.4546790     0.5677560
  H        2.9635850     1.0904280     0.2186520
  H       -1.5238420     1.7535930    -0.5485080
  H        0.3450640     2.8711750    -1.0989170
  H       -0.0074210     2.9084320     0.6355410
  H        1.6619860     3.0062270     0.0664270
  H        1.2125710    -2.8369000     0.1368280
  H        3.2163680    -1.3783700     0.3701280
  H       -2.3586210     0.7219050     1.5961240
  H       -2.8840400    -0.6056810     0.5350110
  H       -3.5330900     1.0242430     0.2900250
  H       -0.9887950    -2.8960920    -0.2836830
units angstrom
no_reorient  #important for SAPT in psi4, default
symmetry c1  #important for SAPT in psi4, default
}

set PROPERTIES_ORIGIN ["COM"]
properties('MP2/aug-cc-pvtz', properties = ['dipole'])
--------------------------------------------------------------------------

    Molecular point group: c1
  Charge       = 0
  Multiplicity = 1
  Basis Set: AUG-CC-PVTZ
    Blend: AUG-CC-PVTZ
  Basis Set: (AUG-CC-PVTZ AUX)
    Blend: AUG-CC-PVTZ-JKFIT

    Orbital Energies [Eh]
    ---------------------

    Doubly Occupied:

       1A    -20.587014     2A    -15.553614     3A    -11.294644
       4A    -11.262449     5A    -11.240683     6A    -11.239605
       7A    -11.231211     8A    -11.229326     9A    -11.229032
      10A    -11.224477    11A     -1.396617    12A     -1.223654
      13A     -1.132133    14A     -1.042631    15A     -0.992849
      16A     -0.938175    17A     -0.900791    18A     -0.821784
      19A     -0.801517    20A     -0.706739    21A     -0.692825
      22A     -0.672288    23A     -0.615945    24A     -0.606838
      25A     -0.598230    26A     -0.588224    27A     -0.575530
      28A     -0.570530    29A     -0.559711    30A     -0.537549
      31A     -0.527213    32A     -0.506962    33A     -0.481960
      34A     -0.470809    35A     -0.413289    36A     -0.319423
      37A     -0.289568

  @DF-RHF Final Energy:  -438.80070723457675

   => Energetics <=

    Nuclear Repulsion Energy =            524.3498829539519193
    One-Electron Energy =               -1636.1495058145287658
    Two-Electron Energy =                 672.9989156260000982
    Total Energy =                       -438.8007072345767483
  Basis Set: (AUG-CC-PVTZ AUX)
    Blend: AUG-CC-PVTZ-RI
    Molecular point group: c1

    Geometry (in Angstrom), charge = 0, multiplicity = 1:

       Center              X                  Y                   Z               Mass
    ------------   -----------------  -----------------  -----------------  -----------------
         O           -1.281485513772    -1.921624897821    -0.284919659443    15.994914619570
         N           -1.603772513772     0.791350102179    -0.400575659443    14.003074004430
         C           -0.325350513772     0.253806102179    -0.145563659443    12.000000000000
         C            0.817870486228     1.072485102179    -0.037852659443    12.000000000000
         C           -0.155481513772    -1.145963897821    -0.107694659443    12.000000000000
         C            2.077515486228     0.489093102179     0.149753340557    12.000000000000
         C            0.682704486228     2.573011102179    -0.102668659443    12.000000000000
         C            1.099307486228    -1.710353897821     0.113978340557    12.000000000000
         C            2.208758686228    -0.904716597821     0.221490840557    12.000000000000
         C           -2.655100513772     0.496573102179     0.581770340557    12.000000000000
         H            2.951261486228     1.132322102179     0.232666340557     1.007825032230
         H           -1.536165513772     1.795487102179    -0.534493659443     1.007825032230
         H            0.332740486228     2.913069102179    -1.084902659443     1.007825032230
         H           -0.019744513772     2.950326102179     0.649555340557     1.007825032230
         H            1.649662486228     3.048121102179     0.080441340557     1.007825032230
         H            1.200247486228    -2.795005897821     0.150842340557     1.007825032230
         H            3.204044486228    -1.336475897821     0.384142340557     1.007825032230
         H           -2.370944513772     0.763799102179     1.610138340557     1.007825032230
         H           -2.896363513772    -0.563786897821     0.549025340557     1.007825032230
         H           -3.545413513772     1.066137102179     0.304039340557     1.007825032230
         H           -1.001118513772    -2.854197897821    -0.269668659443     1.007825032230

  Basis Set: AUG-CC-PVTZ
    Blend: AUG-CC-PVTZ
  Basis Set: (AUG-CC-PVTZ AUX)
    Blend: AUG-CC-PVTZ-JKFIT
	 Reference Energy          =    -438.8007072345767483 [Eh]
	 Singles Energy            =      -0.0000000000000000 [Eh]
	 Same-Spin Energy          =      -0.4737406231916163 [Eh]
	 Opposite-Spin Energy      =      -1.4971832125772260 [Eh]
	 Correlation Energy        =      -1.9709238357688421 [Eh]
	 Total Energy              =    -440.7716310703455633 [Eh]

	 ================> DF-SCS-MP2 Energies <==================
	-----------------------------------------------------------
	 SCS Same-Spin Scale       =       0.3333333333333333 [-]
	 SCS Opposite-Spin Scale   =       1.2000000000000000 [-]
	 SCS Same-Spin Energy      =      -0.1579135410638721 [Eh]
	 SCS Opposite-Spin Energy  =      -1.7966198550926711 [Eh]
	 SCS Correlation Energy    =      -1.9545333961565432 [Eh]
	 SCS Total Energy          =    -440.7552406307332831 [Eh]
	-----------------------------------------------------------

  Dipole Moment: [D]
     X:     0.1939      Y:     0.0902      Z:     0.7781     Total:     0.8070

*** Psi4 exiting successfully. Buy a developer a beer!
