                               Psi4 1.4a3.dev225

  ==> Input File <==

--------------------------------------------------------------------------
#psi4
#
memory 32 gb

molecule  {
0 1
  O       -1.2691620    -1.9635190    -0.2989340
  N       -1.5914490     0.7494560    -0.4145900
  C       -0.3130270     0.2119120    -0.1595780
  C        0.8301940     1.0305910    -0.0518670
  C       -0.1431580    -1.1878580    -0.1217090
  C        2.0898390     0.4471990     0.1357390
  C        0.6905464     2.5808693    -0.1188321
  C        1.1116310    -1.7522480     0.0999640
  C        2.2372160    -0.9348950     0.2090400
  C       -2.6427770     0.4546790     0.5677560
  H        2.9635850     1.0904280     0.2186520
  H       -1.5238420     1.7535930    -0.5485080
  H        0.3450640     2.8711750    -1.0989170
  H       -0.0074210     2.9084320     0.6355410
  H        1.6619860     3.0062270     0.0664270
  H        1.2125710    -2.8369000     0.1368280
  H        3.2163680    -1.3783700     0.3701280
  H       -2.3586210     0.7219050     1.5961240
  H       -2.8840400    -0.6056810     0.5350110
  H       -3.5330900     1.0242430     0.2900250
  H       -0.9887950    -2.8960920    -0.2836830
units angstrom
no_reorient  #important for SAPT in psi4, default
symmetry c1  #important for SAPT in psi4, default
}

set PROPERTIES_ORIGIN ["COM"]
properties('MP2/aug-cc-pvtz', properties = ['dipole'])
--------------------------------------------------------------------------

    Molecular point group: c1
  Charge       = 0
  Multiplicity = 1
  Basis Set: AUG-CC-PVTZ
    Blend: AUG-CC-PVTZ
  Basis Set: (AUG-CC-PVTZ AUX)
    Blend: AUG-CC-PVTZ-JKFIT

    Orbital Energies [Eh]
    ---------------------

    Doubly Occupied:

       1A    -20.586803     2A    -15.553798     3A    -11.294705
       4A    -11.262961     5A    -11.242625     6A    -11.239722
       7A    -11.231419     8A    -11.230146     9A    -11.228051
      10A    -11.223817    11A     -1.396456    12A     -1.223274
      13A     -1.129793    14A     -1.035779    15A     -0.994002
      16A     -0.939506    17A     -0.900540    18A     -0.823551
      19A     -0.800433    20A     -0.704722    21A     -0.692627
      22A     -0.670971    23A     -0.617318    24A     -0.607061
      25A     -0.598443    26A     -0.588057    27A     -0.578256
      28A     -0.568055    29A     -0.560207    30A     -0.542505
      31A     -0.528351    32A     -0.502471    33A     -0.480147
      34A     -0.471410    35A     -0.412902    36A     -0.318641
      37A     -0.290448

  @DF-RHF Final Energy:  -438.79963228192446

   => Energetics <=

    Nuclear Repulsion Energy =            523.2476447928478365
    One-Electron Energy =               -1633.9546096874641989
    Two-Electron Energy =                 671.9073326126917891
    Total Energy =                       -438.7996322819244597
  Basis Set: (AUG-CC-PVTZ AUX)
    Blend: AUG-CC-PVTZ-RI
    Molecular point group: c1

    Geometry (in Angstrom), charge = 0, multiplicity = 1:

       Center              X                  Y                   Z               Mass
    ------------   -----------------  -----------------  -----------------  -----------------
         O           -1.282505518548    -1.927005654552    -0.284868397467    15.994914619570
         N           -1.604792518548     0.785969345448    -0.400524397467    14.003074004430
         C           -0.326370518548     0.248425345448    -0.145512397467    12.000000000000
         C            0.816850481452     1.067104345448    -0.037801397467    12.000000000000
         C           -0.156501518548    -1.151344654552    -0.107643397467    12.000000000000
         C            2.076495481452     0.483712345448     0.149804602533    12.000000000000
         C            0.677202881452     2.617382645448    -0.104766497467    12.000000000000
         C            1.098287481452    -1.715734654552     0.114029602533    12.000000000000
         C            2.223872481452    -0.898381654552     0.223105602533    12.000000000000
         C           -2.656120518548     0.491192345448     0.581821602533    12.000000000000
         H            2.950241481452     1.126941345448     0.232717602533     1.007825032230
         H           -1.537185518548     1.790106345448    -0.534442397467     1.007825032230
         H            0.331720481452     2.907688345448    -1.084851397467     1.007825032230
         H           -0.020764518548     2.944945345448     0.649606602533     1.007825032230
         H            1.648642481452     3.042740345448     0.080492602533     1.007825032230
         H            1.199227481452    -2.800386654552     0.150893602533     1.007825032230
         H            3.203024481452    -1.341856654552     0.384193602533     1.007825032230
         H           -2.371964518548     0.758418345448     1.610189602533     1.007825032230
         H           -2.897383518548    -0.569167654552     0.549076602533     1.007825032230
         H           -3.546433518548     1.060756345448     0.304090602533     1.007825032230
         H           -1.002138518548    -2.859578654552    -0.269617397467     1.007825032230

  Basis Set: AUG-CC-PVTZ
    Blend: AUG-CC-PVTZ
  Basis Set: (AUG-CC-PVTZ AUX)
    Blend: AUG-CC-PVTZ-JKFIT
	 Reference Energy          =    -438.7996322819244597 [Eh]
	 Singles Energy            =      -0.0000000000000000 [Eh]
	 Same-Spin Energy          =      -0.4733447147715308 [Eh]
	 Opposite-Spin Energy      =      -1.4969514616304187 [Eh]
	 Correlation Energy        =      -1.9702961764019495 [Eh]
	 Total Energy              =    -440.7699284583264330 [Eh]

	 ================> DF-SCS-MP2 Energies <==================
	-----------------------------------------------------------
	 SCS Same-Spin Scale       =       0.3333333333333333 [-]
	 SCS Opposite-Spin Scale   =       1.2000000000000000 [-]
	 SCS Same-Spin Energy      =      -0.1577815715905103 [Eh]
	 SCS Opposite-Spin Energy  =      -1.7963417539565023 [Eh]
	 SCS Correlation Energy    =      -1.9541233255470125 [Eh]
	 SCS Total Energy          =    -440.7537556074714757 [Eh]
	-----------------------------------------------------------

  Dipole Moment: [D]
     X:     0.1897      Y:     0.0947      Z:     0.7758     Total:     0.8043

*** Psi4 exiting successfully. Buy a developer a beer!
