                               Psi4 1.4a3.dev225

  ==> Input File <==

--------------------------------------------------------------------------
#psi4
#
memory 32 gb

molecule  {
0 1
  O       -1.3428869    -1.8401260    -0.3118162
  N       -1.5914490     0.7494560    -0.4145900
  C       -0.3130270     0.2119120    -0.1595780
  C        0.8301940     1.0305910    -0.0518670
  C       -0.1431580    -1.1878580    -0.1217090
  C        2.0898390     0.4471990     0.1357390
  C        0.6950280     2.5311170    -0.1166830
  C        1.1116310    -1.7522480     0.0999640
  C        2.2372160    -0.9348950     0.2090400
  C       -2.6427770     0.4546790     0.5677560
  H        2.9635850     1.0904280     0.2186520
  H       -1.5238420     1.7535930    -0.5485080
  H        0.3450640     2.8711750    -1.0989170
  H       -0.0074210     2.9084320     0.6355410
  H        1.6619860     3.0062270     0.0664270
  H        1.2125710    -2.8369000     0.1368280
  H        3.2163680    -1.3783700     0.3701280
  H       -2.3586210     0.7219050     1.5961240
  H       -2.8840400    -0.6056810     0.5350110
  H       -3.5330900     1.0242430     0.2900250
  H       -0.9887950    -2.8960920    -0.2836830
units angstrom
no_reorient  #important for SAPT in psi4, default
symmetry c1  #important for SAPT in psi4, default
}

set PROPERTIES_ORIGIN ["COM"]
properties('MP2/aug-cc-pvtz', properties = ['dipole'])
--------------------------------------------------------------------------

    Molecular point group: c1
  Charge       = 0
  Multiplicity = 1
  Basis Set: AUG-CC-PVTZ
    Blend: AUG-CC-PVTZ
  Basis Set: (AUG-CC-PVTZ AUX)
    Blend: AUG-CC-PVTZ-JKFIT

    Orbital Energies [Eh]
    ---------------------

    Doubly Occupied:

       1A    -20.601360     2A    -15.553026     3A    -11.293792
       4A    -11.259662     5A    -11.238840     6A    -11.237595
       7A    -11.233806     8A    -11.231715     9A    -11.228217
      10A    -11.223709    11A     -1.380604    12A     -1.220798
      13A     -1.130730    14A     -1.040009    15A     -0.990498
      16A     -0.937831    17A     -0.897720    18A     -0.815876
      19A     -0.797596    20A     -0.701599    21A     -0.672781
      22A     -0.670902    23A     -0.611635    24A     -0.605184
      25A     -0.596356    26A     -0.589476    27A     -0.576131
      28A     -0.570490    29A     -0.558439    30A     -0.535613
      31A     -0.525369    32A     -0.503248    33A     -0.481919
      34A     -0.468889    35A     -0.411831    36A     -0.318868
      37A     -0.289289

  @DF-RHF Final Energy:  -438.77224444740932

   => Energetics <=

    Nuclear Repulsion Energy =            524.9589320415427665
    One-Electron Energy =               -1637.4595484380101880
    Two-Electron Energy =                 673.7283719490581007
    Total Energy =                       -438.7722444474093209
  Basis Set: (AUG-CC-PVTZ AUX)
    Blend: AUG-CC-PVTZ-RI
    Molecular point group: c1

    Geometry (in Angstrom), charge = 0, multiplicity = 1:

       Center              X                  Y                   Z               Mass
    ------------   -----------------  -----------------  -----------------  -----------------
         O           -1.348020534422    -1.813654907894    -0.296435634343    15.994914619570
         N           -1.596582634422     0.775927092106    -0.399209434343    14.003074004430
         C           -0.318160634422     0.238383092106    -0.144197434343    12.000000000000
         C            0.825060365578     1.057062092106    -0.036486434343    12.000000000000
         C           -0.148291634422    -1.161386907894    -0.106328434343    12.000000000000
         C            2.084705365578     0.473670092106     0.151119565657    12.000000000000
         C            0.689894365578     2.557588092106    -0.101302434343    12.000000000000
         C            1.106497365578    -1.725776907894     0.115344565657    12.000000000000
         C            2.232082365578    -0.908423907894     0.224420565657    12.000000000000
         C           -2.647910634422     0.481150092106     0.583136565657    12.000000000000
         H            2.958451365578     1.116899092106     0.234032565657     1.007825032230
         H           -1.528975634422     1.780064092106    -0.533127434343     1.007825032230
         H            0.339930365578     2.897646092106    -1.083536434343     1.007825032230
         H           -0.012554634422     2.934903092106     0.650921565657     1.007825032230
         H            1.656852365578     3.032698092106     0.081807565657     1.007825032230
         H            1.207437365578    -2.810428907894     0.152208565657     1.007825032230
         H            3.211234365578    -1.351898907894     0.385508565657     1.007825032230
         H           -2.363754634422     0.748376092106     1.611504565657     1.007825032230
         H           -2.889173634422    -0.579209907894     0.550391565657     1.007825032230
         H           -3.538223634422     1.050714092106     0.305405565657     1.007825032230
         H           -0.993928634422    -2.869620907894    -0.268302434343     1.007825032230

  Basis Set: AUG-CC-PVTZ
    Blend: AUG-CC-PVTZ
  Basis Set: (AUG-CC-PVTZ AUX)
    Blend: AUG-CC-PVTZ-JKFIT
	 Reference Energy          =    -438.7722444474093209 [Eh]
	 Singles Energy            =      -0.0000000000000000 [Eh]
	 Same-Spin Energy          =      -0.4767537160617289 [Eh]
	 Opposite-Spin Energy      =      -1.5040499289697125 [Eh]
	 Correlation Energy        =      -1.9808036450314415 [Eh]
	 Total Energy              =    -440.7530480924407357 [Eh]

	 ================> DF-SCS-MP2 Energies <==================
	-----------------------------------------------------------
	 SCS Same-Spin Scale       =       0.3333333333333333 [-]
	 SCS Opposite-Spin Scale   =       1.2000000000000000 [-]
	 SCS Same-Spin Energy      =      -0.1589179053539096 [Eh]
	 SCS Opposite-Spin Energy  =      -1.8048599147636548 [Eh]
	 SCS Correlation Energy    =      -1.9637778201175644 [Eh]
	 SCS Total Energy          =    -440.7360222675268915 [Eh]
	-----------------------------------------------------------

  Dipole Moment: [D]
     X:     0.1947      Y:    -0.0545      Z:     0.7712     Total:     0.7972

*** Psi4 exiting successfully. Buy a developer a beer!
