                               Psi4 1.4a3.dev225

  ==> Input File <==

--------------------------------------------------------------------------
#psi4
#
memory 32 gb

molecule  {
0 1
  O       -1.2691620    -1.9635190    -0.2989340
  N       -1.5914490     0.7494560    -0.4145900
  C       -0.3130270     0.2119120    -0.1595780
  C        0.8301940     1.0305910    -0.0518670
  C       -0.1431580    -1.1878580    -0.1217090
  C        2.0898390     0.4471990     0.1357390
  C        0.6950280     2.5311170    -0.1166830
  C        1.0666119    -1.7319989     0.0920109
  C        2.2372160    -0.9348950     0.2090400
  C       -2.6427770     0.4546790     0.5677560
  H        2.9635850     1.0904280     0.2186520
  H       -1.5238420     1.7535930    -0.5485080
  H        0.3450640     2.8711750    -1.0989170
  H       -0.0074210     2.9084320     0.6355410
  H        1.6619860     3.0062270     0.0664270
  H        1.2125710    -2.8369000     0.1368280
  H        3.2163680    -1.3783700     0.3701280
  H       -2.3586210     0.7219050     1.5961240
  H       -2.8840400    -0.6056810     0.5350110
  H       -3.5330900     1.0242430     0.2900250
  H       -0.9887950    -2.8960920    -0.2836830
units angstrom
no_reorient  #important for SAPT in psi4, default
symmetry c1  #important for SAPT in psi4, default
}

set PROPERTIES_ORIGIN ["COM"]
properties('MP2/aug-cc-pvtz', properties = ['dipole'])
--------------------------------------------------------------------------

    Molecular point group: c1
  Charge       = 0
  Multiplicity = 1
  Basis Set: AUG-CC-PVTZ
    Blend: AUG-CC-PVTZ
  Basis Set: (AUG-CC-PVTZ AUX)
    Blend: AUG-CC-PVTZ-JKFIT

    Orbital Energies [Eh]
    ---------------------

    Doubly Occupied:

       1A    -20.584867     2A    -15.554840     3A    -11.289246
       4A    -11.264593     5A    -11.240257     6A    -11.238845
       7A    -11.232988     8A    -11.229278     9A    -11.229016
      10A    -11.224863    11A     -1.396051    12A     -1.224675
      13A     -1.132707    14A     -1.042031    15A     -0.996038
      16A     -0.938792    17A     -0.900081    18A     -0.822677
      19A     -0.803172    20A     -0.705402    21A     -0.692015
      22A     -0.671735    23A     -0.617012    24A     -0.607471
      25A     -0.598381    26A     -0.587707    27A     -0.574698
      28A     -0.570846    29A     -0.559925    30A     -0.535680
      31A     -0.528516    32A     -0.500759    33A     -0.486633
      34A     -0.470123    35A     -0.412701    36A     -0.322049
      37A     -0.290081

  @DF-RHF Final Energy:  -438.79820545882842

   => Energetics <=

    Nuclear Repulsion Energy =            524.8978996591554278
    One-Electron Energy =               -1637.2387085572229353
    Two-Electron Energy =                 673.5426034392390875
    Total Energy =                       -438.7982054588284200
  Basis Set: (AUG-CC-PVTZ AUX)
    Blend: AUG-CC-PVTZ-RI
    Molecular point group: c1

    Geometry (in Angstrom), charge = 0, multiplicity = 1:

       Center              X                  Y                   Z               Mass
    ------------   -----------------  -----------------  -----------------  -----------------
         O           -1.278956966033    -1.924423017375    -0.284360329659    15.994914619570
         N           -1.601243966033     0.788551982625    -0.400016329659    14.003074004430
         C           -0.322821966033     0.251007982625    -0.145004329659    12.000000000000
         C            0.820399033967     1.069686982625    -0.037293329659    12.000000000000
         C           -0.152952966033    -1.148762017375    -0.107135329659    12.000000000000
         C            2.080044033967     0.486294982625     0.150312670341    12.000000000000
         C            0.685233033967     2.570212982625    -0.102109329659    12.000000000000
         C            1.056816933967    -1.692902917375     0.106584570341    12.000000000000
         C            2.227421033967    -0.895799017375     0.223613670341    12.000000000000
         C           -2.652571966033     0.493774982625     0.582329670341    12.000000000000
         H            2.953790033967     1.129523982625     0.233225670341     1.007825032230
         H           -1.533636966033     1.792688982625    -0.533934329659     1.007825032230
         H            0.335269033967     2.910270982625    -1.084343329659     1.007825032230
         H           -0.017215966033     2.947527982625     0.650114670341     1.007825032230
         H            1.652191033967     3.045322982625     0.081000670341     1.007825032230
         H            1.202776033967    -2.797804017375     0.151401670341     1.007825032230
         H            3.206573033967    -1.339274017375     0.384701670341     1.007825032230
         H           -2.368415966033     0.761000982625     1.610697670341     1.007825032230
         H           -2.893834966033    -0.566585017375     0.549584670341     1.007825032230
         H           -3.542884966033     1.063338982625     0.304598670341     1.007825032230
         H           -0.998589966033    -2.856996017375    -0.269109329659     1.007825032230

  Basis Set: AUG-CC-PVTZ
    Blend: AUG-CC-PVTZ
  Basis Set: (AUG-CC-PVTZ AUX)
    Blend: AUG-CC-PVTZ-JKFIT
	 Reference Energy          =    -438.7982054588284200 [Eh]
	 Singles Energy            =      -0.0000000000000000 [Eh]
	 Same-Spin Energy          =      -0.4736575074652827 [Eh]
	 Opposite-Spin Energy      =      -1.4972034241169936 [Eh]
	 Correlation Energy        =      -1.9708609315822763 [Eh]
	 Total Energy              =    -440.7690663904106714 [Eh]

	 ================> DF-SCS-MP2 Energies <==================
	-----------------------------------------------------------
	 SCS Same-Spin Scale       =       0.3333333333333333 [-]
	 SCS Opposite-Spin Scale   =       1.2000000000000000 [-]
	 SCS Same-Spin Energy      =      -0.1578858358217609 [Eh]
	 SCS Opposite-Spin Energy  =      -1.7966441089403922 [Eh]
	 SCS Correlation Energy    =      -1.9545299447621531 [Eh]
	 SCS Total Energy          =    -440.7527354035905773 [Eh]
	-----------------------------------------------------------

  Dipole Moment: [D]
     X:     0.2166      Y:     0.1419      Z:     0.7860     Total:     0.8276

*** Psi4 exiting successfully. Buy a developer a beer!
