                               Psi4 1.4a3.dev225

  ==> Input File <==

--------------------------------------------------------------------------
#psi4
#
memory 32 gb

molecule  {
0 1
  O       -1.2691620    -1.9635190    -0.2989340
  N       -1.5914490     0.7494560    -0.4145900
  C       -0.3130270     0.2119120    -0.1595780
  C        0.8301940     1.0305910    -0.0518670
  C       -0.1431580    -1.1878580    -0.1217090
  C        1.9946980     0.4329227     0.1222261
  C        0.6950280     2.5311170    -0.1166830
  C        1.1116310    -1.7522480     0.0999640
  C        2.2372160    -0.9348950     0.2090400
  C       -2.6427770     0.4546790     0.5677560
  H        2.9635850     1.0904280     0.2186520
  H       -1.5238420     1.7535930    -0.5485080
  H        0.3450640     2.8711750    -1.0989170
  H       -0.0074210     2.9084320     0.6355410
  H        1.6619860     3.0062270     0.0664270
  H        1.2125710    -2.8369000     0.1368280
  H        3.2163680    -1.3783700     0.3701280
  H       -2.3586210     0.7219050     1.5961240
  H       -2.8840400    -0.6056810     0.5350110
  H       -3.5330900     1.0242430     0.2900250
  H       -0.9887950    -2.8960920    -0.2836830
units angstrom
no_reorient  #important for SAPT in psi4, default
symmetry c1  #important for SAPT in psi4, default
}

set PROPERTIES_ORIGIN ["COM"]
properties('MP2/aug-cc-pvtz', properties = ['dipole'])
--------------------------------------------------------------------------

    Molecular point group: c1
  Charge       = 0
  Multiplicity = 1
  Basis Set: AUG-CC-PVTZ
    Blend: AUG-CC-PVTZ
  Basis Set: (AUG-CC-PVTZ AUX)
    Blend: AUG-CC-PVTZ-JKFIT

    Orbital Energies [Eh]
    ---------------------

    Doubly Occupied:

       1A    -20.584903     2A    -15.554192     3A    -11.291008
       4A    -11.263413     5A    -11.239912     6A    -11.232449
       7A    -11.231678     8A    -11.230298     9A    -11.230162
      10A    -11.223073    11A     -1.394761    12A     -1.225154
      13A     -1.140651    14A     -1.046039    15A     -0.991490
      16A     -0.940681    17A     -0.903026    18A     -0.824990
      19A     -0.798923    20A     -0.710221    21A     -0.689793
      22A     -0.669805    23A     -0.619773    24A     -0.606271
      25A     -0.593730    26A     -0.587226    27A     -0.576631
      28A     -0.572144    29A     -0.559037    30A     -0.536230
      31A     -0.534105    32A     -0.492770    33A     -0.482309
      34A     -0.474042    35A     -0.412339    36A     -0.327446
      37A     -0.287432

  @DF-RHF Final Energy:  -438.78913966621070

   => Energetics <=

    Nuclear Repulsion Energy =            526.0232839606567268
    One-Electron Energy =               -1639.4686318808392116
    Two-Electron Energy =                 674.6562082539717267
    Total Energy =                       -438.7891396662107582
  Basis Set: (AUG-CC-PVTZ AUX)
    Blend: AUG-CC-PVTZ-RI
    Molecular point group: c1

    Geometry (in Angstrom), charge = 0, multiplicity = 1:

       Center              X                  Y                   Z               Mass
    ------------   -----------------  -----------------  -----------------  -----------------
         O           -1.274569418841    -1.921400749228    -0.283873638514    15.994914619570
         N           -1.596856418841     0.791574250772    -0.399529638514    14.003074004430
         C           -0.318434418841     0.254030250772    -0.144517638514    12.000000000000
         C            0.824786581159     1.072709250772    -0.036806638514    12.000000000000
         C           -0.148565418841    -1.145739749228    -0.106648638514    12.000000000000
         C            1.989290581159     0.475040950772     0.137286461486    12.000000000000
         C            0.689620581159     2.573235250772    -0.101622638514    12.000000000000
         C            1.106223581159    -1.710129749228     0.115024361486    12.000000000000
         C            2.231808581159    -0.892776749228     0.224100361486    12.000000000000
         C           -2.648184418841     0.496797250772     0.582816361486    12.000000000000
         H            2.958177581159     1.132546250772     0.233712361486     1.007825032230
         H           -1.529249418841     1.795711250772    -0.533447638514     1.007825032230
         H            0.339656581159     2.913293250772    -1.083856638514     1.007825032230
         H           -0.012828418841     2.950550250772     0.650601361486     1.007825032230
         H            1.656578581159     3.048345250772     0.081487361486     1.007825032230
         H            1.207163581159    -2.794781749228     0.151888361486     1.007825032230
         H            3.210960581159    -1.336251749228     0.385188361486     1.007825032230
         H           -2.364028418841     0.764023250772     1.611184361486     1.007825032230
         H           -2.889447418841    -0.563562749228     0.550071361486     1.007825032230
         H           -3.538497418841     1.066361250772     0.305085361486     1.007825032230
         H           -0.994202418841    -2.853973749228    -0.268622638514     1.007825032230

  Basis Set: AUG-CC-PVTZ
    Blend: AUG-CC-PVTZ
  Basis Set: (AUG-CC-PVTZ AUX)
    Blend: AUG-CC-PVTZ-JKFIT
	 Reference Energy          =    -438.7891396662107013 [Eh]
	 Singles Energy            =      -0.0000000000000000 [Eh]
	 Same-Spin Energy          =      -0.4741152545346494 [Eh]
	 Opposite-Spin Energy      =      -1.4977858053786721 [Eh]
	 Correlation Energy        =      -1.9719010599133215 [Eh]
	 Total Energy              =    -440.7610407261240084 [Eh]

	 ================> DF-SCS-MP2 Energies <==================
	-----------------------------------------------------------
	 SCS Same-Spin Scale       =       0.3333333333333333 [-]
	 SCS Opposite-Spin Scale   =       1.2000000000000000 [-]
	 SCS Same-Spin Energy      =      -0.1580384181782165 [Eh]
	 SCS Opposite-Spin Energy  =      -1.7973429664544065 [Eh]
	 SCS Correlation Energy    =      -1.9553813846326229 [Eh]
	 SCS Total Energy          =    -440.7445210508433320 [Eh]
	-----------------------------------------------------------

  Dipole Moment: [D]
     X:     0.1752      Y:     0.0899      Z:     0.7782     Total:     0.8027

*** Psi4 exiting successfully. Buy a developer a beer!
