                               Psi4 1.4a3.dev225

  ==> Input File <==

--------------------------------------------------------------------------
#psi4
#
memory 32 gb

molecule  {
0 1
  O       -1.2691620    -1.9635190    -0.2989340
  N       -1.5914490     0.7494560    -0.4145900
  C       -0.3130270     0.2119120    -0.1595780
  C        0.8301940     1.0305910    -0.0518670
  C       -0.1431580    -1.1878580    -0.1217090
  C        2.0898390     0.4471990     0.1357390
  C        0.6950280     2.5311170    -0.1166830
  C        0.9315545    -1.6712516     0.0681514
  C        2.2372160    -0.9348950     0.2090400
  C       -2.6427770     0.4546790     0.5677560
  H        2.9635850     1.0904280     0.2186520
  H       -1.5238420     1.7535930    -0.5485080
  H        0.3450640     2.8711750    -1.0989170
  H       -0.0074210     2.9084320     0.6355410
  H        1.6619860     3.0062270     0.0664270
  H        1.2125710    -2.8369000     0.1368280
  H        3.2163680    -1.3783700     0.3701280
  H       -2.3586210     0.7219050     1.5961240
  H       -2.8840400    -0.6056810     0.5350110
  H       -3.5330900     1.0242430     0.2900250
  H       -0.9887950    -2.8960920    -0.2836830
units angstrom
no_reorient  #important for SAPT in psi4, default
symmetry c1  #important for SAPT in psi4, default
}

set PROPERTIES_ORIGIN ["COM"]
properties('MP2/aug-cc-pvtz', properties = ['dipole'])
--------------------------------------------------------------------------

    Molecular point group: c1
  Charge       = 0
  Multiplicity = 1
  Basis Set: AUG-CC-PVTZ
    Blend: AUG-CC-PVTZ
  Basis Set: (AUG-CC-PVTZ AUX)
    Blend: AUG-CC-PVTZ-JKFIT

    Orbital Energies [Eh]
    ---------------------

    Doubly Occupied:

       1A    -20.577763     2A    -15.557578     3A    -11.269316
       4A    -11.267300     5A    -11.241515     6A    -11.238548
       7A    -11.234389     8A    -11.228265     9A    -11.228180
      10A    -11.222931    11A     -1.394634    12A     -1.227190
      13A     -1.142261    14A     -1.054729    15A     -0.997760
      16A     -0.943568    17A     -0.896592    18A     -0.826053
      19A     -0.803604    20A     -0.701348    21A     -0.688378
      22A     -0.674011    23A     -0.616575    24A     -0.609377
      25A     -0.599432    26A     -0.592231    27A     -0.574037
      28A     -0.572084    29A     -0.557925    30A     -0.531655
      31A     -0.528951    32A     -0.498821    33A     -0.471935
      34A     -0.465932    35A     -0.412366    36A     -0.343563
      37A     -0.284980

  @DF-RHF Final Energy:  -438.73885412748155

   => Energetics <=

    Nuclear Repulsion Energy =            527.4887169095635500
    One-Electron Energy =               -1642.3035862911251570
    Two-Electron Energy =                 676.0760152540799481
    Total Energy =                       -438.7388541274815452
  Basis Set: (AUG-CC-PVTZ AUX)
    Blend: AUG-CC-PVTZ-RI
    Molecular point group: c1

    Geometry (in Angstrom), charge = 0, multiplicity = 1:

       Center              X                  Y                   Z               Mass
    ------------   -----------------  -----------------  -----------------  -----------------
         O           -1.267134375186    -1.929740685810    -0.282271728025    15.994914619570
         N           -1.589421375186     0.783234314190    -0.397927728025    14.003074004430
         C           -0.310999375186     0.245690314190    -0.142915728025    12.000000000000
         C            0.832221624814     1.064369314190    -0.035204728025    12.000000000000
         C           -0.141130375186    -1.154079685810    -0.105046728025    12.000000000000
         C            2.091866624814     0.480977314190     0.152401271975    12.000000000000
         C            0.697055624814     2.564895314190    -0.100020728025    12.000000000000
         C            0.933582124814    -1.637473285810     0.084813671975    12.000000000000
         C            2.239243624814    -0.901116685810     0.225702271975    12.000000000000
         C           -2.640749375186     0.488457314190     0.584418271975    12.000000000000
         H            2.965612624814     1.124206314190     0.235314271975     1.007825032230
         H           -1.521814375186     1.787371314190    -0.531845728025     1.007825032230
         H            0.347091624814     2.904953314190    -1.082254728025     1.007825032230
         H           -0.005393375186     2.942210314190     0.652203271975     1.007825032230
         H            1.664013624814     3.040005314190     0.083089271975     1.007825032230
         H            1.214598624814    -2.803121685810     0.153490271975     1.007825032230
         H            3.218395624814    -1.344591685810     0.386790271975     1.007825032230
         H           -2.356593375186     0.755683314190     1.612786271975     1.007825032230
         H           -2.882012375186    -0.571902685810     0.551673271975     1.007825032230
         H           -3.531062375186     1.058021314190     0.306687271975     1.007825032230
         H           -0.986767375186    -2.862313685810    -0.267020728025     1.007825032230

  Basis Set: AUG-CC-PVTZ
    Blend: AUG-CC-PVTZ
  Basis Set: (AUG-CC-PVTZ AUX)
    Blend: AUG-CC-PVTZ-JKFIT
	 Reference Energy          =    -438.7388541274815452 [Eh]
	 Singles Energy            =      -0.0000000000000000 [Eh]
	 Same-Spin Energy          =      -0.4731089465938344 [Eh]
	 Opposite-Spin Energy      =      -1.4983949190992993 [Eh]
	 Correlation Energy        =      -1.9715038656931339 [Eh]
	 Total Energy              =    -440.7103579931746822 [Eh]

	 ================> DF-SCS-MP2 Energies <==================
	-----------------------------------------------------------
	 SCS Same-Spin Scale       =       0.3333333333333333 [-]
	 SCS Opposite-Spin Scale   =       1.2000000000000000 [-]
	 SCS Same-Spin Energy      =      -0.1577029821979448 [Eh]
	 SCS Opposite-Spin Energy  =      -1.7980739029191593 [Eh]
	 SCS Correlation Energy    =      -1.9557768851171040 [Eh]
	 SCS Total Energy          =    -440.6946310125986770 [Eh]
	-----------------------------------------------------------

  Dipole Moment: [D]
     X:     0.3562      Y:     0.2953      Z:     0.8165     Total:     0.9385

*** Psi4 exiting successfully. Buy a developer a beer!
