                               Psi4 1.4a3.dev225

  ==> Input File <==

--------------------------------------------------------------------------
#psi4
#
memory 32 gb

molecule  {
0 1
  O       -1.2691620    -1.9635190    -0.2989340
  N       -1.5914490     0.7494560    -0.4145900
  C       -0.3130270     0.2119120    -0.1595780
  C        0.8301940     1.0305910    -0.0518670
  C       -0.1431580    -1.1878580    -0.1217090
  C        2.0898390     0.4471990     0.1357390
  C        0.6950280     2.5311170    -0.1166830
  C        1.1116310    -1.7522480     0.0999640
  C        2.2372160    -0.9348950     0.2090400
  C       -2.6427770     0.4546790     0.5677560
  H        2.9635850     1.0904280     0.2186520
  H       -1.5238420     1.7535930    -0.5485080
  H        0.3450640     2.8711750    -1.0989170
  H       -0.0074210     2.9084320     0.6355410
  H        1.6619860     3.0062270     0.0664270
  H        1.2125710    -2.8369000     0.1368280
  H        3.2163680    -1.3783700     0.3701280
  H       -2.3586210     0.7219050     1.5961240
  H       -2.8840400    -0.6056810     0.5350110
  H       -3.5330900     1.0242430     0.2900250
  H       -0.9887950    -2.8960920    -0.2836830
units angstrom
no_reorient  #important for SAPT in psi4, default
symmetry c1  #important for SAPT in psi4, default
}

set PROPERTIES_ORIGIN ["COM"]
properties('MP2/aug-cc-pvtz', properties = ['dipole'])
--------------------------------------------------------------------------

    Molecular point group: c1
  Charge       = 0
  Multiplicity = 1
  Basis Set: AUG-CC-PVTZ
    Blend: AUG-CC-PVTZ
  Basis Set: (AUG-CC-PVTZ AUX)
    Blend: AUG-CC-PVTZ-JKFIT

    Orbital Energies [Eh]
    ---------------------

    Doubly Occupied:

       1A    -20.586933     2A    -15.553954     3A    -11.294857
       4A    -11.263080     5A    -11.240487     6A    -11.239816
       7A    -11.231553     8A    -11.230317     9A    -11.229352
      10A    -11.223866    11A     -1.396586    12A     -1.223899
      13A     -1.131112    14A     -1.040803    15A     -0.994255
      16A     -0.937817    17A     -0.900655    18A     -0.822778
      19A     -0.801083    20A     -0.706371    21A     -0.692999
      22A     -0.671565    23A     -0.617373    24A     -0.607847
      25A     -0.598172    26A     -0.587859    27A     -0.575575
      28A     -0.570248    29A     -0.559818    30A     -0.536362
      31A     -0.528221    32A     -0.505156    33A     -0.484378
      34A     -0.470178    35A     -0.413036    36A     -0.318066
      37A     -0.290530

  @DF-RHF Final Energy:  -438.80111922953517

   => Energetics <=

    Nuclear Repulsion Energy =            524.1353252715525741
    One-Electron Energy =               -1635.7189742175660285
    Two-Electron Energy =                 672.7825297164782796
    Total Energy =                       -438.8011192295351748
  Basis Set: (AUG-CC-PVTZ AUX)
    Blend: AUG-CC-PVTZ-RI
    Molecular point group: c1

    Geometry (in Angstrom), charge = 0, multiplicity = 1:

       Center              X                  Y                   Z               Mass
    ------------   -----------------  -----------------  -----------------  -----------------
         O           -1.282897826731    -1.922650461230    -0.285056524367    15.994914619570
         N           -1.605184826731     0.790324538770    -0.400712524367    14.003074004430
         C           -0.326762826731     0.252780538770    -0.145700524367    12.000000000000
         C            0.816458173269     1.071459538770    -0.037989524367    12.000000000000
         C           -0.156893826731    -1.146989461230    -0.107831524367    12.000000000000
         C            2.076103173269     0.488067538770     0.149616475633    12.000000000000
         C            0.681292173269     2.571985538770    -0.102805524367    12.000000000000
         C            1.097895173269    -1.711379461230     0.113841475633    12.000000000000
         C            2.223480173269    -0.894026461230     0.222917475633    12.000000000000
         C           -2.656512826731     0.495547538770     0.581633475633    12.000000000000
         H            2.949849173269     1.131296538770     0.232529475633     1.007825032230
         H           -1.537577826731     1.794461538770    -0.534630524367     1.007825032230
         H            0.331328173269     2.912043538770    -1.085039524367     1.007825032230
         H           -0.021156826731     2.949300538770     0.649418475633     1.007825032230
         H            1.648250173269     3.047095538770     0.080304475633     1.007825032230
         H            1.198835173269    -2.796031461230     0.150705475633     1.007825032230
         H            3.202632173269    -1.337501461230     0.384005475633     1.007825032230
         H           -2.372356826731     0.762773538770     1.610001475633     1.007825032230
         H           -2.897775826731    -0.564812461230     0.548888475633     1.007825032230
         H           -3.546825826731     1.065111538770     0.303902475633     1.007825032230
         H           -1.002530826731    -2.855223461230    -0.269805524367     1.007825032230

  Basis Set: AUG-CC-PVTZ
    Blend: AUG-CC-PVTZ
  Basis Set: (AUG-CC-PVTZ AUX)
    Blend: AUG-CC-PVTZ-JKFIT
	 Reference Energy          =    -438.8011192295351748 [Eh]
	 Singles Energy            =      -0.0000000000000000 [Eh]
	 Same-Spin Energy          =      -0.4737217962611319 [Eh]
	 Opposite-Spin Energy      =      -1.4972361866350747 [Eh]
	 Correlation Energy        =      -1.9709579828962065 [Eh]
	 Total Energy              =    -440.7720772124313839 [Eh]

	 ================> DF-SCS-MP2 Energies <==================
	-----------------------------------------------------------
	 SCS Same-Spin Scale       =       0.3333333333333333 [-]
	 SCS Opposite-Spin Scale   =       1.2000000000000000 [-]
	 SCS Same-Spin Energy      =      -0.1579072654203773 [Eh]
	 SCS Opposite-Spin Energy  =      -1.7966834239620897 [Eh]
	 SCS Correlation Energy    =      -1.9545906893824669 [Eh]
	 SCS Total Energy          =    -440.7557099189176597 [Eh]
	-----------------------------------------------------------

  Dipole Moment: [D]
     X:     0.1866      Y:     0.0978      Z:     0.7781     Total:     0.8062

*** Psi4 exiting successfully. Buy a developer a beer!
