                               Psi4 1.4a3.dev225

  ==> Input File <==

--------------------------------------------------------------------------
#psi4
#
memory 32 gb

molecule  {
0 1
  O       -1.2691620    -1.9635190    -0.2989340
  N       -1.5914490     0.7494560    -0.4145900
  C       -0.3130270     0.2119120    -0.1595780
  C        0.8301940     1.0305910    -0.0518670
  C       -0.1431580    -1.1878580    -0.1217090
  C        2.1797621     0.4055520     0.1491318
  C        0.6950280     2.5311170    -0.1166830
  C        1.1116310    -1.7522480     0.0999640
  C        2.2372160    -0.9348950     0.2090400
  C       -2.6427770     0.4546790     0.5677560
  H        2.9635850     1.0904280     0.2186520
  H       -1.5238420     1.7535930    -0.5485080
  H        0.3450640     2.8711750    -1.0989170
  H       -0.0074210     2.9084320     0.6355410
  H        1.6619860     3.0062270     0.0664270
  H        1.2125710    -2.8369000     0.1368280
  H        3.2163680    -1.3783700     0.3701280
  H       -2.3586210     0.7219050     1.5961240
  H       -2.8840400    -0.6056810     0.5350110
  H       -3.5330900     1.0242430     0.2900250
  H       -0.9887950    -2.8960920    -0.2836830
units angstrom
no_reorient  #important for SAPT in psi4, default
symmetry c1  #important for SAPT in psi4, default
}

set PROPERTIES_ORIGIN ["COM"]
properties('MP2/aug-cc-pvtz', properties = ['dipole'])
--------------------------------------------------------------------------

    Molecular point group: c1
  Charge       = 0
  Multiplicity = 1
  Basis Set: AUG-CC-PVTZ
    Blend: AUG-CC-PVTZ
  Basis Set: (AUG-CC-PVTZ AUX)
    Blend: AUG-CC-PVTZ-JKFIT

    Orbital Energies [Eh]
    ---------------------

    Doubly Occupied:

       1A    -20.588844     2A    -15.553927     3A    -11.298871
       4A    -11.263252     5A    -11.248340     6A    -11.239979
       7A    -11.230029     8A    -11.228591     9A    -11.226475
      10A    -11.223784    11A     -1.398369    12A     -1.223401
      13A     -1.127426    14A     -1.035715    15A     -1.001135
      16A     -0.937640    17A     -0.898471    18A     -0.824444
      19A     -0.798315    20A     -0.705483    21A     -0.696303
      22A     -0.670867    23A     -0.623283    24A     -0.607961
      25A     -0.600427    26A     -0.588069    27A     -0.574975
      28A     -0.567818    29A     -0.560302    30A     -0.540528
      31A     -0.522060    32A     -0.515300    33A     -0.473791
      34A     -0.468675    35A     -0.414565    36A     -0.307504
      37A     -0.298147

  @DF-RHF Final Energy:  -438.78997388415996

   => Energetics <=

    Nuclear Repulsion Energy =            522.8454539723745711
    One-Electron Energy =               -1633.1047259697431855
    Two-Electron Energy =                 671.4692981132086516
    Total Energy =                       -438.7899738841599628
  Basis Set: (AUG-CC-PVTZ AUX)
    Blend: AUG-CC-PVTZ-RI
    Molecular point group: c1

    Geometry (in Angstrom), charge = 0, multiplicity = 1:

       Center              X                  Y                   Z               Mass
    ------------   -----------------  -----------------  -----------------  -----------------
         O           -1.290769472556    -1.919004785828    -0.286228896964    15.994914619570
         N           -1.613056472556     0.793970214172    -0.401884896964    14.003074004430
         C           -0.334634472556     0.256426214172    -0.146872896964    12.000000000000
         C            0.808586527444     1.075105214172    -0.039161896964    12.000000000000
         C           -0.164765472556    -1.143343785828    -0.109003896964    12.000000000000
         C            2.158154627444     0.450066214172     0.161836903036    12.000000000000
         C            0.673420527444     2.575631214172    -0.103977896964    12.000000000000
         C            1.090023527444    -1.707733785828     0.112669103036    12.000000000000
         C            2.215608527444    -0.890380785828     0.221745103036    12.000000000000
         C           -2.664384472556     0.499193214172     0.580461103036    12.000000000000
         H            2.941977527444     1.134942214172     0.231357103036     1.007825032230
         H           -1.545449472556     1.798107214172    -0.535802896964     1.007825032230
         H            0.323456527444     2.915689214172    -1.086211896964     1.007825032230
         H           -0.029028472556     2.952946214172     0.648246103036     1.007825032230
         H            1.640378527444     3.050741214172     0.079132103036     1.007825032230
         H            1.190963527444    -2.792385785828     0.149533103036     1.007825032230
         H            3.194760527444    -1.333855785828     0.382833103036     1.007825032230
         H           -2.380228472556     0.766419214172     1.608829103036     1.007825032230
         H           -2.905647472556    -0.561166785828     0.547716103036     1.007825032230
         H           -3.554697472556     1.068757214172     0.302730103036     1.007825032230
         H           -1.010402472556    -2.851577785828    -0.270977896964     1.007825032230

  Basis Set: AUG-CC-PVTZ
    Blend: AUG-CC-PVTZ
  Basis Set: (AUG-CC-PVTZ AUX)
    Blend: AUG-CC-PVTZ-JKFIT
	 Reference Energy          =    -438.7899738841599628 [Eh]
	 Singles Energy            =      -0.0000000000000000 [Eh]
	 Same-Spin Energy          =      -0.4732767114314531 [Eh]
	 Opposite-Spin Energy      =      -1.4975344084133413 [Eh]
	 Correlation Energy        =      -1.9708111198447944 [Eh]
	 Total Energy              =    -440.7607850040047310 [Eh]

	 ================> DF-SCS-MP2 Energies <==================
	-----------------------------------------------------------
	 SCS Same-Spin Scale       =       0.3333333333333333 [-]
	 SCS Opposite-Spin Scale   =       1.2000000000000000 [-]
	 SCS Same-Spin Energy      =      -0.1577589038104844 [Eh]
	 SCS Opposite-Spin Energy  =      -1.7970412900960095 [Eh]
	 SCS Correlation Energy    =      -1.9548001939064938 [Eh]
	 SCS Total Energy          =    -440.7447740780664844 [Eh]
	-----------------------------------------------------------

  Dipole Moment: [D]
     X:     0.1614      Y:     0.1064      Z:     0.7741     Total:     0.7978

*** Psi4 exiting successfully. Buy a developer a beer!
