                               Psi4 1.4a3.dev225

  ==> Input File <==

--------------------------------------------------------------------------
#psi4
#
memory 32 gb

molecule  {
0 1
  O       -1.2691620    -1.9635190    -0.2989340
  N       -1.5914490     0.7494560    -0.4145900
  C       -0.3130270     0.2119120    -0.1595780
  C        0.8301940     1.0305910    -0.0518670
  C       -0.1431580    -1.1878580    -0.1217090
  C        1.9099928     0.5304930     0.1089535
  C        0.6950280     2.5311170    -0.1166830
  C        1.1116310    -1.7522480     0.0999640
  C        2.2372160    -0.9348950     0.2090400
  C       -2.6427770     0.4546790     0.5677560
  H        2.9635850     1.0904280     0.2186520
  H       -1.5238420     1.7535930    -0.5485080
  H        0.3450640     2.8711750    -1.0989170
  H       -0.0074210     2.9084320     0.6355410
  H        1.6619860     3.0062270     0.0664270
  H        1.2125710    -2.8369000     0.1368280
  H        3.2163680    -1.3783700     0.3701280
  H       -2.3586210     0.7219050     1.5961240
  H       -2.8840400    -0.6056810     0.5350110
  H       -3.5330900     1.0242430     0.2900250
  H       -0.9887950    -2.8960920    -0.2836830
units angstrom
no_reorient  #important for SAPT in psi4, default
symmetry c1  #important for SAPT in psi4, default
}

set PROPERTIES_ORIGIN ["COM"]
properties('MP2/aug-cc-pvtz', properties = ['dipole'])
--------------------------------------------------------------------------

    Molecular point group: c1
  Charge       = 0
  Multiplicity = 1
  Basis Set: AUG-CC-PVTZ
    Blend: AUG-CC-PVTZ
  Basis Set: (AUG-CC-PVTZ AUX)
    Blend: AUG-CC-PVTZ-JKFIT

    Orbital Energies [Eh]
    ---------------------

    Doubly Occupied:

       1A    -20.583793     2A    -15.554165     3A    -11.287373
       4A    -11.262657     5A    -11.240459     6A    -11.239504
       7A    -11.235682     8A    -11.228247     9A    -11.221223
      10A    -11.214833    11A     -1.393526    12A     -1.226408
      13A     -1.149550    14A     -1.055164    15A     -0.981870
      16A     -0.943530    17A     -0.903017    18A     -0.823178
      19A     -0.801888    20A     -0.709659    21A     -0.689549
      22A     -0.667636    23A     -0.616636    24A     -0.607823
      25A     -0.590768    26A     -0.587207    27A     -0.581619
      28A     -0.574199    29A     -0.559172    30A     -0.541573
      31A     -0.534081    32A     -0.497721    33A     -0.478991
      34A     -0.452008    35A     -0.409089    36A     -0.348979
      37A     -0.276789

  @DF-RHF Final Energy:  -438.73926803043071

   => Energetics <=

    Nuclear Repulsion Energy =            527.2096172229410058
    One-Electron Energy =               -1641.7586470460812507
    Two-Electron Energy =                 675.8097617927095371
    Total Energy =                       -438.7392680304307078
  Basis Set: (AUG-CC-PVTZ AUX)
    Blend: AUG-CC-PVTZ-RI
    Molecular point group: c1

    Geometry (in Angstrom), charge = 0, multiplicity = 1:

       Center              X                  Y                   Z               Mass
    ------------   -----------------  -----------------  -----------------  -----------------
         O           -1.267154535079    -1.929941812033    -0.282711787929    15.994914619570
         N           -1.589441535079     0.783033187967    -0.398367787929    14.003074004430
         C           -0.311019535079     0.245489187967    -0.143355787929    12.000000000000
         C            0.832201464921     1.064168187967    -0.035644787929    12.000000000000
         C           -0.141150535079    -1.154280812033    -0.105486787929    12.000000000000
         C            1.912000264921     0.564070187967     0.125175712071    12.000000000000
         C            0.697035464921     2.564694187967    -0.100460787929    12.000000000000
         C            1.113638464921    -1.718670812033     0.116186212071    12.000000000000
         C            2.239223464921    -0.901317812033     0.225262212071    12.000000000000
         C           -2.640769535079     0.488256187967     0.583978212071    12.000000000000
         H            2.965592464921     1.124005187967     0.234874212071     1.007825032230
         H           -1.521834535079     1.787170187967    -0.532285787929     1.007825032230
         H            0.347071464921     2.904752187967    -1.082694787929     1.007825032230
         H           -0.005413535079     2.942009187967     0.651763212071     1.007825032230
         H            1.663993464921     3.039804187967     0.082649212071     1.007825032230
         H            1.214578464921    -2.803322812033     0.153050212071     1.007825032230
         H            3.218375464921    -1.344792812033     0.386350212071     1.007825032230
         H           -2.356613535079     0.755482187967     1.612346212071     1.007825032230
         H           -2.882032535079    -0.572103812033     0.551233212071     1.007825032230
         H           -3.531082535079     1.057820187967     0.306247212071     1.007825032230
         H           -0.986787535079    -2.862514812033    -0.267460787929     1.007825032230

  Basis Set: AUG-CC-PVTZ
    Blend: AUG-CC-PVTZ
  Basis Set: (AUG-CC-PVTZ AUX)
    Blend: AUG-CC-PVTZ-JKFIT
	 Reference Energy          =    -438.7392680304307078 [Eh]
	 Singles Energy            =      -0.0000000000000000 [Eh]
	 Same-Spin Energy          =      -0.4737127896836254 [Eh]
	 Opposite-Spin Energy      =      -1.4994552152907064 [Eh]
	 Correlation Energy        =      -1.9731680049743319 [Eh]
	 Total Energy              =    -440.7124360354050623 [Eh]

	 ================> DF-SCS-MP2 Energies <==================
	-----------------------------------------------------------
	 SCS Same-Spin Scale       =       0.3333333333333333 [-]
	 SCS Opposite-Spin Scale   =       1.2000000000000000 [-]
	 SCS Same-Spin Energy      =      -0.1579042632278751 [Eh]
	 SCS Opposite-Spin Energy  =      -1.7993462583488475 [Eh]
	 SCS Correlation Energy    =      -1.9572505215767226 [Eh]
	 SCS Total Energy          =    -440.6965185520074328 [Eh]
	-----------------------------------------------------------

  Dipole Moment: [D]
     X:     0.2238      Y:     0.0526      Z:     0.7849     Total:     0.8179

*** Psi4 exiting successfully. Buy a developer a beer!
