                               Psi4 1.4a3.dev225

  ==> Input File <==

--------------------------------------------------------------------------
#psi4
#
memory 32 gb

molecule  {
0 1
  O       -1.2691620    -1.9635190    -0.2989340
  N       -1.5914490     0.7494560    -0.4145900
  C       -0.3130270     0.2119120    -0.1595780
  C        0.8301940     1.0305910    -0.0518670
  C       -0.1431580    -1.1878580    -0.1217090
  C        2.0898390     0.4471990     0.1357390
  C        0.7129546     2.3321076    -0.1080867
  C        1.1116310    -1.7522480     0.0999640
  C        2.2372160    -0.9348950     0.2090400
  C       -2.6427770     0.4546790     0.5677560
  H        2.9635850     1.0904280     0.2186520
  H       -1.5238420     1.7535930    -0.5485080
  H        0.3450640     2.8711750    -1.0989170
  H       -0.0074210     2.9084320     0.6355410
  H        1.6619860     3.0062270     0.0664270
  H        1.2125710    -2.8369000     0.1368280
  H        3.2163680    -1.3783700     0.3701280
  H       -2.3586210     0.7219050     1.5961240
  H       -2.8840400    -0.6056810     0.5350110
  H       -3.5330900     1.0242430     0.2900250
  H       -0.9887950    -2.8960920    -0.2836830
units angstrom
no_reorient  #important for SAPT in psi4, default
symmetry c1  #important for SAPT in psi4, default
}

set PROPERTIES_ORIGIN ["COM"]
properties('MP2/aug-cc-pvtz', properties = ['dipole'])
--------------------------------------------------------------------------

    Molecular point group: c1
  Charge       = 0
  Multiplicity = 1
  Basis Set: AUG-CC-PVTZ
    Blend: AUG-CC-PVTZ
  Basis Set: (AUG-CC-PVTZ AUX)
    Blend: AUG-CC-PVTZ-JKFIT

    Orbital Energies [Eh]
    ---------------------

    Doubly Occupied:

       1A    -20.587745     2A    -15.555066     3A    -11.295885
       4A    -11.264723     5A    -11.240482     6A    -11.240175
       7A    -11.232820     8A    -11.231450     9A    -11.227816
      10A    -11.225029    11A     -1.397429    12A     -1.228319
      13A     -1.142030    14A     -1.068206    15A     -0.995975
      16A     -0.933877    17A     -0.901211    18A     -0.816839
      19A     -0.804780    20A     -0.715629    21A     -0.695498
      22A     -0.675078    23A     -0.625229    24A     -0.618062
      25A     -0.601567    26A     -0.591210    27A     -0.588642
      28A     -0.566184    29A     -0.550945    30A     -0.535033
      31A     -0.516104    32A     -0.504091    33A     -0.472588
      34A     -0.460304    35A     -0.413930    36A     -0.312938
      37A     -0.290782

  @DF-RHF Final Energy:  -438.74886209712162

   => Energetics <=

    Nuclear Repulsion Energy =            528.0256046349987855
    One-Electron Energy =               -1643.3015914237553261
    Two-Electron Energy =                 676.5271246916350947
    Total Energy =                       -438.7488620971215596
  Basis Set: (AUG-CC-PVTZ AUX)
    Blend: AUG-CC-PVTZ-RI
    Molecular point group: c1

    Geometry (in Angstrom), charge = 0, multiplicity = 1:

       Center              X                  Y                   Z               Mass
    ------------   -----------------  -----------------  -----------------  -----------------
         O           -1.284467076968    -1.905229670434    -0.285809023214    15.994914619570
         N           -1.606754076968     0.807745329566    -0.401465023214    14.003074004430
         C           -0.328332076968     0.270201329566    -0.146453023214    12.000000000000
         C            0.814888923032     1.088880329566    -0.038742023214    12.000000000000
         C           -0.158463076968    -1.129568670434    -0.108584023214    12.000000000000
         C            2.074533923032     0.505488329566     0.148863976786    12.000000000000
         C            0.697649523032     2.390396929566    -0.094961723214    12.000000000000
         C            1.096325923032    -1.693958670434     0.113088976786    12.000000000000
         C            2.221910923032    -0.876605670434     0.222164976786    12.000000000000
         C           -2.658082076968     0.512968329566     0.580880976786    12.000000000000
         H            2.948279923032     1.148717329566     0.231776976786     1.007825032230
         H           -1.539147076968     1.811882329566    -0.535383023214     1.007825032230
         H            0.329758923032     2.929464329566    -1.085792023214     1.007825032230
         H           -0.022726076968     2.966721329566     0.648665976786     1.007825032230
         H            1.646680923032     3.064516329566     0.079551976786     1.007825032230
         H            1.197265923032    -2.778610670434     0.149952976786     1.007825032230
         H            3.201062923032    -1.320080670434     0.383252976786     1.007825032230
         H           -2.373926076968     0.780194329566     1.609248976786     1.007825032230
         H           -2.899345076968    -0.547391670434     0.548135976786     1.007825032230
         H           -3.548395076968     1.082532329566     0.303149976786     1.007825032230
         H           -1.004100076968    -2.837802670434    -0.270558023214     1.007825032230

  Basis Set: AUG-CC-PVTZ
    Blend: AUG-CC-PVTZ
  Basis Set: (AUG-CC-PVTZ AUX)
    Blend: AUG-CC-PVTZ-JKFIT
	 Reference Energy          =    -438.7488620971216164 [Eh]
	 Singles Energy            =      -0.0000000000000000 [Eh]
	 Same-Spin Energy          =      -0.4776256427416050 [Eh]
	 Opposite-Spin Energy      =      -1.5022429071273615 [Eh]
	 Correlation Energy        =      -1.9798685498689665 [Eh]
	 Total Energy              =    -440.7287306469905843 [Eh]

	 ================> DF-SCS-MP2 Energies <==================
	-----------------------------------------------------------
	 SCS Same-Spin Scale       =       0.3333333333333333 [-]
	 SCS Opposite-Spin Scale   =       1.2000000000000000 [-]
	 SCS Same-Spin Energy      =      -0.1592085475805350 [Eh]
	 SCS Opposite-Spin Energy  =      -1.8026914885528338 [Eh]
	 SCS Correlation Energy    =      -1.9619000361333687 [Eh]
	 SCS Total Energy          =    -440.7107621332550025 [Eh]
	-----------------------------------------------------------

  Dipole Moment: [D]
     X:     0.1722      Y:     0.0076      Z:     0.7963     Total:     0.8148

*** Psi4 exiting successfully. Buy a developer a beer!
