                               Psi4 1.4a3.dev225

  ==> Input File <==

--------------------------------------------------------------------------
#psi4
#
memory 32 gb

molecule  {
0 1
  O       -1.2691620    -1.9635190    -0.2989340
  N       -1.5914490     0.7494560    -0.4145900
  C       -0.3130270     0.2119120    -0.1595780
  C        0.8301940     1.0305910    -0.0518670
  C       -0.1431580    -1.1878580    -0.1217090
  C        2.0898390     0.4471990     0.1357390
  C        0.6950280     2.5311170    -0.1166830
  C        1.2917075    -1.8332444     0.1317766
  C        2.2372160    -0.9348950     0.2090400
  C       -2.6427770     0.4546790     0.5677560
  H        2.9635850     1.0904280     0.2186520
  H       -1.5238420     1.7535930    -0.5485080
  H        0.3450640     2.8711750    -1.0989170
  H       -0.0074210     2.9084320     0.6355410
  H        1.6619860     3.0062270     0.0664270
  H        1.2125710    -2.8369000     0.1368280
  H        3.2163680    -1.3783700     0.3701280
  H       -2.3586210     0.7219050     1.5961240
  H       -2.8840400    -0.6056810     0.5350110
  H       -3.5330900     1.0242430     0.2900250
  H       -0.9887950    -2.8960920    -0.2836830
units angstrom
no_reorient  #important for SAPT in psi4, default
symmetry c1  #important for SAPT in psi4, default
}

set PROPERTIES_ORIGIN ["COM"]
properties('MP2/aug-cc-pvtz', properties = ['dipole'])
--------------------------------------------------------------------------

    Molecular point group: c1
  Charge       = 0
  Multiplicity = 1
  Basis Set: AUG-CC-PVTZ
    Blend: AUG-CC-PVTZ
  Basis Set: (AUG-CC-PVTZ AUX)
    Blend: AUG-CC-PVTZ-JKFIT

    Orbital Energies [Eh]
    ---------------------

    Doubly Occupied:

       1A    -20.592571     2A    -15.550588     3A    -11.307877
       4A    -11.256935     5A    -11.247062     6A    -11.237914
       7A    -11.235745     8A    -11.230794     9A    -11.225340
      10A    -11.220619    11A     -1.397568    12A     -1.220898
      13A     -1.129082    14A     -1.045929    15A     -0.986057
      16A     -0.938678    17A     -0.899312    18A     -0.825616
      19A     -0.793548    20A     -0.707163    21A     -0.698194
      22A     -0.674395    23A     -0.620160    24A     -0.616369
      25A     -0.598135    26A     -0.593313    27A     -0.574349
      28A     -0.569138    29A     -0.556019    30A     -0.534063
      31A     -0.524818    32A     -0.515654    33A     -0.472010
      34A     -0.455524    35A     -0.415257    36A     -0.321696
      37A     -0.281245

  @DF-RHF Final Energy:  -438.75939274174698

   => Energetics <=

    Nuclear Repulsion Energy =            521.4140400070783699
    One-Electron Energy =               -1630.2075984558807704
    Two-Electron Energy =                 670.0341657070553083
    Total Energy =                       -438.7593927417469786
  Basis Set: (AUG-CC-PVTZ AUX)
    Blend: AUG-CC-PVTZ-RI
    Molecular point group: c1

    Geometry (in Angstrom), charge = 0, multiplicity = 1:

       Center              X                  Y                   Z               Mass
    ------------   -----------------  -----------------  -----------------  -----------------
         O           -1.298661278275    -1.915560236650    -0.287841320710    15.994914619570
         N           -1.620948278275     0.797414763350    -0.403497320710    14.003074004430
         C           -0.342526278275     0.259870763350    -0.148485320710    12.000000000000
         C            0.800694721725     1.078549763350    -0.040774320710    12.000000000000
         C           -0.172657278275    -1.139899236650    -0.110616320710    12.000000000000
         C            2.060339721725     0.495157763350     0.146831679290    12.000000000000
         C            0.665528721725     2.579075763350    -0.105590320710    12.000000000000
         C            1.262208221725    -1.785285636650     0.142869279290    12.000000000000
         C            2.207716721725    -0.886936236650     0.220132679290    12.000000000000
         C           -2.672276278275     0.502637763350     0.578848679290    12.000000000000
         H            2.934085721725     1.138386763350     0.229744679290     1.007825032230
         H           -1.553341278275     1.801551763350    -0.537415320710     1.007825032230
         H            0.315564721725     2.919133763350    -1.087824320710     1.007825032230
         H           -0.036920278275     2.956390763350     0.646633679290     1.007825032230
         H            1.632486721725     3.054185763350     0.077519679290     1.007825032230
         H            1.183071721725    -2.788941236650     0.147920679290     1.007825032230
         H            3.186868721725    -1.330411236650     0.381220679290     1.007825032230
         H           -2.388120278275     0.769863763350     1.607216679290     1.007825032230
         H           -2.913539278275    -0.557722236650     0.546103679290     1.007825032230
         H           -3.562589278275     1.072201763350     0.301117679290     1.007825032230
         H           -1.018294278275    -2.848133236650    -0.272590320710     1.007825032230

  Basis Set: AUG-CC-PVTZ
    Blend: AUG-CC-PVTZ
  Basis Set: (AUG-CC-PVTZ AUX)
    Blend: AUG-CC-PVTZ-JKFIT
	 Reference Energy          =    -438.7593927417469786 [Eh]
	 Singles Energy            =      -0.0000000000000000 [Eh]
	 Same-Spin Energy          =      -0.4733905781228186 [Eh]
	 Opposite-Spin Energy      =      -1.4995430189176762 [Eh]
	 Correlation Energy        =      -1.9729335970404946 [Eh]
	 Total Energy              =    -440.7323263387874590 [Eh]

	 ================> DF-SCS-MP2 Energies <==================
	-----------------------------------------------------------
	 SCS Same-Spin Scale       =       0.3333333333333333 [-]
	 SCS Opposite-Spin Scale   =       1.2000000000000000 [-]
	 SCS Same-Spin Energy      =      -0.1577968593742728 [Eh]
	 SCS Opposite-Spin Energy  =      -1.7994516227012114 [Eh]
	 SCS Correlation Energy    =      -1.9572484820754843 [Eh]
	 SCS Total Energy          =    -440.7166412238224780 [Eh]
	-----------------------------------------------------------

  Dipole Moment: [D]
     X:     0.1573      Y:    -0.0450      Z:     0.7592     Total:     0.7766

*** Psi4 exiting successfully. Buy a developer a beer!
