                               Psi4 1.4a3.dev225

  ==> Input File <==

--------------------------------------------------------------------------
#psi4
#
memory 32 gb

molecule  {
0 1
  O       -1.2691620    -1.9635190    -0.2989340
  N       -1.5914490     0.7494560    -0.4145900
  C       -0.3130270     0.2119120    -0.1595780
  C        0.7271789     1.0241128    -0.0724794
  C       -0.1431580    -1.1878580    -0.1217090
  C        2.0898390     0.4471990     0.1357390
  C        0.6950280     2.5311170    -0.1166830
  C        1.1116310    -1.7522480     0.0999640
  C        2.2372160    -0.9348950     0.2090400
  C       -2.6427770     0.4546790     0.5677560
  H        2.9635850     1.0904280     0.2186520
  H       -1.5238420     1.7535930    -0.5485080
  H        0.3450640     2.8711750    -1.0989170
  H       -0.0074210     2.9084320     0.6355410
  H        1.6619860     3.0062270     0.0664270
  H        1.2125710    -2.8369000     0.1368280
  H        3.2163680    -1.3783700     0.3701280
  H       -2.3586210     0.7219050     1.5961240
  H       -2.8840400    -0.6056810     0.5350110
  H       -3.5330900     1.0242430     0.2900250
  H       -0.9887950    -2.8960920    -0.2836830
units angstrom
no_reorient  #important for SAPT in psi4, default
symmetry c1  #important for SAPT in psi4, default
}

set PROPERTIES_ORIGIN ["COM"]
properties('MP2/aug-cc-pvtz', properties = ['dipole'])
--------------------------------------------------------------------------

    Molecular point group: c1
  Charge       = 0
  Multiplicity = 1
  Basis Set: AUG-CC-PVTZ
    Blend: AUG-CC-PVTZ
  Basis Set: (AUG-CC-PVTZ AUX)
    Blend: AUG-CC-PVTZ-JKFIT

    Orbital Energies [Eh]
    ---------------------

    Doubly Occupied:

       1A    -20.589590     2A    -15.550406     3A    -11.299798
       4A    -11.254332     5A    -11.238618     6A    -11.238462
       7A    -11.231750     8A    -11.230367     9A    -11.230199
      10A    -11.228444    11A     -1.399027    12A     -1.227982
      13A     -1.127331    14A     -1.041652    15A     -0.995602
      16A     -0.936768    17A     -0.898886    18A     -0.833239
      19A     -0.796080    20A     -0.705316    21A     -0.692551
      22A     -0.671594    23A     -0.617770    24A     -0.608376
      25A     -0.600565    26A     -0.587273    27A     -0.576202
      28A     -0.569412    29A     -0.559285    30A     -0.542914
      31A     -0.524123    32A     -0.514447    33A     -0.472060
      34A     -0.467637    35A     -0.412778    36A     -0.314483
      37A     -0.295840

  @DF-RHF Final Energy:  -438.78845214852782

   => Energetics <=

    Nuclear Repulsion Energy =            524.8343245182549026
    One-Electron Energy =               -1637.0832303629176749
    Two-Electron Energy =                 673.4604536961347776
    Total Energy =                       -438.7884521485278810
  Basis Set: (AUG-CC-PVTZ AUX)
    Blend: AUG-CC-PVTZ-RI
    Molecular point group: c1

    Geometry (in Angstrom), charge = 0, multiplicity = 1:

       Center              X                  Y                   Z               Mass
    ------------   -----------------  -----------------  -----------------  -----------------
         O           -1.273880139597    -1.922083375620    -0.283252165839    15.994914619570
         N           -1.596167139597     0.790891624380    -0.398908165839    14.003074004430
         C           -0.317745139597     0.253347624380    -0.143896165839    12.000000000000
         C            0.722460760403     1.065548424380    -0.056797565839    12.000000000000
         C           -0.147876139597    -1.146422375620    -0.106027165839    12.000000000000
         C            2.085120860403     0.488634624380     0.151420834161    12.000000000000
         C            0.690309860403     2.572552624380    -0.101001165839    12.000000000000
         C            1.106912860403    -1.710812375620     0.115645834161    12.000000000000
         C            2.232497860403    -0.893459375620     0.224721834161    12.000000000000
         C           -2.647495139597     0.496114624380     0.583437834161    12.000000000000
         H            2.958866860403     1.131863624380     0.234333834161     1.007825032230
         H           -1.528560139597     1.795028624380    -0.532826165839     1.007825032230
         H            0.340345860403     2.912610624380    -1.083235165839     1.007825032230
         H           -0.012139139597     2.949867624380     0.651222834161     1.007825032230
         H            1.657267860403     3.047662624380     0.082108834161     1.007825032230
         H            1.207852860403    -2.795464375620     0.152509834161     1.007825032230
         H            3.211649860403    -1.336934375620     0.385809834161     1.007825032230
         H           -2.363339139597     0.763340624380     1.611805834161     1.007825032230
         H           -2.888758139597    -0.564245375620     0.550692834161     1.007825032230
         H           -3.537808139597     1.065678624380     0.305706834161     1.007825032230
         H           -0.993513139597    -2.854656375620    -0.268001165839     1.007825032230

  Basis Set: AUG-CC-PVTZ
    Blend: AUG-CC-PVTZ
  Basis Set: (AUG-CC-PVTZ AUX)
    Blend: AUG-CC-PVTZ-JKFIT
	 Reference Energy          =    -438.7884521485278242 [Eh]
	 Singles Energy            =      -0.0000000000000000 [Eh]
	 Same-Spin Energy          =      -0.4729809707961891 [Eh]
	 Opposite-Spin Energy      =      -1.4973815603444800 [Eh]
	 Correlation Energy        =      -1.9703625311406689 [Eh]
	 Total Energy              =    -440.7588146796684896 [Eh]

	 ================> DF-SCS-MP2 Energies <==================
	-----------------------------------------------------------
	 SCS Same-Spin Scale       =       0.3333333333333333 [-]
	 SCS Opposite-Spin Scale   =       1.2000000000000000 [-]
	 SCS Same-Spin Energy      =      -0.1576603235987297 [Eh]
	 SCS Opposite-Spin Energy  =      -1.7968578724133759 [Eh]
	 SCS Correlation Energy    =      -1.9545181960121056 [Eh]
	 SCS Total Energy          =    -440.7429703445399127 [Eh]
	-----------------------------------------------------------

  Dipole Moment: [D]
     X:     0.2645      Y:     0.0516      Z:     0.7867     Total:     0.8315

*** Psi4 exiting successfully. Buy a developer a beer!
