                               Psi4 1.4a3.dev225

  ==> Input File <==

--------------------------------------------------------------------------
#psi4
#
memory 32 gb

molecule  {
0 1
  O       -1.2691620    -1.9635190    -0.2989340
  N       -1.5914490     0.7494560    -0.4145900
  C       -0.2768787     0.3031079    -0.1675558
  C        0.8301940     1.0305910    -0.0518670
  C       -0.1431580    -1.1878580    -0.1217090
  C        2.0898390     0.4471990     0.1357390
  C        0.6950280     2.5311170    -0.1166830
  C        1.1116310    -1.7522480     0.0999640
  C        2.2372160    -0.9348950     0.2090400
  C       -2.6427770     0.4546790     0.5677560
  H        2.9635850     1.0904280     0.2186520
  H       -1.5238420     1.7535930    -0.5485080
  H        0.3450640     2.8711750    -1.0989170
  H       -0.0074210     2.9084320     0.6355410
  H        1.6619860     3.0062270     0.0664270
  H        1.2125710    -2.8369000     0.1368280
  H        3.2163680    -1.3783700     0.3701280
  H       -2.3586210     0.7219050     1.5961240
  H       -2.8840400    -0.6056810     0.5350110
  H       -3.5330900     1.0242430     0.2900250
  H       -0.9887950    -2.8960920    -0.2836830
units angstrom
no_reorient  #important for SAPT in psi4, default
symmetry c1  #important for SAPT in psi4, default
}

set PROPERTIES_ORIGIN ["COM"]
properties('MP2/aug-cc-pvtz', properties = ['dipole'])
--------------------------------------------------------------------------

    Molecular point group: c1
  Charge       = 0
  Multiplicity = 1
  Basis Set: AUG-CC-PVTZ
    Blend: AUG-CC-PVTZ
  Basis Set: (AUG-CC-PVTZ AUX)
    Blend: AUG-CC-PVTZ-JKFIT

    Orbital Energies [Eh]
    ---------------------

    Doubly Occupied:

       1A    -20.591212     2A    -15.555130     3A    -11.304543
       4A    -11.263863     5A    -11.242211     6A    -11.230963
       7A    -11.229295     8A    -11.227406     9A    -11.226848
      10A    -11.223076    11A     -1.398165    12A     -1.226677
      13A     -1.132857    14A     -1.045598    15A     -0.986073
      16A     -0.937402    17A     -0.901698    18A     -0.825268
      19A     -0.802762    20A     -0.704098    21A     -0.694891
      22A     -0.673941    23A     -0.610903    24A     -0.609022
      25A     -0.593822    26A     -0.592424    27A     -0.577169
      28A     -0.570421    29A     -0.561496    30A     -0.534664
      31A     -0.529308    32A     -0.509258    33A     -0.473789
      34A     -0.469638    35A     -0.416716    36A     -0.324104
      37A     -0.286631

  @DF-RHF Final Energy:  -438.78899609512530

   => Energetics <=

    Nuclear Repulsion Energy =            523.9778495372169118
    One-Electron Energy =               -1635.3670059714320359
    Two-Electron Energy =                 672.6001603390899390
    Total Energy =                       -438.7889960951252988
  Basis Set: (AUG-CC-PVTZ AUX)
    Blend: AUG-CC-PVTZ-RI
    Molecular point group: c1

    Geometry (in Angstrom), charge = 0, multiplicity = 1:

       Center              X                  Y                   Z               Mass
    ------------   -----------------  -----------------  -----------------  -----------------
         O           -1.286062159531    -1.930633524821    -0.284358167482    15.994914619570
         N           -1.608349159531     0.782341475179    -0.400014167482    14.003074004430
         C           -0.293778859531     0.335993375179    -0.152979967482    12.000000000000
         C            0.813293840469     1.063476475179    -0.037291167482    12.000000000000
         C           -0.160058159531    -1.154972524821    -0.107133167482    12.000000000000
         C            2.072938840469     0.480084475179     0.150314832518    12.000000000000
         C            0.678127840469     2.564002475179    -0.102107167482    12.000000000000
         C            1.094730840469    -1.719362524821     0.114539832518    12.000000000000
         C            2.220315840469    -0.902009524821     0.223615832518    12.000000000000
         C           -2.659677159531     0.487564475179     0.582331832518    12.000000000000
         H            2.946684840469     1.123313475179     0.233227832518     1.007825032230
         H           -1.540742159531     1.786478475179    -0.533932167482     1.007825032230
         H            0.328163840469     2.904060475179    -1.084341167482     1.007825032230
         H           -0.024321159531     2.941317475179     0.650116832518     1.007825032230
         H            1.645085840469     3.039112475179     0.081002832518     1.007825032230
         H            1.195670840469    -2.804014524821     0.151403832518     1.007825032230
         H            3.199467840469    -1.345484524821     0.384703832518     1.007825032230
         H           -2.375521159531     0.754790475179     1.610699832518     1.007825032230
         H           -2.900940159531    -0.572795524821     0.549586832518     1.007825032230
         H           -3.549990159531     1.057128475179     0.304600832518     1.007825032230
         H           -1.005695159531    -2.863206524821    -0.269107167482     1.007825032230

  Basis Set: AUG-CC-PVTZ
    Blend: AUG-CC-PVTZ
  Basis Set: (AUG-CC-PVTZ AUX)
    Blend: AUG-CC-PVTZ-JKFIT
	 Reference Energy          =    -438.7889960951252988 [Eh]
	 Singles Energy            =      -0.0000000000000000 [Eh]
	 Same-Spin Energy          =      -0.4733708394147232 [Eh]
	 Opposite-Spin Energy      =      -1.4976894457659371 [Eh]
	 Correlation Energy        =      -1.9710602851806605 [Eh]
	 Total Energy              =    -440.7600563803059686 [Eh]

	 ================> DF-SCS-MP2 Energies <==================
	-----------------------------------------------------------
	 SCS Same-Spin Scale       =       0.3333333333333333 [-]
	 SCS Opposite-Spin Scale   =       1.2000000000000000 [-]
	 SCS Same-Spin Energy      =      -0.1577902798049077 [Eh]
	 SCS Opposite-Spin Energy  =      -1.7972273349191246 [Eh]
	 SCS Correlation Energy    =      -1.9550176147240323 [Eh]
	 SCS Total Energy          =    -440.7440137098493551 [Eh]
	-----------------------------------------------------------

  Dipole Moment: [D]
     X:     0.0666      Y:     0.0441      Z:     0.7949     Total:     0.7989

*** Psi4 exiting successfully. Buy a developer a beer!
