                               Psi4 1.4a3.dev225

  ==> Input File <==

--------------------------------------------------------------------------
#psi4
#
memory 32 gb

molecule  {
0 1
  O       -1.2691620    -1.9635190    -0.2989340
  N       -1.5914490     0.7494560    -0.4145900
  C       -0.3130270     0.2119120    -0.1595780
  C        0.8301940     1.0305910    -0.0518670
  C       -0.1431580    -1.1878580    -0.1217090
  C        2.0898390     0.4471990     0.1357390
  C        0.6950280     2.5311170    -0.1166830
  C        1.1116310    -1.7522480     0.0999640
  C        2.2372160    -0.9348950     0.2090400
  C       -2.6427770     0.4546790     0.5677560
  H        2.9635850     1.0904280     0.2186520
  H       -1.5371599     1.5557883    -0.5221275
  H        0.3450640     2.8711750    -1.0989170
  H       -0.0074210     2.9084320     0.6355410
  H        1.6619860     3.0062270     0.0664270
  H        1.2125710    -2.8369000     0.1368280
  H        3.2163680    -1.3783700     0.3701280
  H       -2.3586210     0.7219050     1.5961240
  H       -2.8840400    -0.6056810     0.5350110
  H       -3.5330900     1.0242430     0.2900250
  H       -0.9887950    -2.8960920    -0.2836830
units angstrom
no_reorient  #important for SAPT in psi4, default
symmetry c1  #important for SAPT in psi4, default
}

set PROPERTIES_ORIGIN ["COM"]
properties('MP2/aug-cc-pvtz', properties = ['dipole'])
--------------------------------------------------------------------------

    Molecular point group: c1
  Charge       = 0
  Multiplicity = 1
  Basis Set: AUG-CC-PVTZ
    Blend: AUG-CC-PVTZ
  Basis Set: (AUG-CC-PVTZ AUX)
    Blend: AUG-CC-PVTZ-JKFIT

    Orbital Energies [Eh]
    ---------------------

    Doubly Occupied:

       1A    -20.587218     2A    -15.531132     3A    -11.294970
       4A    -11.262910     5A    -11.241168     6A    -11.240132
       7A    -11.231937     8A    -11.230538     9A    -11.228964
      10A    -11.224130    11A     -1.396878    12A     -1.254446
      13A     -1.135970    14A     -1.041105    15A     -0.997159
      16A     -0.937682    17A     -0.917856    18A     -0.826267
      19A     -0.810548    20A     -0.715302    21A     -0.704123
      22A     -0.672210    23A     -0.620978    24A     -0.611083
      25A     -0.601627    26A     -0.589005    27A     -0.577124
      28A     -0.570197    29A     -0.561655    30A     -0.539096
      31A     -0.530705    32A     -0.505488    33A     -0.487909
      34A     -0.471006    35A     -0.416639    36A     -0.318379
      37A     -0.291865

  @DF-RHF Final Energy:  -438.75799637260565

   => Energetics <=

    Nuclear Repulsion Energy =            525.4313394070910590
    One-Electron Energy =               -1638.0278669999268004
    Two-Electron Energy =                 673.8385312202299247
    Total Energy =                       -438.7579963726057031
  Basis Set: (AUG-CC-PVTZ AUX)
    Blend: AUG-CC-PVTZ-RI
    Molecular point group: c1

    Geometry (in Angstrom), charge = 0, multiplicity = 1:

       Center              X                  Y                   Z               Mass
    ------------   -----------------  -----------------  -----------------  -----------------
         O           -1.282799915182    -1.921196225615    -0.285250470531    15.994914619570
         N           -1.605086915182     0.791778774385    -0.400906470531    14.003074004430
         C           -0.326664915182     0.254234774385    -0.145894470531    12.000000000000
         C            0.816556084818     1.072913774385    -0.038183470531    12.000000000000
         C           -0.156795915182    -1.145535225615    -0.108025470531    12.000000000000
         C            2.076201084818     0.489521774385     0.149422529469    12.000000000000
         C            0.681390084818     2.573439774385    -0.102999470531    12.000000000000
         C            1.097993084818    -1.709925225615     0.113647529469    12.000000000000
         C            2.223578084818    -0.892572225615     0.222723529469    12.000000000000
         C           -2.656414915182     0.497001774385     0.581439529469    12.000000000000
         H            2.949947084818     1.132750774385     0.232335529469     1.007825032230
         H           -1.550797815182     1.598111074385    -0.508443970531     1.007825032230
         H            0.331426084818     2.913497774385    -1.085233470531     1.007825032230
         H           -0.021058915182     2.950754774385     0.649224529469     1.007825032230
         H            1.648348084818     3.048549774385     0.080110529469     1.007825032230
         H            1.198933084818    -2.794577225615     0.150511529469     1.007825032230
         H            3.202730084818    -1.336047225615     0.383811529469     1.007825032230
         H           -2.372258915182     0.764227774385     1.609807529469     1.007825032230
         H           -2.897677915182    -0.563358225615     0.548694529469     1.007825032230
         H           -3.546727915182     1.066565774385     0.303708529469     1.007825032230
         H           -1.002432915182    -2.853769225615    -0.269999470531     1.007825032230

  Basis Set: AUG-CC-PVTZ
    Blend: AUG-CC-PVTZ
  Basis Set: (AUG-CC-PVTZ AUX)
    Blend: AUG-CC-PVTZ-JKFIT
	 Reference Energy          =    -438.7579963726056462 [Eh]
	 Singles Energy            =      -0.0000000000000000 [Eh]
	 Same-Spin Energy          =      -0.4722162909893952 [Eh]
	 Opposite-Spin Energy      =      -1.4938750419462812 [Eh]
	 Correlation Energy        =      -1.9660913329356764 [Eh]
	 Total Energy              =    -440.7240877055413080 [Eh]

	 ================> DF-SCS-MP2 Energies <==================
	-----------------------------------------------------------
	 SCS Same-Spin Scale       =       0.3333333333333333 [-]
	 SCS Opposite-Spin Scale   =       1.2000000000000000 [-]
	 SCS Same-Spin Energy      =      -0.1574054303297984 [Eh]
	 SCS Opposite-Spin Energy  =      -1.7926500503355374 [Eh]
	 SCS Correlation Energy    =      -1.9500554806653358 [Eh]
	 SCS Total Energy          =    -440.7080518532710016 [Eh]
	-----------------------------------------------------------

  Dipole Moment: [D]
     X:     0.1966      Y:    -0.0012      Z:     0.8005     Total:     0.8243

*** Psi4 exiting successfully. Buy a developer a beer!
