                               Psi4 1.4a3.dev225

  ==> Input File <==

--------------------------------------------------------------------------
#psi4
#
memory 32 gb

molecule  {
0 1
  O       -1.2691620    -1.9635190    -0.2989340
  N       -1.5914490     0.7494560    -0.4145900
  C       -0.3130270     0.2119120    -0.1595780
  C        0.8301940     1.0305910    -0.0518670
  C       -0.1431580    -1.1878580    -0.1217090
  C        2.0898390     0.4471990     0.1357390
  C        0.6950280     2.5311170    -0.1166830
  C        1.1116310    -1.7522480     0.0999640
  C        2.2425102    -0.9845441     0.2116732
  C       -2.6427770     0.4546790     0.5677560
  H        2.9635850     1.0904280     0.2186520
  H       -1.5238420     1.7535930    -0.5485080
  H        0.3450640     2.8711750    -1.0989170
  H       -0.0074210     2.9084320     0.6355410
  H        1.6619860     3.0062270     0.0664270
  H        1.2125710    -2.8369000     0.1368280
  H        3.2163680    -1.3783700     0.3701280
  H       -2.3586210     0.7219050     1.5961240
  H       -2.8840400    -0.6056810     0.5350110
  H       -3.5330900     1.0242430     0.2900250
  H       -0.9887950    -2.8960920    -0.2836830
units angstrom
no_reorient  #important for SAPT in psi4, default
symmetry c1  #important for SAPT in psi4, default
}

set PROPERTIES_ORIGIN ["COM"]
properties('MP2/aug-cc-pvtz', properties = ['dipole'])
--------------------------------------------------------------------------

    Molecular point group: c1
  Charge       = 0
  Multiplicity = 1
  Basis Set: AUG-CC-PVTZ
    Blend: AUG-CC-PVTZ
  Basis Set: (AUG-CC-PVTZ AUX)
    Blend: AUG-CC-PVTZ-JKFIT

    Orbital Energies [Eh]
    ---------------------

    Doubly Occupied:

       1A    -20.586906     2A    -15.553955     3A    -11.294112
       4A    -11.263054     5A    -11.240947     6A    -11.239789
       7A    -11.232241     8A    -11.229901     9A    -11.229446
      10A    -11.228539    11A     -1.396407    12A     -1.223754
      13A     -1.128817    14A     -1.043389    15A     -0.990485
      16A     -0.936311    17A     -0.901906    18A     -0.821140
      19A     -0.804249    20A     -0.705689    21A     -0.693050
      22A     -0.673173    23A     -0.617264    24A     -0.609294
      25A     -0.597491    26A     -0.587894    27A     -0.574430
      28A     -0.569904    29A     -0.559770    30A     -0.540034
      31A     -0.528727    32A     -0.505541    33A     -0.481448
      34A     -0.468374    35A     -0.412601    36A     -0.320660
      37A     -0.287053

  @DF-RHF Final Energy:  -438.79778723337643

   => Energetics <=

    Nuclear Repulsion Energy =            523.6413142197079651
    One-Electron Energy =               -1634.7227173402689004
    Two-Electron Energy =                 672.2836158871845100
    Total Energy =                       -438.7977872333764253
  Basis Set: (AUG-CC-PVTZ AUX)
    Blend: AUG-CC-PVTZ-RI
    Molecular point group: c1

    Geometry (in Angstrom), charge = 0, multiplicity = 1:

       Center              X                  Y                   Z               Mass
    ------------   -----------------  -----------------  -----------------  -----------------
         O           -1.283361267908    -1.918304301781    -0.285287028184    15.994914619570
         N           -1.605648267908     0.794670698219    -0.400943028184    14.003074004430
         C           -0.327226267908     0.257126698219    -0.145931028184    12.000000000000
         C            0.815994732092     1.075805698219    -0.038220028184    12.000000000000
         C           -0.157357267908    -1.142643301781    -0.108062028184    12.000000000000
         C            2.075639732092     0.492413698219     0.149385971816    12.000000000000
         C            0.680828732092     2.576331698219    -0.103036028184    12.000000000000
         C            1.097431732092    -1.707033301781     0.113610971816    12.000000000000
         C            2.228310932092    -0.939329401781     0.225320171816    12.000000000000
         C           -2.656976267908     0.499893698219     0.581402971816    12.000000000000
         H            2.949385732092     1.135642698219     0.232298971816     1.007825032230
         H           -1.538041267908     1.798807698219    -0.534861028184     1.007825032230
         H            0.330864732092     2.916389698219    -1.085270028184     1.007825032230
         H           -0.021620267908     2.953646698219     0.649187971816     1.007825032230
         H            1.647786732092     3.051441698219     0.080073971816     1.007825032230
         H            1.198371732092    -2.791685301781     0.150474971816     1.007825032230
         H            3.202168732092    -1.333155301781     0.383774971816     1.007825032230
         H           -2.372820267908     0.767119698219     1.609770971816     1.007825032230
         H           -2.898239267908    -0.560466301781     0.548657971816     1.007825032230
         H           -3.547289267908     1.069457698219     0.303671971816     1.007825032230
         H           -1.002994267908    -2.850877301781    -0.270036028184     1.007825032230

  Basis Set: AUG-CC-PVTZ
    Blend: AUG-CC-PVTZ
  Basis Set: (AUG-CC-PVTZ AUX)
    Blend: AUG-CC-PVTZ-JKFIT
	 Reference Energy          =    -438.7977872333764253 [Eh]
	 Singles Energy            =      -0.0000000000000000 [Eh]
	 Same-Spin Energy          =      -0.4737663746152305 [Eh]
	 Opposite-Spin Energy      =      -1.4975839321174496 [Eh]
	 Correlation Energy        =      -1.9713503067326801 [Eh]
	 Total Energy              =    -440.7691375401091136 [Eh]

	 ================> DF-SCS-MP2 Energies <==================
	-----------------------------------------------------------
	 SCS Same-Spin Scale       =       0.3333333333333333 [-]
	 SCS Opposite-Spin Scale   =       1.2000000000000000 [-]
	 SCS Same-Spin Energy      =      -0.1579221248717435 [Eh]
	 SCS Opposite-Spin Energy  =      -1.7971007185409393 [Eh]
	 SCS Correlation Energy    =      -1.9550228434126828 [Eh]
	 SCS Total Energy          =    -440.7528100767891033 [Eh]
	-----------------------------------------------------------

  Dipole Moment: [D]
     X:     0.1976      Y:     0.0969      Z:     0.7804     Total:     0.8108

*** Psi4 exiting successfully. Buy a developer a beer!
