                               Psi4 1.4a3.dev225

  ==> Input File <==

--------------------------------------------------------------------------
#psi4
#
memory 32 gb

molecule  {
0 1
  O       -1.2691620    -1.9635190    -0.2989340
  N       -1.5914490     0.7494560    -0.4145900
  C       -0.3130270     0.2119120    -0.1595780
  C        0.8301940     1.0305910    -0.0518670
  C       -0.1431580    -1.1878580    -0.1217090
  C        2.0898390     0.4471990     0.1357390
  C        0.6950280     2.5311170    -0.1166830
  C        1.1116310    -1.7522480     0.0999640
  C        2.2372160    -0.9348950     0.2090400
  C       -2.6427770     0.4546790     0.5677560
  H        2.9635850     1.0904280     0.2186520
  H       -1.5205125     1.8030442    -0.5551031
  H        0.3450640     2.8711750    -1.0989170
  H       -0.0074210     2.9084320     0.6355410
  H        1.6619860     3.0062270     0.0664270
  H        1.2125710    -2.8369000     0.1368280
  H        3.2163680    -1.3783700     0.3701280
  H       -2.3586210     0.7219050     1.5961240
  H       -2.8840400    -0.6056810     0.5350110
  H       -3.5330900     1.0242430     0.2900250
  H       -0.9887950    -2.8960920    -0.2836830
units angstrom
no_reorient  #important for SAPT in psi4, default
symmetry c1  #important for SAPT in psi4, default
}

set PROPERTIES_ORIGIN ["COM"]
properties('MP2/aug-cc-pvtz', properties = ['dipole'])
--------------------------------------------------------------------------

    Molecular point group: c1
  Charge       = 0
  Multiplicity = 1
  Basis Set: AUG-CC-PVTZ
    Blend: AUG-CC-PVTZ
  Basis Set: (AUG-CC-PVTZ AUX)
    Blend: AUG-CC-PVTZ-JKFIT

    Orbital Energies [Eh]
    ---------------------

    Doubly Occupied:

       1A    -20.586915     2A    -15.558874     3A    -11.294922
       4A    -11.263222     5A    -11.240380     6A    -11.239814
       7A    -11.231515     8A    -11.230299     9A    -11.229421
      10A    -11.223835    11A     -1.396580    12A     -1.219263
      13A     -1.130118    14A     -1.040769    15A     -0.993813
      16A     -0.937872    17A     -0.897776    18A     -0.822360
      19A     -0.799000    20A     -0.706088    21A     -0.688522
      22A     -0.671403    23A     -0.616741    24A     -0.607160
      25A     -0.596956    26A     -0.587471    27A     -0.575071
      28A     -0.570272    29A     -0.559355    30A     -0.535964
      31A     -0.526890    32A     -0.505108    33A     -0.483133
      34A     -0.469900    35A     -0.412184    36A     -0.318029
      37A     -0.290301

  @DF-RHF Final Energy:  -438.79726680118199

   => Energetics <=

    Nuclear Repulsion Energy =            523.8666027982759488
    One-Electron Energy =               -1635.2131451426907915
    Two-Electron Energy =                 672.5492755432329659
    Total Energy =                       -438.7972668011819906
  Basis Set: (AUG-CC-PVTZ AUX)
    Blend: AUG-CC-PVTZ-RI
    Molecular point group: c1

    Geometry (in Angstrom), charge = 0, multiplicity = 1:

       Center              X                  Y                   Z               Mass
    ------------   -----------------  -----------------  -----------------  -----------------
         O           -1.282922304802    -1.923014020318    -0.285008038010    15.994914619570
         N           -1.605209304802     0.789960979682    -0.400664038010    14.003074004430
         C           -0.326787304802     0.252416979682    -0.145652038010    12.000000000000
         C            0.816433695198     1.071095979682    -0.037941038010    12.000000000000
         C           -0.156918304802    -1.147353020318    -0.107783038010    12.000000000000
         C            2.076078695198     0.487703979682     0.149664961990    12.000000000000
         C            0.681267695198     2.571621979682    -0.102757038010    12.000000000000
         C            1.097870695198    -1.711743020318     0.113889961990    12.000000000000
         C            2.223455695198    -0.894390020318     0.222965961990    12.000000000000
         C           -2.656537304802     0.495183979682     0.581681961990    12.000000000000
         H            2.949824695198     1.130932979682     0.232577961990     1.007825032230
         H           -1.534272804802     1.843549179682    -0.541177138010     1.007825032230
         H            0.331303695198     2.911679979682    -1.084991038010     1.007825032230
         H           -0.021181304802     2.948936979682     0.649466961990     1.007825032230
         H            1.648225695198     3.046731979682     0.080352961990     1.007825032230
         H            1.198810695198    -2.796395020318     0.150753961990     1.007825032230
         H            3.202607695198    -1.337865020318     0.384053961990     1.007825032230
         H           -2.372381304802     0.762409979682     1.610049961990     1.007825032230
         H           -2.897800304802    -0.565176020318     0.548936961990     1.007825032230
         H           -3.546850304802     1.064747979682     0.303950961990     1.007825032230
         H           -1.002555304802    -2.855587020318    -0.269757038010     1.007825032230

  Basis Set: AUG-CC-PVTZ
    Blend: AUG-CC-PVTZ
  Basis Set: (AUG-CC-PVTZ AUX)
    Blend: AUG-CC-PVTZ-JKFIT
	 Reference Energy          =    -438.7972668011819906 [Eh]
	 Singles Energy            =      -0.0000000000000000 [Eh]
	 Same-Spin Energy          =      -0.4741511891234292 [Eh]
	 Opposite-Spin Energy      =      -1.4983353117739269 [Eh]
	 Correlation Energy        =      -1.9724865008973560 [Eh]
	 Total Energy              =    -440.7697533020793230 [Eh]

	 ================> DF-SCS-MP2 Energies <==================
	-----------------------------------------------------------
	 SCS Same-Spin Scale       =       0.3333333333333333 [-]
	 SCS Opposite-Spin Scale   =       1.2000000000000000 [-]
	 SCS Same-Spin Energy      =      -0.1580503963744764 [Eh]
	 SCS Opposite-Spin Energy  =      -1.7980023741287121 [Eh]
	 SCS Correlation Energy    =      -1.9560527705031885 [Eh]
	 SCS Total Energy          =    -440.7533195716851537 [Eh]
	-----------------------------------------------------------

  Dipole Moment: [D]
     X:     0.1872      Y:     0.1176      Z:     0.7759     Total:     0.8068

*** Psi4 exiting successfully. Buy a developer a beer!
