                               Psi4 1.4a3.dev225

  ==> Input File <==

--------------------------------------------------------------------------
#psi4
#
memory 32 gb

molecule  {
0 1
  O       -1.2691620    -1.9635190    -0.2989340
  N       -1.5914490     0.7494560    -0.4145900
  C       -0.3130270     0.2119120    -0.1595780
  C        0.8301940     1.0305910    -0.0518670
  C       -0.1329833    -1.1657655    -0.1217203
  C        2.0898390     0.4471990     0.1357390
  C        0.6950280     2.5311170    -0.1166830
  C        1.1116310    -1.7522480     0.0999640
  C        2.2372160    -0.9348950     0.2090400
  C       -2.6427770     0.4546790     0.5677560
  H        2.9635850     1.0904280     0.2186520
  H       -1.5238420     1.7535930    -0.5485080
  H        0.3450640     2.8711750    -1.0989170
  H       -0.0074210     2.9084320     0.6355410
  H        1.6619860     3.0062270     0.0664270
  H        1.2125710    -2.8369000     0.1368280
  H        3.2163680    -1.3783700     0.3701280
  H       -2.3586210     0.7219050     1.5961240
  H       -2.8840400    -0.6056810     0.5350110
  H       -3.5330900     1.0242430     0.2900250
  H       -0.9887950    -2.8960920    -0.2836830
units angstrom
no_reorient  #important for SAPT in psi4, default
symmetry c1  #important for SAPT in psi4, default
}

set PROPERTIES_ORIGIN ["COM"]
properties('MP2/aug-cc-pvtz', properties = ['dipole'])
--------------------------------------------------------------------------

    Molecular point group: c1
  Charge       = 0
  Multiplicity = 1
  Basis Set: AUG-CC-PVTZ
    Blend: AUG-CC-PVTZ
  Basis Set: (AUG-CC-PVTZ AUX)
    Blend: AUG-CC-PVTZ-JKFIT

    Orbital Energies [Eh]
    ---------------------

    Doubly Occupied:

       1A    -20.582620     2A    -15.554165     3A    -11.292972
       4A    -11.261917     5A    -11.241739     6A    -11.239546
       7A    -11.232540     8A    -11.231327     9A    -11.229978
      10A    -11.224810    11A     -1.385764    12A     -1.224754
      13A     -1.133161    14A     -1.041556    15A     -0.997327
      16A     -0.938620    17A     -0.901173    18A     -0.822055
      19A     -0.800557    20A     -0.705876    21A     -0.689655
      22A     -0.670303    23A     -0.619860    24A     -0.606809
      25A     -0.597346    26A     -0.586691    27A     -0.574565
      28A     -0.569690    29A     -0.558015    30A     -0.536449
      31A     -0.528449    32A     -0.504160    33A     -0.486366
      34A     -0.470939    35A     -0.413372    36A     -0.318582
      37A     -0.293901

  @DF-RHF Final Energy:  -438.80046322836296

   => Energetics <=

    Nuclear Repulsion Energy =            524.3113032654456447
    One-Electron Energy =               -1636.0883171647815288
    Two-Electron Energy =                 672.9765506709730971
    Total Energy =                       -438.8004632283629007
  Basis Set: (AUG-CC-PVTZ AUX)
    Blend: AUG-CC-PVTZ-RI
    Molecular point group: c1

    Geometry (in Angstrom), charge = 0, multiplicity = 1:

       Center              X                  Y                   Z               Mass
    ------------   -----------------  -----------------  -----------------  -----------------
         O           -1.283788494810    -1.924584384053    -0.285055535193    15.994914619570
         N           -1.606075494810     0.788390615947    -0.400711535193    14.003074004430
         C           -0.327653494810     0.250846615947    -0.145699535193    12.000000000000
         C            0.815567505190     1.069525615947    -0.037988535193    12.000000000000
         C           -0.147609794810    -1.126830884053    -0.107841835193    12.000000000000
         C            2.075212505190     0.486133615947     0.149617464807    12.000000000000
         C            0.680401505190     2.570051615947    -0.102804535193    12.000000000000
         C            1.097004505190    -1.713313384053     0.113842464807    12.000000000000
         C            2.222589505190    -0.895960384053     0.222918464807    12.000000000000
         C           -2.657403494810     0.493613615947     0.581634464807    12.000000000000
         H            2.948958505190     1.129362615947     0.232530464807     1.007825032230
         H           -1.538468494810     1.792527615947    -0.534629535193     1.007825032230
         H            0.330437505190     2.910109615947    -1.085038535193     1.007825032230
         H           -0.022047494810     2.947366615947     0.649419464807     1.007825032230
         H            1.647359505190     3.045161615947     0.080305464807     1.007825032230
         H            1.197944505190    -2.797965384053     0.150706464807     1.007825032230
         H            3.201741505190    -1.339435384053     0.384006464807     1.007825032230
         H           -2.373247494810     0.760839615947     1.610002464807     1.007825032230
         H           -2.898666494810    -0.566746384053     0.548889464807     1.007825032230
         H           -3.547716494810     1.063177615947     0.303903464807     1.007825032230
         H           -1.003421494810    -2.857157384053    -0.269804535193     1.007825032230

  Basis Set: AUG-CC-PVTZ
    Blend: AUG-CC-PVTZ
  Basis Set: (AUG-CC-PVTZ AUX)
    Blend: AUG-CC-PVTZ-JKFIT
	 Reference Energy          =    -438.8004632283629576 [Eh]
	 Singles Energy            =      -0.0000000000000000 [Eh]
	 Same-Spin Energy          =      -0.4736390693214749 [Eh]
	 Opposite-Spin Energy      =      -1.4973059297799254 [Eh]
	 Correlation Energy        =      -1.9709449991014003 [Eh]
	 Total Energy              =    -440.7714082274643488 [Eh]

	 ================> DF-SCS-MP2 Energies <==================
	-----------------------------------------------------------
	 SCS Same-Spin Scale       =       0.3333333333333333 [-]
	 SCS Opposite-Spin Scale   =       1.2000000000000000 [-]
	 SCS Same-Spin Energy      =      -0.1578796897738250 [Eh]
	 SCS Opposite-Spin Energy  =      -1.7967671157359104 [Eh]
	 SCS Correlation Energy    =      -1.9546468055097355 [Eh]
	 SCS Total Energy          =    -440.7551100338727110 [Eh]
	-----------------------------------------------------------

  Dipole Moment: [D]
     X:     0.3025      Y:     0.1810      Z:     0.7982     Total:     0.8726

*** Psi4 exiting successfully. Buy a developer a beer!
