                               Psi4 1.4a3.dev225

  ==> Input File <==

--------------------------------------------------------------------------
#psi4
#
memory 32 gb

molecule  {
0 1
  O       -1.2691620    -1.9635190    -0.2989340
  N       -1.5914490     0.7494560    -0.4145900
  C       -0.3130270     0.2119120    -0.1595780
  C        0.8301940     1.0305910    -0.0518670
  C       -0.1431580    -1.1878580    -0.1217090
  C        2.0898390     0.4471990     0.1357390
  C        0.6950280     2.5311170    -0.1166830
  C        1.1116310    -1.7522480     0.0999640
  C        2.3178849    -0.8763166     0.2168573
  C       -2.6427770     0.4546790     0.5677560
  H        2.9635850     1.0904280     0.2186520
  H       -1.5238420     1.7535930    -0.5485080
  H        0.3450640     2.8711750    -1.0989170
  H       -0.0074210     2.9084320     0.6355410
  H        1.6619860     3.0062270     0.0664270
  H        1.2125710    -2.8369000     0.1368280
  H        3.2163680    -1.3783700     0.3701280
  H       -2.3586210     0.7219050     1.5961240
  H       -2.8840400    -0.6056810     0.5350110
  H       -3.5330900     1.0242430     0.2900250
  H       -0.9887950    -2.8960920    -0.2836830
units angstrom
no_reorient  #important for SAPT in psi4, default
symmetry c1  #important for SAPT in psi4, default
}

set PROPERTIES_ORIGIN ["COM"]
properties('MP2/aug-cc-pvtz', properties = ['dipole'])
--------------------------------------------------------------------------

    Molecular point group: c1
  Charge       = 0
  Multiplicity = 1
  Basis Set: AUG-CC-PVTZ
    Blend: AUG-CC-PVTZ
  Basis Set: (AUG-CC-PVTZ AUX)
    Blend: AUG-CC-PVTZ-JKFIT

    Orbital Energies [Eh]
    ---------------------

    Doubly Occupied:

       1A    -20.586496     2A    -15.555711     3A    -11.295758
       4A    -11.266273     5A    -11.240891     6A    -11.239490
       7A    -11.236744     8A    -11.231181     9A    -11.229407
      10A    -11.221110    11A     -1.396381    12A     -1.225193
      13A     -1.127881    14A     -1.032981    15A     -1.001902
      16A     -0.935736    17A     -0.899953    18A     -0.827564
      19A     -0.799293    20A     -0.705734    21A     -0.693849
      22A     -0.667546    23A     -0.629988    24A     -0.609603
      25A     -0.597813    26A     -0.586744    27A     -0.575618
      28A     -0.568618    29A     -0.560270    30A     -0.534159
      31A     -0.531108    32A     -0.494842    33A     -0.487874
      34A     -0.468071    35A     -0.412563    36A     -0.315003
      37A     -0.292952

  @DF-RHF Final Energy:  -438.78937678388979

   => Energetics <=

    Nuclear Repulsion Energy =            523.1320836563260173
    One-Electron Energy =               -1633.6783229131283406
    Two-Electron Energy =                 671.7568624729126441
    Total Energy =                       -438.7893767838897929
  Basis Set: (AUG-CC-PVTZ AUX)
    Blend: AUG-CC-PVTZ-RI
    Molecular point group: c1

    Geometry (in Angstrom), charge = 0, multiplicity = 1:

       Center              X                  Y                   Z               Mass
    ------------   -----------------  -----------------  -----------------  -----------------
         O           -1.289959382771    -1.927778269522    -0.285740831480    15.994914619570
         N           -1.612246382771     0.785196730478    -0.401396831480    14.003074004430
         C           -0.333824382771     0.247652730478    -0.146384831480    12.000000000000
         C            0.809396617229     1.066331730478    -0.038673831480    12.000000000000
         C           -0.163955382771    -1.152117269522    -0.108515831480    12.000000000000
         C            2.069041617229     0.482939730478     0.148932168520    12.000000000000
         C            0.674230617229     2.566857730478    -0.103489831480    12.000000000000
         C            1.090833617229    -1.716507269522     0.113157168520    12.000000000000
         C            2.297087517229    -0.840575869522     0.230050468520    12.000000000000
         C           -2.663574382771     0.490419730478     0.580949168520    12.000000000000
         H            2.942787617229     1.126168730478     0.231845168520     1.007825032230
         H           -1.544639382771     1.789333730478    -0.535314831480     1.007825032230
         H            0.324266617229     2.906915730478    -1.085723831480     1.007825032230
         H           -0.028218382771     2.944172730478     0.648734168520     1.007825032230
         H            1.641188617229     3.041967730478     0.079620168520     1.007825032230
         H            1.191773617229    -2.801159269522     0.150021168520     1.007825032230
         H            3.195570617229    -1.342629269522     0.383321168520     1.007825032230
         H           -2.379418382771     0.757645730478     1.609317168520     1.007825032230
         H           -2.904837382771    -0.569940269522     0.548204168520     1.007825032230
         H           -3.553887382771     1.059983730478     0.303218168520     1.007825032230
         H           -1.009592382771    -2.860351269522    -0.270489831480     1.007825032230

  Basis Set: AUG-CC-PVTZ
    Blend: AUG-CC-PVTZ
  Basis Set: (AUG-CC-PVTZ AUX)
    Blend: AUG-CC-PVTZ-JKFIT
	 Reference Energy          =    -438.7893767838897929 [Eh]
	 Singles Energy            =      -0.0000000000000000 [Eh]
	 Same-Spin Energy          =      -0.4734813111278640 [Eh]
	 Opposite-Spin Energy      =      -1.4981639193199585 [Eh]
	 Correlation Energy        =      -1.9716452304478225 [Eh]
	 Total Energy              =    -440.7610220143376409 [Eh]

	 ================> DF-SCS-MP2 Energies <==================
	-----------------------------------------------------------
	 SCS Same-Spin Scale       =       0.3333333333333333 [-]
	 SCS Opposite-Spin Scale   =       1.2000000000000000 [-]
	 SCS Same-Spin Energy      =      -0.1578271037092880 [Eh]
	 SCS Opposite-Spin Energy  =      -1.7977967031839501 [Eh]
	 SCS Correlation Energy    =      -1.9556238068932381 [Eh]
	 SCS Total Energy          =    -440.7450005907830359 [Eh]
	-----------------------------------------------------------

  Dipole Moment: [D]
     X:     0.1563      Y:     0.1382      Z:     0.7783     Total:     0.8058

*** Psi4 exiting successfully. Buy a developer a beer!
