                               Psi4 1.4a3.dev225

  ==> Input File <==

--------------------------------------------------------------------------
#psi4
#
memory 32 gb

molecule  {
0 1
  O       -1.2691620    -1.9635190    -0.2989340
  N       -1.5914490     0.7494560    -0.4145900
  C       -0.3130270     0.2119120    -0.1595780
  C        0.8301940     1.0305910    -0.0518670
  C       -0.1431580    -1.1878580    -0.1217090
  C        2.0898390     0.4471990     0.1357390
  C        0.6950280     2.5311170    -0.1166830
  C        1.1116310    -1.7522480     0.0999640
  C        2.2372160    -0.9348950     0.2090400
  C       -2.6427770     0.4546790     0.5677560
  H        2.8832878     1.0313153     0.2110323
  H       -1.5238420     1.7535930    -0.5485080
  H        0.3450640     2.8711750    -1.0989170
  H       -0.0074210     2.9084320     0.6355410
  H        1.6619860     3.0062270     0.0664270
  H        1.2125710    -2.8369000     0.1368280
  H        3.2163680    -1.3783700     0.3701280
  H       -2.3586210     0.7219050     1.5961240
  H       -2.8840400    -0.6056810     0.5350110
  H       -3.5330900     1.0242430     0.2900250
  H       -0.9887950    -2.8960920    -0.2836830
units angstrom
no_reorient  #important for SAPT in psi4, default
symmetry c1  #important for SAPT in psi4, default
}

set PROPERTIES_ORIGIN ["COM"]
properties('MP2/aug-cc-pvtz', properties = ['dipole'])
--------------------------------------------------------------------------

    Molecular point group: c1
  Charge       = 0
  Multiplicity = 1
  Basis Set: AUG-CC-PVTZ
    Blend: AUG-CC-PVTZ
  Basis Set: (AUG-CC-PVTZ AUX)
    Blend: AUG-CC-PVTZ-JKFIT

    Orbital Energies [Eh]
    ---------------------

    Doubly Occupied:

       1A    -20.586658     2A    -15.553570     3A    -11.294519
       4A    -11.262338     5A    -11.239589     6A    -11.239567
       7A    -11.230770     8A    -11.229559     9A    -11.229496
      10A    -11.211693    11A     -1.396297    12A     -1.223515
      13A     -1.131678    14A     -1.040857    15A     -0.996775
      16A     -0.939180    17A     -0.900420    18A     -0.824053
      19A     -0.806475    20A     -0.706009    21A     -0.697369
      22A     -0.674444    23A     -0.619781    24A     -0.610406
      25A     -0.599670    26A     -0.587778    27A     -0.575707
      28A     -0.571063    29A     -0.560324    30A     -0.538067
      31A     -0.528167    32A     -0.509550    33A     -0.483810
      34A     -0.469702    35A     -0.412749    36A     -0.317575
      37A     -0.290078

  @DF-RHF Final Energy:  -438.79539014859927

   => Energetics <=

    Nuclear Repulsion Energy =            524.6926177287188011
    One-Electron Energy =               -1636.7974990541176794
    Two-Electron Energy =                 673.3094911767994972
    Total Energy =                       -438.7953901485992674
  Basis Set: (AUG-CC-PVTZ AUX)
    Blend: AUG-CC-PVTZ-RI
    Molecular point group: c1

    Geometry (in Angstrom), charge = 0, multiplicity = 1:

       Center              X                  Y                   Z               Mass
    ------------   -----------------  -----------------  -----------------  -----------------
         O           -1.282307491678    -1.922215871993    -0.285000505278    15.994914619570
         N           -1.604594491678     0.790759128007    -0.400656505278    14.003074004430
         C           -0.326172491678     0.253215128007    -0.145644505278    12.000000000000
         C            0.817048508322     1.071894128007    -0.037933505278    12.000000000000
         C           -0.156303491678    -1.146554871993    -0.107775505278    12.000000000000
         C            2.076693508322     0.488502128007     0.149672494722    12.000000000000
         C            0.681882508322     2.572420128007    -0.102749505278    12.000000000000
         C            1.098485508322    -1.710944871993     0.113897494722    12.000000000000
         C            2.224070508322    -0.893591871993     0.222973494722    12.000000000000
         C           -2.655922491678     0.495982128007     0.581689494722    12.000000000000
         H            2.870142308322     1.072618428007     0.224965794722     1.007825032230
         H           -1.536987491678     1.794896128007    -0.534574505278     1.007825032230
         H            0.331918508322     2.912478128007    -1.084983505278     1.007825032230
         H           -0.020566491678     2.949735128007     0.649474494722     1.007825032230
         H            1.648840508322     3.047530128007     0.080360494722     1.007825032230
         H            1.199425508322    -2.795596871993     0.150761494722     1.007825032230
         H            3.203222508322    -1.337066871993     0.384061494722     1.007825032230
         H           -2.371766491678     0.763208128007     1.610057494722     1.007825032230
         H           -2.897185491678    -0.564377871993     0.548944494722     1.007825032230
         H           -3.546235491678     1.065546128007     0.303958494722     1.007825032230
         H           -1.001940491678    -2.854788871993    -0.269749505278     1.007825032230

  Basis Set: AUG-CC-PVTZ
    Blend: AUG-CC-PVTZ
  Basis Set: (AUG-CC-PVTZ AUX)
    Blend: AUG-CC-PVTZ-JKFIT
	 Reference Energy          =    -438.7953901485992674 [Eh]
	 Singles Energy            =      -0.0000000000000000 [Eh]
	 Same-Spin Energy          =      -0.4735410402268312 [Eh]
	 Opposite-Spin Energy      =      -1.4967045233659713 [Eh]
	 Correlation Energy        =      -1.9702455635928025 [Eh]
	 Total Energy              =    -440.7656357121920792 [Eh]

	 ================> DF-SCS-MP2 Energies <==================
	-----------------------------------------------------------
	 SCS Same-Spin Scale       =       0.3333333333333333 [-]
	 SCS Opposite-Spin Scale   =       1.2000000000000000 [-]
	 SCS Same-Spin Energy      =      -0.1578470134089437 [Eh]
	 SCS Opposite-Spin Energy  =      -1.7960454280391656 [Eh]
	 SCS Correlation Energy    =      -1.9538924414481094 [Eh]
	 SCS Total Energy          =    -440.7492825900473576 [Eh]
	-----------------------------------------------------------

  Dipole Moment: [D]
     X:     0.2202      Y:     0.1214      Z:     0.7803     Total:     0.8198

*** Psi4 exiting successfully. Buy a developer a beer!
