                               Psi4 1.4a3.dev225

  ==> Input File <==

--------------------------------------------------------------------------
#psi4
#
memory 32 gb

molecule  {
0 1
  O       -1.2691620    -1.9635190    -0.2989340
  N       -1.5914490     0.7494560    -0.4145900
  C       -0.3130270     0.2119120    -0.1595780
  C        0.8301940     1.0305910    -0.0518670
  C       -0.1431580    -1.1878580    -0.1217090
  C        2.2337509     0.4559755     0.1566569
  C        0.6950280     2.5311170    -0.1166830
  C        1.1116310    -1.7522480     0.0999640
  C        2.2372160    -0.9348950     0.2090400
  C       -2.6427770     0.4546790     0.5677560
  H        2.9635850     1.0904280     0.2186520
  H       -1.5238420     1.7535930    -0.5485080
  H        0.3450640     2.8711750    -1.0989170
  H       -0.0074210     2.9084320     0.6355410
  H        1.6619860     3.0062270     0.0664270
  H        1.2125710    -2.8369000     0.1368280
  H        3.2163680    -1.3783700     0.3701280
  H       -2.3586210     0.7219050     1.5961240
  H       -2.8840400    -0.6056810     0.5350110
  H       -3.5330900     1.0242430     0.2900250
  H       -0.9887950    -2.8960920    -0.2836830
units angstrom
no_reorient  #important for SAPT in psi4, default
symmetry c1  #important for SAPT in psi4, default
}

set PROPERTIES_ORIGIN ["COM"]
properties('MP2/aug-cc-pvtz', properties = ['dipole'])
--------------------------------------------------------------------------

    Molecular point group: c1
  Charge       = 0
  Multiplicity = 1
  Basis Set: AUG-CC-PVTZ
    Blend: AUG-CC-PVTZ
  Basis Set: (AUG-CC-PVTZ AUX)
    Blend: AUG-CC-PVTZ-JKFIT

    Orbital Energies [Eh]
    ---------------------

    Doubly Occupied:

       1A    -20.590708     2A    -15.554061     3A    -11.301407
       4A    -11.263348     5A    -11.252295     6A    -11.240048
       7A    -11.234753     8A    -11.229438     9A    -11.228644
      10A    -11.226353    11A     -1.400026    12A     -1.223250
      13A     -1.120933    14A     -1.035037    15A     -0.999126
      16A     -0.936920    17A     -0.898325    18A     -0.825505
      19A     -0.804058    20A     -0.703712    21A     -0.702288
      22A     -0.670066    23A     -0.628616    24A     -0.608379
      25A     -0.600674    26A     -0.588253    27A     -0.574810
      28A     -0.568733    29A     -0.560918    30A     -0.543780
      31A     -0.521816    32A     -0.518733    33A     -0.466438
      34A     -0.463276    35A     -0.413609    36A     -0.306278
      37A     -0.296359

  @DF-RHF Final Energy:  -438.77312128988251

   => Energetics <=

    Nuclear Repulsion Energy =            521.5235140272652643
    One-Electron Energy =               -1630.3913222045025577
    Two-Electron Energy =                 670.0946868873547828
    Total Energy =                       -438.7731212898825106
  Basis Set: (AUG-CC-PVTZ AUX)
    Blend: AUG-CC-PVTZ-RI
    Molecular point group: c1

    Geometry (in Angstrom), charge = 0, multiplicity = 1:

       Center              X                  Y                   Z               Mass
    ------------   -----------------  -----------------  -----------------  -----------------
         O           -1.295495518613    -1.923418734339    -0.286887625611    15.994914619570
         N           -1.617782518613     0.789556265661    -0.402543625611    14.003074004430
         C           -0.339360518613     0.252012265661    -0.147531625611    12.000000000000
         C            0.803860481387     1.070691265661    -0.039820625611    12.000000000000
         C           -0.169491518613    -1.147757734339    -0.109662625611    12.000000000000
         C            2.207417381387     0.496075765661     0.168703274389    12.000000000000
         C            0.668694481387     2.571217265661    -0.104636625611    12.000000000000
         C            1.085297481387    -1.712147734339     0.112010374389    12.000000000000
         C            2.210882481387    -0.894794734339     0.221086374389    12.000000000000
         C           -2.669110518613     0.494779265661     0.579802374389    12.000000000000
         H            2.937251481387     1.130528265661     0.230698374389     1.007825032230
         H           -1.550175518613     1.793693265661    -0.536461625611     1.007825032230
         H            0.318730481387     2.911275265661    -1.086870625611     1.007825032230
         H           -0.033754518613     2.948532265661     0.647587374389     1.007825032230
         H            1.635652481387     3.046327265661     0.078473374389     1.007825032230
         H            1.186237481387    -2.796799734339     0.148874374389     1.007825032230
         H            3.190034481387    -1.338269734339     0.382174374389     1.007825032230
         H           -2.384954518613     0.762005265661     1.608170374389     1.007825032230
         H           -2.910373518613    -0.565580734339     0.547057374389     1.007825032230
         H           -3.559423518613     1.064343265661     0.302071374389     1.007825032230
         H           -1.015128518613    -2.855991734339    -0.271636625611     1.007825032230

  Basis Set: AUG-CC-PVTZ
    Blend: AUG-CC-PVTZ
  Basis Set: (AUG-CC-PVTZ AUX)
    Blend: AUG-CC-PVTZ-JKFIT
	 Reference Energy          =    -438.7731212898825106 [Eh]
	 Singles Energy            =      -0.0000000000000000 [Eh]
	 Same-Spin Energy          =      -0.4735481359015008 [Eh]
	 Opposite-Spin Energy      =      -1.4987976571599977 [Eh]
	 Correlation Energy        =      -1.9723457930614985 [Eh]
	 Total Energy              =    -440.7454670829440033 [Eh]

	 ================> DF-SCS-MP2 Energies <==================
	-----------------------------------------------------------
	 SCS Same-Spin Scale       =       0.3333333333333333 [-]
	 SCS Opposite-Spin Scale   =       1.2000000000000000 [-]
	 SCS Same-Spin Energy      =      -0.1578493786338336 [Eh]
	 SCS Opposite-Spin Energy  =      -1.7985571885919971 [Eh]
	 SCS Correlation Energy    =      -1.9564065672258306 [Eh]
	 SCS Total Energy          =    -440.7295278571083372 [Eh]
	-----------------------------------------------------------

  Dipole Moment: [D]
     X:     0.1302      Y:     0.0643      Z:     0.7713     Total:     0.7849

*** Psi4 exiting successfully. Buy a developer a beer!
