                               Psi4 1.4a3.dev225

  ==> Input File <==

--------------------------------------------------------------------------
#psi4
#
memory 32 gb

molecule  {
0 1
  O       -1.2691620    -1.9635190    -0.2989340
  N       -1.5914490     0.7494560    -0.4145900
  C       -0.3130270     0.2119120    -0.1595780
  C        0.8301940     1.0305910    -0.0518670
  C       -0.1431580    -1.1878580    -0.1217090
  C        2.1348005     0.4263755     0.1424354
  C        0.6950280     2.5311170    -0.1166830
  C        1.1116310    -1.7522480     0.0999640
  C        2.2372160    -0.9348950     0.2090400
  C       -2.6427770     0.4546790     0.5677560
  H        2.9635850     1.0904280     0.2186520
  H       -1.5238420     1.7535930    -0.5485080
  H        0.3450640     2.8711750    -1.0989170
  H       -0.0074210     2.9084320     0.6355410
  H        1.6619860     3.0062270     0.0664270
  H        1.2125710    -2.8369000     0.1368280
  H        3.2163680    -1.3783700     0.3701280
  H       -2.3586210     0.7219050     1.5961240
  H       -2.8840400    -0.6056810     0.5350110
  H       -3.5330900     1.0242430     0.2900250
  H       -0.9887950    -2.8960920    -0.2836830
units angstrom
no_reorient  #important for SAPT in psi4, default
symmetry c1  #important for SAPT in psi4, default
}

set PROPERTIES_ORIGIN ["COM"]
properties('MP2/aug-cc-pvtz', properties = ['dipole'])
--------------------------------------------------------------------------

    Molecular point group: c1
  Charge       = 0
  Multiplicity = 1
  Basis Set: AUG-CC-PVTZ
    Blend: AUG-CC-PVTZ
  Basis Set: (AUG-CC-PVTZ AUX)
    Blend: AUG-CC-PVTZ-JKFIT

    Orbital Energies [Eh]
    ---------------------

    Doubly Occupied:

       1A    -20.587876     2A    -15.553950     3A    -11.296876
       4A    -11.263203     5A    -11.244828     6A    -11.239909
       7A    -11.229879     8A    -11.229719     9A    -11.228432
      10A    -11.223896    11A     -1.397473    12A     -1.223634
      13A     -1.128941    14A     -1.038039    15A     -0.997690
      16A     -0.937572    17A     -0.899563    18A     -0.823578
      19A     -0.799651    20A     -0.705770    21A     -0.694516
      22A     -0.671374    23A     -0.619756    24A     -0.608048
      25A     -0.599538    26A     -0.587933    27A     -0.575199
      28A     -0.568969    29A     -0.560064    30A     -0.538101
      31A     -0.524501    32A     -0.511371    33A     -0.480316
      34A     -0.469438    35A     -0.413846    36A     -0.312213
      37A     -0.294477

  @DF-RHF Final Energy:  -438.79816998120333

   => Energetics <=

    Nuclear Repulsion Energy =            523.4751010535628666
    One-Electron Energy =               -1634.3862621561033848
    Two-Electron Energy =                 672.1129911213372452
    Total Energy =                       -438.7981699812032730
  Basis Set: (AUG-CC-PVTZ AUX)
    Blend: AUG-CC-PVTZ-RI
    Molecular point group: c1

    Geometry (in Angstrom), charge = 0, multiplicity = 1:

       Center              X                  Y                   Z               Mass
    ------------   -----------------  -----------------  -----------------  -----------------
         O           -1.286833645267    -1.920827623529    -0.285642710666    15.994914619570
         N           -1.609120645267     0.792147376471    -0.401298710666    14.003074004430
         C           -0.330698645267     0.254603376471    -0.146286710666    12.000000000000
         C            0.812522354733     1.073282376471    -0.038575710666    12.000000000000
         C           -0.160829645267    -1.145166623529    -0.108417710666    12.000000000000
         C            2.117128854733     0.469066876471     0.155726689334    12.000000000000
         C            0.677356354733     2.573808376471    -0.103391710666    12.000000000000
         C            1.093959354733    -1.709556623529     0.113255289334    12.000000000000
         C            2.219544354733    -0.892203623529     0.222331289334    12.000000000000
         C           -2.660448645267     0.497370376471     0.581047289334    12.000000000000
         H            2.945913354733     1.133119376471     0.231943289334     1.007825032230
         H           -1.541513645267     1.796284376471    -0.535216710666     1.007825032230
         H            0.327392354733     2.913866376471    -1.085625710666     1.007825032230
         H           -0.025092645267     2.951123376471     0.648832289334     1.007825032230
         H            1.644314354733     3.048918376471     0.079718289334     1.007825032230
         H            1.194899354733    -2.794208623529     0.150119289334     1.007825032230
         H            3.198696354733    -1.335678623529     0.383419289334     1.007825032230
         H           -2.376292645267     0.764596376471     1.609415289334     1.007825032230
         H           -2.901711645267    -0.562989623529     0.548302289334     1.007825032230
         H           -3.550761645267     1.066934376471     0.303316289334     1.007825032230
         H           -1.006466645267    -2.853400623529    -0.270391710666     1.007825032230

  Basis Set: AUG-CC-PVTZ
    Blend: AUG-CC-PVTZ
  Basis Set: (AUG-CC-PVTZ AUX)
    Blend: AUG-CC-PVTZ-JKFIT
	 Reference Energy          =    -438.7981699812033298 [Eh]
	 Singles Energy            =      -0.0000000000000000 [Eh]
	 Same-Spin Energy          =      -0.4735241312384766 [Eh]
	 Opposite-Spin Energy      =      -1.4972606462318832 [Eh]
	 Correlation Energy        =      -1.9707847774703597 [Eh]
	 Total Energy              =    -440.7689547586737149 [Eh]

	 ================> DF-SCS-MP2 Energies <==================
	-----------------------------------------------------------
	 SCS Same-Spin Scale       =       0.3333333333333333 [-]
	 SCS Opposite-Spin Scale   =       1.2000000000000000 [-]
	 SCS Same-Spin Energy      =      -0.1578413770794922 [Eh]
	 SCS Opposite-Spin Energy  =      -1.7967127754782597 [Eh]
	 SCS Correlation Energy    =      -1.9545541525577519 [Eh]
	 SCS Total Energy          =    -440.7527241337610917 [Eh]
	-----------------------------------------------------------

  Dipole Moment: [D]
     X:     0.1737      Y:     0.1034      Z:     0.7761     Total:     0.8020

*** Psi4 exiting successfully. Buy a developer a beer!
