                               Psi4 1.4a3.dev225

  ==> Input File <==

--------------------------------------------------------------------------
#psi4
#
memory 32 gb

molecule  {
0 1
  O       -1.2691620    -1.9635190    -0.2989340
  N       -1.5914490     0.7494560    -0.4145900
  C       -0.3130270     0.2119120    -0.1595780
  C        0.8301940     1.0305910    -0.0518670
  C       -0.1431580    -1.1878580    -0.1217090
  C        2.0898390     0.4471990     0.1357390
  C        0.6950280     2.5311170    -0.1166830
  C        1.1116310    -1.7522480     0.0999640
  C        2.2372160    -0.9348950     0.2090400
  C       -2.6427770     0.4546790     0.5677560
  H        2.9635850     1.0904280     0.2186520
  H       -1.5238420     1.7535930    -0.5485080
  H        0.3450640     2.8711750    -1.0989170
  H       -0.0074210     2.9084320     0.6355410
  H        1.6619860     3.0062270     0.0664270
  H        1.2125710    -2.8369000     0.1368280
  H        3.2614112    -1.3987709     0.3775384
  H       -2.3586210     0.7219050     1.5961240
  H       -2.8840400    -0.6056810     0.5350110
  H       -3.5330900     1.0242430     0.2900250
  H       -0.9887950    -2.8960920    -0.2836830
units angstrom
no_reorient  #important for SAPT in psi4, default
symmetry c1  #important for SAPT in psi4, default
}

set PROPERTIES_ORIGIN ["COM"]
properties('MP2/aug-cc-pvtz', properties = ['dipole'])
--------------------------------------------------------------------------

    Molecular point group: c1
  Charge       = 0
  Multiplicity = 1
  Basis Set: AUG-CC-PVTZ
    Blend: AUG-CC-PVTZ
  Basis Set: (AUG-CC-PVTZ AUX)
    Blend: AUG-CC-PVTZ-JKFIT

    Orbital Energies [Eh]
    ---------------------

    Doubly Occupied:

       1A    -20.587190     2A    -15.554095     3A    -11.295207
       4A    -11.263273     5A    -11.240843     6A    -11.239932
       7A    -11.236919     8A    -11.231224     9A    -11.229571
      10A    -11.224376    11A     -1.396829    12A     -1.224067
      13A     -1.131073    14A     -1.040743    15A     -0.993467
      16A     -0.938098    17A     -0.900187    18A     -0.822099
      19A     -0.799111    20A     -0.706243    21A     -0.692927
      22A     -0.670150    23A     -0.614863    24A     -0.605069
      25A     -0.598398    26A     -0.587973    27A     -0.575596
      28A     -0.570484    29A     -0.559960    30A     -0.536010
      31A     -0.526772    32A     -0.505289    33A     -0.482718
      34A     -0.470502    35A     -0.413232    36A     -0.318379
      37A     -0.290757

  @DF-RHF Final Energy:  -438.79864766930530

   => Energetics <=

    Nuclear Repulsion Energy =            523.8800751379643543
    One-Electron Energy =               -1635.2101923987443115
    Two-Electron Energy =                 672.5314695914745471
    Total Energy =                       -438.7986476693052964
  Basis Set: (AUG-CC-PVTZ AUX)
    Blend: AUG-CC-PVTZ-RI
    Molecular point group: c1

    Geometry (in Angstrom), charge = 0, multiplicity = 1:

       Center              X                  Y                   Z               Mass
    ------------   -----------------  -----------------  -----------------  -----------------
         O           -1.283228978749    -1.922500476344    -0.285111004709    15.994914619570
         N           -1.605515978749     0.790474523656    -0.400767004709    14.003074004430
         C           -0.327093978749     0.252930523656    -0.145755004709    12.000000000000
         C            0.816127021251     1.071609523656    -0.038044004709    12.000000000000
         C           -0.157224978749    -1.146839476344    -0.107886004709    12.000000000000
         C            2.075772021251     0.488217523656     0.149561995291    12.000000000000
         C            0.680961021251     2.572135523656    -0.102860004709    12.000000000000
         C            1.097564021251    -1.711229476344     0.113786995291    12.000000000000
         C            2.223149021251    -0.893876476344     0.222862995291    12.000000000000
         C           -2.656843978749     0.495697523656     0.581578995291    12.000000000000
         H            2.949518021251     1.131446523656     0.232474995291     1.007825032230
         H           -1.537908978749     1.794611523656    -0.534685004709     1.007825032230
         H            0.330997021251     2.912193523656    -1.085094004709     1.007825032230
         H           -0.021487978749     2.949450523656     0.649363995291     1.007825032230
         H            1.647919021251     3.047245523656     0.080249995291     1.007825032230
         H            1.198504021251    -2.795881476344     0.150650995291     1.007825032230
         H            3.247344221251    -1.357752376344     0.391361395291     1.007825032230
         H           -2.372687978749     0.762923523656     1.609946995291     1.007825032230
         H           -2.898106978749    -0.564662476344     0.548833995291     1.007825032230
         H           -3.547156978749     1.065261523656     0.303847995291     1.007825032230
         H           -1.002861978749    -2.855073476344    -0.269860004709     1.007825032230

  Basis Set: AUG-CC-PVTZ
    Blend: AUG-CC-PVTZ
  Basis Set: (AUG-CC-PVTZ AUX)
    Blend: AUG-CC-PVTZ-JKFIT
	 Reference Energy          =    -438.7986476693052964 [Eh]
	 Singles Energy            =      -0.0000000000000000 [Eh]
	 Same-Spin Energy          =      -0.4738198263098555 [Eh]
	 Opposite-Spin Energy      =      -1.4976843765045960 [Eh]
	 Correlation Energy        =      -1.9715042028144514 [Eh]
	 Total Energy              =    -440.7701518721197544 [Eh]

	 ================> DF-SCS-MP2 Energies <==================
	-----------------------------------------------------------
	 SCS Same-Spin Scale       =       0.3333333333333333 [-]
	 SCS Opposite-Spin Scale   =       1.2000000000000000 [-]
	 SCS Same-Spin Energy      =      -0.1579399421032852 [Eh]
	 SCS Opposite-Spin Energy  =      -1.7972212518055151 [Eh]
	 SCS Correlation Energy    =      -1.9551611939088003 [Eh]
	 SCS Total Energy          =    -440.7538088632140898 [Eh]
	-----------------------------------------------------------

  Dipole Moment: [D]
     X:     0.1650      Y:     0.1086      Z:     0.7751     Total:     0.7998

*** Psi4 exiting successfully. Buy a developer a beer!
