                               Psi4 1.4a3.dev225

  ==> Input File <==

--------------------------------------------------------------------------
#psi4
#
memory 32 gb

molecule  {
0 1
  O       -1.2691620    -1.9635190    -0.2989340
  N       -1.5914490     0.7494560    -0.4145900
  C       -0.3130270     0.2119120    -0.1595780
  C        0.8301940     1.0305910    -0.0518670
  C       -0.1431580    -1.1878580    -0.1217090
  C        2.0898390     0.4471990     0.1357390
  C        0.6950280     2.5311170    -0.1166830
  C        1.1116310    -1.7522480     0.0999640
  C        2.2372160    -0.9348950     0.2090400
  C       -2.6427770     0.4546790     0.5677560
  H        2.9635850     1.0904280     0.2186520
  H       -1.5238420     1.7535930    -0.5485080
  H        0.3450640     2.8711750    -1.0989170
  H       -0.0074210     2.9084320     0.6355410
  H        1.6619860     3.0062270     0.0664270
  H        1.2125710    -2.8369000     0.1368280
  H        3.2163680    -1.3783700     0.3701280
  H       -2.3586210     0.7219050     1.5961240
  H       -2.9543839    -0.5863066     0.5139644
  H       -3.5330900     1.0242430     0.2900250
  H       -0.9887950    -2.8960920    -0.2836830
units angstrom
no_reorient  #important for SAPT in psi4, default
symmetry c1  #important for SAPT in psi4, default
}

set PROPERTIES_ORIGIN ["COM"]
properties('MP2/aug-cc-pvtz', properties = ['dipole'])
--------------------------------------------------------------------------

    Molecular point group: c1
  Charge       = 0
  Multiplicity = 1
  Basis Set: AUG-CC-PVTZ
    Blend: AUG-CC-PVTZ
  Basis Set: (AUG-CC-PVTZ AUX)
    Blend: AUG-CC-PVTZ-JKFIT

    Orbital Energies [Eh]
    ---------------------

    Doubly Occupied:

       1A    -20.586394     2A    -15.554559     3A    -11.294649
       4A    -11.262939     5A    -11.240407     6A    -11.240259
       7A    -11.231395     8A    -11.230131     9A    -11.229377
      10A    -11.223724    11A     -1.395936    12A     -1.223893
      13A     -1.130977    14A     -1.040710    15A     -0.994181
      16A     -0.937832    17A     -0.901190    18A     -0.822513
      19A     -0.800957    20A     -0.705923    21A     -0.692410
      22A     -0.671407    23A     -0.616505    24A     -0.608616
      25A     -0.598808    26A     -0.588279    27A     -0.575141
      28A     -0.570472    29A     -0.561912    30A     -0.535806
      31A     -0.525103    32A     -0.504487    33A     -0.483162
      34A     -0.470579    35A     -0.414393    36A     -0.317924
      37A     -0.290428

  @DF-RHF Final Energy:  -438.80072253760022

   => Energetics <=

    Nuclear Repulsion Energy =            523.9780603384396045
    One-Electron Energy =               -1635.4108079956249640
    Two-Electron Energy =                 672.6320251195850233
    Total Energy =                       -438.8007225376002225
  Basis Set: (AUG-CC-PVTZ AUX)
    Blend: AUG-CC-PVTZ-RI
    Molecular point group: c1

    Geometry (in Angstrom), charge = 0, multiplicity = 1:

       Center              X                  Y                   Z               Mass
    ------------   -----------------  -----------------  -----------------  -----------------
         O           -1.282380667104    -1.922792899415    -0.284901792375    15.994914619570
         N           -1.604667667104     0.790182100585    -0.400557792375    14.003074004430
         C           -0.326245667104     0.252638100585    -0.145545792375    12.000000000000
         C            0.816975332896     1.071317100585    -0.037834792375    12.000000000000
         C           -0.156376667104    -1.147131899415    -0.107676792375    12.000000000000
         C            2.076620332896     0.487925100585     0.149771207625    12.000000000000
         C            0.681809332896     2.571843100585    -0.102650792375    12.000000000000
         C            1.098412332896    -1.711521899415     0.113996207625    12.000000000000
         C            2.223997332896    -0.894168899415     0.223072207625    12.000000000000
         C           -2.655995667104     0.495405100585     0.581788207625    12.000000000000
         H            2.950366332896     1.131154100585     0.232684207625     1.007825032230
         H           -1.537060667104     1.794319100585    -0.534475792375     1.007825032230
         H            0.331845332896     2.911901100585    -1.084884792375     1.007825032230
         H           -0.020639667104     2.949158100585     0.649573207625     1.007825032230
         H            1.648767332896     3.046953100585     0.080459207625     1.007825032230
         H            1.199352332896    -2.796173899415     0.150860207625     1.007825032230
         H            3.203149332896    -1.337643899415     0.384160207625     1.007825032230
         H           -2.371839667104     0.762631100585     1.610156207625     1.007825032230
         H           -2.967602567104    -0.545580499415     0.527996607625     1.007825032230
         H           -3.546308667104     1.064969100585     0.304057207625     1.007825032230
         H           -1.002013667104    -2.855365899415    -0.269650792375     1.007825032230

  Basis Set: AUG-CC-PVTZ
    Blend: AUG-CC-PVTZ
  Basis Set: (AUG-CC-PVTZ AUX)
    Blend: AUG-CC-PVTZ-JKFIT
	 Reference Energy          =    -438.8007225376002225 [Eh]
	 Singles Energy            =      -0.0000000000000000 [Eh]
	 Same-Spin Energy          =      -0.4736699665845882 [Eh]
	 Opposite-Spin Energy      =      -1.4971799095508134 [Eh]
	 Correlation Energy        =      -1.9708498761354016 [Eh]
	 Total Energy              =    -440.7715724137356119 [Eh]

	 ================> DF-SCS-MP2 Energies <==================
	-----------------------------------------------------------
	 SCS Same-Spin Scale       =       0.3333333333333333 [-]
	 SCS Opposite-Spin Scale   =       1.2000000000000000 [-]
	 SCS Same-Spin Energy      =      -0.1578899888615294 [Eh]
	 SCS Opposite-Spin Energy  =      -1.7966158914609760 [Eh]
	 SCS Correlation Energy    =      -1.9545058803225055 [Eh]
	 SCS Total Energy          =    -440.7552284179227513 [Eh]
	-----------------------------------------------------------

  Dipole Moment: [D]
     X:     0.1511      Y:     0.1047      Z:     0.7749     Total:     0.7964

*** Psi4 exiting successfully. Buy a developer a beer!
