                               Psi4 1.4a3.dev225

  ==> Input File <==

--------------------------------------------------------------------------
#psi4
#
memory 32 gb

molecule  {
0 1
  O       -1.2691620    -1.9635190    -0.2989340
  N       -1.5914490     0.7494560    -0.4145900
  C       -0.3130270     0.2119120    -0.1595780
  C        0.8301940     1.0305910    -0.0518670
  C       -0.1431580    -1.1878580    -0.1217090
  C        2.0898390     0.4471990     0.1357390
  C        0.6950280     2.5311170    -0.1166830
  C        1.1116310    -1.7522480     0.0999640
  C        2.2393337    -0.9547547     0.2100933
  C       -2.6427770     0.4546790     0.5677560
  H        2.9635850     1.0904280     0.2186520
  H       -1.5238420     1.7535930    -0.5485080
  H        0.3450640     2.8711750    -1.0989170
  H       -0.0074210     2.9084320     0.6355410
  H        1.6619860     3.0062270     0.0664270
  H        1.2125710    -2.8369000     0.1368280
  H        3.2163680    -1.3783700     0.3701280
  H       -2.3586210     0.7219050     1.5961240
  H       -2.8840400    -0.6056810     0.5350110
  H       -3.5330900     1.0242430     0.2900250
  H       -0.9887950    -2.8960920    -0.2836830
units angstrom
no_reorient  #important for SAPT in psi4, default
symmetry c1  #important for SAPT in psi4, default
}

set PROPERTIES_ORIGIN ["COM"]
properties('MP2/aug-cc-pvtz', properties = ['dipole'])
--------------------------------------------------------------------------

    Molecular point group: c1
  Charge       = 0
  Multiplicity = 1
  Basis Set: AUG-CC-PVTZ
    Blend: AUG-CC-PVTZ
  Basis Set: (AUG-CC-PVTZ AUX)
    Blend: AUG-CC-PVTZ-JKFIT

    Orbital Energies [Eh]
    ---------------------

    Doubly Occupied:

       1A    -20.586926     2A    -15.553947     3A    -11.294559
       4A    -11.263058     5A    -11.240675     6A    -11.239801
       7A    -11.231794     8A    -11.230201     9A    -11.229391
      10A    -11.225827    11A     -1.396518    12A     -1.223833
      13A     -1.130106    14A     -1.041834    15A     -0.992597
      16A     -0.937270    17A     -0.901161    18A     -0.822081
      19A     -0.802406    20A     -0.706110    21A     -0.692996
      22A     -0.672074    23A     -0.617164    24A     -0.608495
      25A     -0.597913    26A     -0.587878    27A     -0.575103
      28A     -0.570158    29A     -0.559789    30A     -0.537634
      31A     -0.528585    32A     -0.505302    33A     -0.483687
      34A     -0.469399    35A     -0.412822    36A     -0.319003
      37A     -0.289165

  @DF-RHF Final Energy:  -438.80048813242809

   => Energetics <=

    Nuclear Repulsion Energy =            523.9342643630355951
    One-Electron Energy =               -1635.3149737665296470
    Two-Electron Energy =                 672.5802212710660797
    Total Energy =                       -438.8004881324280859
  Basis Set: (AUG-CC-PVTZ AUX)
    Blend: AUG-CC-PVTZ-RI
    Molecular point group: c1

    Geometry (in Angstrom), charge = 0, multiplicity = 1:

       Center              X                  Y                   Z               Mass
    ------------   -----------------  -----------------  -----------------  -----------------
         O           -1.283083204952    -1.920911992198    -0.285148727645    15.994914619570
         N           -1.605370204952     0.792063007802    -0.400804727645    14.003074004430
         C           -0.326948204952     0.254519007802    -0.145792727645    12.000000000000
         C            0.816272795048     1.073198007802    -0.038081727645    12.000000000000
         C           -0.157079204952    -1.145250992198    -0.107923727645    12.000000000000
         C            2.075917795048     0.489806007802     0.149524272355    12.000000000000
         C            0.681106795048     2.573724007802    -0.102897727645    12.000000000000
         C            1.097709795048    -1.709640992198     0.113749272355    12.000000000000
         C            2.225412495048    -0.912147692198     0.223878572355    12.000000000000
         C           -2.656698204952     0.497286007802     0.581541272355    12.000000000000
         H            2.949663795048     1.133035007802     0.232437272355     1.007825032230
         H           -1.537763204952     1.796200007802    -0.534722727645     1.007825032230
         H            0.331142795048     2.913782007802    -1.085131727645     1.007825032230
         H           -0.021342204952     2.951039007802     0.649326272355     1.007825032230
         H            1.648064795048     3.048834007802     0.080212272355     1.007825032230
         H            1.198649795048    -2.794292992198     0.150613272355     1.007825032230
         H            3.202446795048    -1.335762992198     0.383913272355     1.007825032230
         H           -2.372542204952     0.764512007802     1.609909272355     1.007825032230
         H           -2.897961204952    -0.563073992198     0.548796272355     1.007825032230
         H           -3.547011204952     1.066850007802     0.303810272355     1.007825032230
         H           -1.002716204952    -2.853484992198    -0.269897727645     1.007825032230

  Basis Set: AUG-CC-PVTZ
    Blend: AUG-CC-PVTZ
  Basis Set: (AUG-CC-PVTZ AUX)
    Blend: AUG-CC-PVTZ-JKFIT
	 Reference Energy          =    -438.8004881324280859 [Eh]
	 Singles Energy            =      -0.0000000000000000 [Eh]
	 Same-Spin Energy          =      -0.4737477339814072 [Eh]
	 Opposite-Spin Energy      =      -1.4973410051061273 [Eh]
	 Correlation Energy        =      -1.9710887390875345 [Eh]
	 Total Energy              =    -440.7715768715156059 [Eh]

	 ================> DF-SCS-MP2 Energies <==================
	-----------------------------------------------------------
	 SCS Same-Spin Scale       =       0.3333333333333333 [-]
	 SCS Opposite-Spin Scale   =       1.2000000000000000 [-]
	 SCS Same-Spin Energy      =      -0.1579159113271357 [Eh]
	 SCS Opposite-Spin Energy  =      -1.7968092061273528 [Eh]
	 SCS Correlation Energy    =      -1.9547251174544886 [Eh]
	 SCS Total Energy          =    -440.7552132498825586 [Eh]
	-----------------------------------------------------------

  Dipole Moment: [D]
     X:     0.1911      Y:     0.0972      Z:     0.7791     Total:     0.8080

*** Psi4 exiting successfully. Buy a developer a beer!
