                               Psi4 1.4a3.dev225

  ==> Input File <==

--------------------------------------------------------------------------
#psi4
#
memory 32 gb

molecule  {
0 1
  O       -1.2691620    -1.9635190    -0.2989340
  N       -1.5914490     0.7494560    -0.4145900
  C       -0.3130270     0.2119120    -0.1595780
  C        0.8301940     1.0305910    -0.0518670
  C       -0.1431580    -1.1878580    -0.1217090
  C        2.0898390     0.4471990     0.1357390
  C        0.6950280     2.5311170    -0.1166830
  C        1.1116310    -1.7522480     0.0999640
  C        2.2372160    -0.9348950     0.2090400
  C       -2.6427770     0.4546790     0.5677560
  H        2.9635850     1.0904280     0.2186520
  H       -1.5251738     1.7338125    -0.5458700
  H        0.3450640     2.8711750    -1.0989170
  H       -0.0074210     2.9084320     0.6355410
  H        1.6619860     3.0062270     0.0664270
  H        1.2125710    -2.8369000     0.1368280
  H        3.2163680    -1.3783700     0.3701280
  H       -2.3586210     0.7219050     1.5961240
  H       -2.8840400    -0.6056810     0.5350110
  H       -3.5330900     1.0242430     0.2900250
  H       -0.9887950    -2.8960920    -0.2836830
units angstrom
no_reorient  #important for SAPT in psi4, default
symmetry c1  #important for SAPT in psi4, default
}

set PROPERTIES_ORIGIN ["COM"]
properties('MP2/aug-cc-pvtz', properties = ['dipole'])
--------------------------------------------------------------------------

    Molecular point group: c1
  Charge       = 0
  Multiplicity = 1
  Basis Set: AUG-CC-PVTZ
    Blend: AUG-CC-PVTZ
  Basis Set: (AUG-CC-PVTZ AUX)
    Blend: AUG-CC-PVTZ-JKFIT

    Orbital Energies [Eh]
    ---------------------

    Doubly Occupied:

       1A    -20.586947     2A    -15.551884     3A    -11.294842
       4A    -11.263034     5A    -11.240537     6A    -11.239826
       7A    -11.231576     8A    -11.230328     9A    -11.229320
      10A    -11.223882    11A     -1.396597    12A     -1.226026
      13A     -1.131539    14A     -1.040821    15A     -0.994459
      16A     -0.937798    17A     -0.901954    18A     -0.822981
      19A     -0.801979    20A     -0.706559    21A     -0.694800
      22A     -0.671630    23A     -0.617661    24A     -0.608152
      25A     -0.598628    26A     -0.587996    27A     -0.575760
      28A     -0.570240    29A     -0.560004    30A     -0.536565
      31A     -0.528662    32A     -0.505180    33A     -0.484827
      34A     -0.470275    35A     -0.413378    36A     -0.318086
      37A     -0.290634

  @DF-RHF Final Energy:  -438.80159169206257

   => Energetics <=

    Nuclear Repulsion Energy =            524.2479427334772026
    One-Electron Energy =               -1635.9283386596637229
    Two-Electron Energy =                 672.8788042341238906
    Total Energy =                       -438.8015916920626296
  Basis Set: (AUG-CC-PVTZ AUX)
    Blend: AUG-CC-PVTZ-RI
    Molecular point group: c1

    Geometry (in Angstrom), charge = 0, multiplicity = 1:

       Center              X                  Y                   Z               Mass
    ------------   -----------------  -----------------  -----------------  -----------------
         O           -1.282888035502    -1.922505037448    -0.285075918616    15.994914619570
         N           -1.605175035502     0.790469962552    -0.400731918616    14.003074004430
         C           -0.326753035502     0.252925962552    -0.145719918616    12.000000000000
         C            0.816467964498     1.071604962552    -0.038008918616    12.000000000000
         C           -0.156884035502    -1.146844037448    -0.107850918616    12.000000000000
         C            2.076112964498     0.488212962552     0.149597081384    12.000000000000
         C            0.681301964498     2.572130962552    -0.102824918616    12.000000000000
         C            1.097904964498    -1.711234037448     0.113822081384    12.000000000000
         C            2.223489964498    -0.893881037448     0.222898081384    12.000000000000
         C           -2.656503035502     0.495692962552     0.581614081384    12.000000000000
         H            2.949858964498     1.131441962552     0.232510081384     1.007825032230
         H           -1.538899835502     1.774826462552    -0.532011918616     1.007825032230
         H            0.331337964498     2.912188962552    -1.085058918616     1.007825032230
         H           -0.021147035502     2.949445962552     0.649399081384     1.007825032230
         H            1.648259964498     3.047240962552     0.080285081384     1.007825032230
         H            1.198844964498    -2.795886037448     0.150686081384     1.007825032230
         H            3.202641964498    -1.337356037448     0.383986081384     1.007825032230
         H           -2.372347035502     0.762918962552     1.609982081384     1.007825032230
         H           -2.897766035502    -0.564667037448     0.548869081384     1.007825032230
         H           -3.546816035502     1.065256962552     0.303883081384     1.007825032230
         H           -1.002521035502    -2.855078037448    -0.269824918616     1.007825032230

  Basis Set: AUG-CC-PVTZ
    Blend: AUG-CC-PVTZ
  Basis Set: (AUG-CC-PVTZ AUX)
    Blend: AUG-CC-PVTZ-JKFIT
	 Reference Energy          =    -438.8015916920625727 [Eh]
	 Singles Energy            =      -0.0000000000000000 [Eh]
	 Same-Spin Energy          =      -0.4735532282966323 [Eh]
	 Opposite-Spin Energy      =      -1.4968205469561293 [Eh]
	 Correlation Energy        =      -1.9703737752527617 [Eh]
	 Total Energy              =    -440.7719654673153400 [Eh]

	 ================> DF-SCS-MP2 Energies <==================
	-----------------------------------------------------------
	 SCS Same-Spin Scale       =       0.3333333333333333 [-]
	 SCS Opposite-Spin Scale   =       1.2000000000000000 [-]
	 SCS Same-Spin Energy      =      -0.1578510760988774 [Eh]
	 SCS Opposite-Spin Energy  =      -1.7961846563473551 [Eh]
	 SCS Correlation Energy    =      -1.9540357324462325 [Eh]
	 SCS Total Energy          =    -440.7556274245088161 [Eh]
	-----------------------------------------------------------

  Dipole Moment: [D]
     X:     0.1868      Y:     0.0892      Z:     0.7794     Total:     0.8064

*** Psi4 exiting successfully. Buy a developer a beer!
