                               Psi4 1.4a3.dev225

  ==> Input File <==

--------------------------------------------------------------------------
#psi4
#
memory 32 gb

molecule  {
0 1
  O       -1.2691620    -1.9635190    -0.2989340
  N       -1.5914490     0.7494560    -0.4145900
  C       -0.3130270     0.2119120    -0.1595780
  C        0.8301940     1.0305910    -0.0518670
  C       -0.1431580    -1.1878580    -0.1217090
  C        2.0898390     0.4471990     0.1357390
  C        0.6950280     2.5311170    -0.1166830
  C        1.1116310    -1.7522480     0.0999640
  C        2.2319218    -0.8852459     0.2064068
  C       -2.6427770     0.4546790     0.5677560
  H        2.9635850     1.0904280     0.2186520
  H       -1.5238420     1.7535930    -0.5485080
  H        0.3450640     2.8711750    -1.0989170
  H       -0.0074210     2.9084320     0.6355410
  H        1.6619860     3.0062270     0.0664270
  H        1.2125710    -2.8369000     0.1368280
  H        3.2163680    -1.3783700     0.3701280
  H       -2.3586210     0.7219050     1.5961240
  H       -2.8840400    -0.6056810     0.5350110
  H       -3.5330900     1.0242430     0.2900250
  H       -0.9887950    -2.8960920    -0.2836830
units angstrom
no_reorient  #important for SAPT in psi4, default
symmetry c1  #important for SAPT in psi4, default
}

set PROPERTIES_ORIGIN ["COM"]
properties('MP2/aug-cc-pvtz', properties = ['dipole'])
--------------------------------------------------------------------------

    Molecular point group: c1
  Charge       = 0
  Multiplicity = 1
  Basis Set: AUG-CC-PVTZ
    Blend: AUG-CC-PVTZ
  Basis Set: (AUG-CC-PVTZ AUX)
    Blend: AUG-CC-PVTZ-JKFIT

    Orbital Energies [Eh]
    ---------------------

    Doubly Occupied:

       1A    -20.586932     2A    -15.554012     3A    -11.295592
       4A    -11.263193     5A    -11.240005     6A    -11.239875
       7A    -11.231655     8A    -11.229706     9A    -11.229251
      10A    -11.218463    11A     -1.396736    12A     -1.224114
      13A     -1.134221    14A     -1.038262    15A     -0.999276
      16A     -0.938827    17A     -0.899361    18A     -0.824705
      19A     -0.797487    20A     -0.706910    21A     -0.693063
      22A     -0.671020    23A     -0.618599    24A     -0.606285
      25A     -0.598667    26A     -0.587762    27A     -0.576703
      28A     -0.570272    29A     -0.559934    30A     -0.534896
      31A     -0.526285    32A     -0.504969    33A     -0.482827
      34A     -0.472527    35A     -0.413809    36A     -0.316640
      37A     -0.293473

  @DF-RHF Final Energy:  -438.79813433294493

   => Energetics <=

    Nuclear Repulsion Energy =            524.6610772291276135
    One-Electron Energy =               -1636.7657889965898903
    Two-Electron Energy =                 673.3065774345172940
    Total Energy =                       -438.7981343329449828
  Basis Set: (AUG-CC-PVTZ AUX)
    Blend: AUG-CC-PVTZ-RI
    Molecular point group: c1

    Geometry (in Angstrom), charge = 0, multiplicity = 1:

       Center              X                  Y                   Z               Mass
    ------------   -----------------  -----------------  -----------------  -----------------
         O           -1.282434385553    -1.926996620679    -0.284826020550    15.994914619570
         N           -1.604721385553     0.785978379321    -0.400482020550    14.003074004430
         C           -0.326299385553     0.248434379321    -0.145470020550    12.000000000000
         C            0.816921614447     1.067113379321    -0.037759020550    12.000000000000
         C           -0.156430385553    -1.151335620679    -0.107601020550    12.000000000000
         C            2.076566614447     0.483721379321     0.149846979450    12.000000000000
         C            0.681755614447     2.567639379321    -0.102575020550    12.000000000000
         C            1.098358614447    -1.715725620679     0.114071979450    12.000000000000
         C            2.218649414447    -0.848723520679     0.220514779450    12.000000000000
         C           -2.656049385553     0.491201379321     0.581863979450    12.000000000000
         H            2.950312614447     1.126950379321     0.232759979450     1.007825032230
         H           -1.537114385553     1.790115379321    -0.534400020550     1.007825032230
         H            0.331791614447     2.907697379321    -1.084809020550     1.007825032230
         H           -0.020693385553     2.944954379321     0.649648979450     1.007825032230
         H            1.648713614447     3.042749379321     0.080534979450     1.007825032230
         H            1.199298614447    -2.800377620679     0.150935979450     1.007825032230
         H            3.203095614447    -1.341847620679     0.384235979450     1.007825032230
         H           -2.371893385553     0.758427379321     1.610231979450     1.007825032230
         H           -2.897312385553    -0.569158620679     0.549118979450     1.007825032230
         H           -3.546362385553     1.060765379321     0.304132979450     1.007825032230
         H           -1.002067385553    -2.859569620679    -0.269575020550     1.007825032230

  Basis Set: AUG-CC-PVTZ
    Blend: AUG-CC-PVTZ
  Basis Set: (AUG-CC-PVTZ AUX)
    Blend: AUG-CC-PVTZ-JKFIT
	 Reference Energy          =    -438.7981343329449260 [Eh]
	 Singles Energy            =      -0.0000000000000000 [Eh]
	 Same-Spin Energy          =      -0.4736037530859418 [Eh]
	 Opposite-Spin Energy      =      -1.4971700420217480 [Eh]
	 Correlation Energy        =      -1.9707737951076898 [Eh]
	 Total Energy              =    -440.7689081280526011 [Eh]

	 ================> DF-SCS-MP2 Energies <==================
	-----------------------------------------------------------
	 SCS Same-Spin Scale       =       0.3333333333333333 [-]
	 SCS Opposite-Spin Scale   =       1.2000000000000000 [-]
	 SCS Same-Spin Energy      =      -0.1578679176953139 [Eh]
	 SCS Opposite-Spin Energy  =      -1.7966040504260976 [Eh]
	 SCS Correlation Energy    =      -1.9544719681214116 [Eh]
	 SCS Total Energy          =    -440.7526063010663506 [Eh]
	-----------------------------------------------------------

  Dipole Moment: [D]
     X:     0.1750      Y:     0.1008      Z:     0.7756     Total:     0.8015

*** Psi4 exiting successfully. Buy a developer a beer!
