                               Psi4 1.4a3.dev225

  ==> Input File <==

--------------------------------------------------------------------------
#psi4
#
memory 32 gb

molecule  {
0 1
  O       -1.2691620    -1.9635190    -0.2989340
  N       -1.5914490     0.7494560    -0.4145900
  C       -0.3130270     0.2119120    -0.1595780
  C        0.8301940     1.0305910    -0.0518670
  C       -0.1431580    -1.1878580    -0.1217090
  C        2.0898390     0.4471990     0.1357390
  C        0.6950280     2.5311170    -0.1166830
  C        1.1116310    -1.7522480     0.0999640
  C        2.2372160    -0.9348950     0.2090400
  C       -2.6427770     0.4546790     0.5677560
  H        2.9635850     1.0904280     0.2186520
  H       -1.5238420     1.7535930    -0.5485080
  H        0.3450640     2.8711750    -1.0989170
  H       -0.0074210     2.9084320     0.6355410
  H        1.6619860     3.0062270     0.0664270
  H        1.2125710    -2.8369000     0.1368280
  H        3.0361952    -1.2967666     0.3404863
  H       -2.3586210     0.7219050     1.5961240
  H       -2.8840400    -0.6056810     0.5350110
  H       -3.5330900     1.0242430     0.2900250
  H       -0.9887950    -2.8960920    -0.2836830
units angstrom
no_reorient  #important for SAPT in psi4, default
symmetry c1  #important for SAPT in psi4, default
}

set PROPERTIES_ORIGIN ["COM"]
properties('MP2/aug-cc-pvtz', properties = ['dipole'])
--------------------------------------------------------------------------

    Molecular point group: c1
  Charge       = 0
  Multiplicity = 1
  Basis Set: AUG-CC-PVTZ
    Blend: AUG-CC-PVTZ
  Basis Set: (AUG-CC-PVTZ AUX)
    Blend: AUG-CC-PVTZ-JKFIT

    Orbital Energies [Eh]
    ---------------------

    Doubly Occupied:

       1A    -20.586196     2A    -15.553701     3A    -11.293848
       4A    -11.262773     5A    -11.239590     6A    -11.239455
       7A    -11.229561     8A    -11.228746     9A    -11.222747
      10A    -11.206862    11A     -1.395912    12A     -1.223569
      13A     -1.132907    14A     -1.042736    15A     -1.000172
      16A     -0.937053    17A     -0.904568    18A     -0.831728
      19A     -0.809318    20A     -0.708962    21A     -0.694891
      22A     -0.679894    23A     -0.634300    24A     -0.610143
      25A     -0.597570    26A     -0.587523    27A     -0.575477
      28A     -0.569599    29A     -0.559483    30A     -0.539099
      31A     -0.530971    32A     -0.504922    33A     -0.488165
      34A     -0.469376    35A     -0.412639    36A     -0.317184
      37A     -0.290140

  @DF-RHF Final Energy:  -438.76635049307276

   => Energetics <=

    Nuclear Repulsion Energy =            525.3322822547416990
    One-Electron Energy =               -1637.9737129284617367
    Two-Electron Energy =                 673.8750801806473874
    Total Energy =                       -438.7663504930727640
  Basis Set: (AUG-CC-PVTZ AUX)
    Blend: AUG-CC-PVTZ-RI
    Molecular point group: c1

    Geometry (in Angstrom), charge = 0, multiplicity = 1:

       Center              X                  Y                   Z               Mass
    ------------   -----------------  -----------------  -----------------  -----------------
         O           -1.281573218657    -1.923250399303    -0.284838602266    15.994914619570
         N           -1.603860218657     0.789724600697    -0.400494602266    14.003074004430
         C           -0.325438218657     0.252180600697    -0.145482602266    12.000000000000
         C            0.817782781343     1.070859600697    -0.037771602266    12.000000000000
         C           -0.155569218657    -1.147589399303    -0.107613602266    12.000000000000
         C            2.077427781343     0.487467600697     0.149834397734    12.000000000000
         C            0.682616781343     2.571385600697    -0.102587602266    12.000000000000
         C            1.099219781343    -1.711979399303     0.114059397734    12.000000000000
         C            2.224804781343    -0.894626399303     0.223135397734    12.000000000000
         C           -2.655188218657     0.494947600697     0.581851397734    12.000000000000
         H            2.951173781343     1.130696600697     0.232747397734     1.007825032230
         H           -1.536253218657     1.793861600697    -0.534412602266     1.007825032230
         H            0.332652781343     2.911443600697    -1.084821602266     1.007825032230
         H           -0.019832218657     2.948700600697     0.649636397734     1.007825032230
         H            1.649574781343     3.046495600697     0.080522397734     1.007825032230
         H            1.200159781343    -2.796631399303     0.150923397734     1.007825032230
         H            3.023783981343    -1.256497999303     0.354581697734     1.007825032230
         H           -2.371032218657     0.762173600697     1.610219397734     1.007825032230
         H           -2.896451218657    -0.565412399303     0.549106397734     1.007825032230
         H           -3.545501218657     1.064511600697     0.304120397734     1.007825032230
         H           -1.001206218657    -2.855823399303    -0.269587602266     1.007825032230

  Basis Set: AUG-CC-PVTZ
    Blend: AUG-CC-PVTZ
  Basis Set: (AUG-CC-PVTZ AUX)
    Blend: AUG-CC-PVTZ-JKFIT
	 Reference Energy          =    -438.7663504930727640 [Eh]
	 Singles Energy            =      -0.0000000000000000 [Eh]
	 Same-Spin Energy          =      -0.4735635577679519 [Eh]
	 Opposite-Spin Energy      =      -1.4966646672968569 [Eh]
	 Correlation Energy        =      -1.9702282250648087 [Eh]
	 Total Energy              =    -440.7365787181375936 [Eh]

	 ================> DF-SCS-MP2 Energies <==================
	-----------------------------------------------------------
	 SCS Same-Spin Scale       =       0.3333333333333333 [-]
	 SCS Opposite-Spin Scale   =       1.2000000000000000 [-]
	 SCS Same-Spin Energy      =      -0.1578545192559840 [Eh]
	 SCS Opposite-Spin Energy  =      -1.7959976007562282 [Eh]
	 SCS Correlation Energy    =      -1.9538521200122121 [Eh]
	 SCS Total Energy          =    -440.7202026130849504 [Eh]
	-----------------------------------------------------------

  Dipole Moment: [D]
     X:     0.2309      Y:     0.0745      Z:     0.7844     Total:     0.8211

*** Psi4 exiting successfully. Buy a developer a beer!
