                               Psi4 1.4a3.dev225

  ==> Input File <==

--------------------------------------------------------------------------
#psi4
#
memory 32 gb

molecule  {
0 1
  O       -1.2691620    -1.9635190    -0.2989340
  N       -1.5914490     0.7494560    -0.4145900
  C       -0.3033986     0.2344826    -0.1614574
  C        0.8301940     1.0305910    -0.0518670
  C       -0.1431580    -1.1878580    -0.1217090
  C        2.0898390     0.4471990     0.1357390
  C        0.6950280     2.5311170    -0.1166830
  C        1.1116310    -1.7522480     0.0999640
  C        2.2372160    -0.9348950     0.2090400
  C       -2.6427770     0.4546790     0.5677560
  H        2.9635850     1.0904280     0.2186520
  H       -1.5238420     1.7535930    -0.5485080
  H        0.3450640     2.8711750    -1.0989170
  H       -0.0074210     2.9084320     0.6355410
  H        1.6619860     3.0062270     0.0664270
  H        1.2125710    -2.8369000     0.1368280
  H        3.2163680    -1.3783700     0.3701280
  H       -2.3586210     0.7219050     1.5961240
  H       -2.8840400    -0.6056810     0.5350110
  H       -3.5330900     1.0242430     0.2900250
  H       -0.9887950    -2.8960920    -0.2836830
units angstrom
no_reorient  #important for SAPT in psi4, default
symmetry c1  #important for SAPT in psi4, default
}

set PROPERTIES_ORIGIN ["COM"]
properties('MP2/aug-cc-pvtz', properties = ['dipole'])
--------------------------------------------------------------------------

    Molecular point group: c1
  Charge       = 0
  Multiplicity = 1
  Basis Set: AUG-CC-PVTZ
    Blend: AUG-CC-PVTZ
  Basis Set: (AUG-CC-PVTZ AUX)
    Blend: AUG-CC-PVTZ-JKFIT

    Orbital Energies [Eh]
    ---------------------

    Doubly Occupied:

       1A    -20.588127     2A    -15.554205     3A    -11.297591
       4A    -11.263441     5A    -11.240400     6A    -11.237758
       7A    -11.231216     8A    -11.229721     9A    -11.228708
      10A    -11.223694    11A     -1.397036    12A     -1.224557
      13A     -1.131410    14A     -1.041786    15A     -0.992052
      16A     -0.937722    17A     -0.900805    18A     -0.822727
      19A     -0.802394    20A     -0.705649    21A     -0.693660
      22A     -0.672293    23A     -0.615203    24A     -0.608169
      25A     -0.597269    26A     -0.588976    27A     -0.576018
      28A     -0.570291    29A     -0.560257    30A     -0.536039
      31A     -0.528515    32A     -0.506375    33A     -0.481687
      34A     -0.470668    35A     -0.414003    36A     -0.319173
      37A     -0.289619

  @DF-RHF Final Energy:  -438.80031096277366

   => Energetics <=

    Nuclear Repulsion Energy =            524.0870656183681149
    One-Electron Energy =               -1635.6163263248054136
    Two-Electron Energy =                 672.7289497436636339
    Total Energy =                       -438.8003109627736649
  Basis Set: (AUG-CC-PVTZ AUX)
    Blend: AUG-CC-PVTZ-RI
    Molecular point group: c1

    Geometry (in Angstrom), charge = 0, multiplicity = 1:

       Center              X                  Y                   Z               Mass
    ------------   -----------------  -----------------  -----------------  -----------------
         O           -1.283740673059    -1.924626235745    -0.284892006339    15.994914619570
         N           -1.606027673059     0.788348764255    -0.400548006339    14.003074004430
         C           -0.317977273059     0.273375364255    -0.147415406339    12.000000000000
         C            0.815615326941     1.069483764255    -0.037825006339    12.000000000000
         C           -0.157736673059    -1.148965235745    -0.107667006339    12.000000000000
         C            2.075260326941     0.486091764255     0.149780993661    12.000000000000
         C            0.680449326941     2.570009764255    -0.102641006339    12.000000000000
         C            1.097052326941    -1.713355235745     0.114005993661    12.000000000000
         C            2.222637326941    -0.896002235745     0.223081993661    12.000000000000
         C           -2.657355673059     0.493571764255     0.581797993661    12.000000000000
         H            2.949006326941     1.129320764255     0.232693993661     1.007825032230
         H           -1.538420673059     1.792485764255    -0.534466006339     1.007825032230
         H            0.330485326941     2.910067764255    -1.084875006339     1.007825032230
         H           -0.021999673059     2.947324764255     0.649582993661     1.007825032230
         H            1.647407326941     3.045119764255     0.080468993661     1.007825032230
         H            1.197992326941    -2.798007235745     0.150869993661     1.007825032230
         H            3.201789326941    -1.339477235745     0.384169993661     1.007825032230
         H           -2.373199673059     0.760797764255     1.610165993661     1.007825032230
         H           -2.898618673059    -0.566788235745     0.549052993661     1.007825032230
         H           -3.547668673059     1.063135764255     0.304066993661     1.007825032230
         H           -1.003373673059    -2.857199235745    -0.269641006339     1.007825032230

  Basis Set: AUG-CC-PVTZ
    Blend: AUG-CC-PVTZ
  Basis Set: (AUG-CC-PVTZ AUX)
    Blend: AUG-CC-PVTZ-JKFIT
	 Reference Energy          =    -438.8003109627736649 [Eh]
	 Singles Energy            =      -0.0000000000000000 [Eh]
	 Same-Spin Energy          =      -0.4736842799932612 [Eh]
	 Opposite-Spin Energy      =      -1.4972821848484119 [Eh]
	 Correlation Energy        =      -1.9709664648416731 [Eh]
	 Total Energy              =    -440.7712774276153596 [Eh]

	 ================> DF-SCS-MP2 Energies <==================
	-----------------------------------------------------------
	 SCS Same-Spin Scale       =       0.3333333333333333 [-]
	 SCS Opposite-Spin Scale   =       1.2000000000000000 [-]
	 SCS Same-Spin Energy      =      -0.1578947599977537 [Eh]
	 SCS Opposite-Spin Energy  =      -1.7967386218180943 [Eh]
	 SCS Correlation Energy    =      -1.9546333818158481 [Eh]
	 SCS Total Energy          =    -440.7549443445894894 [Eh]
	-----------------------------------------------------------

  Dipole Moment: [D]
     X:     0.1541      Y:     0.0818      Z:     0.7817     Total:     0.8010

*** Psi4 exiting successfully. Buy a developer a beer!
