                               Psi4 1.4a3.dev225

  ==> Input File <==

--------------------------------------------------------------------------
#psi4
#
memory 32 gb

molecule  {
0 1
  O       -1.2691620    -1.9635190    -0.2989340
  N       -1.5914490     0.7494560    -0.4145900
  C       -0.3130270     0.2119120    -0.1595780
  C        0.8301940     1.0305910    -0.0518670
  C       -0.1431580    -1.1878580    -0.1217090
  C        2.0898390     0.4471990     0.1357390
  C        0.6950280     2.5311170    -0.1166830
  C        1.1116310    -1.7522480     0.0999640
  C        2.2372160    -0.9348950     0.2090400
  C       -2.6427770     0.4546790     0.5677560
  H        2.9635850     1.0904280     0.2186520
  H       -1.5238420     1.7535930    -0.5485080
  H        0.3450640     2.8711750    -1.0989170
  H       -0.0074210     2.9084320     0.6355410
  H        1.6619860     3.0062270     0.0664270
  H        1.2125710    -2.8369000     0.1368280
  H        3.2163680    -1.3783700     0.3701280
  H       -2.3586210     0.7219050     1.5961240
  H       -2.7764290    -0.6250338     0.5668478
  H       -3.5330900     1.0242430     0.2900250
  H       -0.9887950    -2.8960920    -0.2836830
units angstrom
no_reorient  #important for SAPT in psi4, default
symmetry c1  #important for SAPT in psi4, default
}

set PROPERTIES_ORIGIN ["COM"]
properties('MP2/aug-cc-pvtz', properties = ['dipole'])
--------------------------------------------------------------------------

    Molecular point group: c1
  Charge       = 0
  Multiplicity = 1
  Basis Set: AUG-CC-PVTZ
    Blend: AUG-CC-PVTZ
  Basis Set: (AUG-CC-PVTZ AUX)
    Blend: AUG-CC-PVTZ-JKFIT

    Orbital Energies [Eh]
    ---------------------

    Doubly Occupied:

       1A    -20.587772     2A    -15.553080     3A    -11.295192
       4A    -11.263324     5A    -11.240627     6A    -11.239157
       7A    -11.231819     8A    -11.230610     9A    -11.229310
      10A    -11.224099    11A     -1.397619    12A     -1.223981
      13A     -1.131348    14A     -1.040965    15A     -0.994421
      16A     -0.937827    17A     -0.900126    18A     -0.823233
      19A     -0.801313    20A     -0.707120    21A     -0.694007
      22A     -0.671846    23A     -0.619241    24A     -0.607317
      25A     -0.597599    26A     -0.586922    27A     -0.576248
      28A     -0.570207    29A     -0.556289    30A     -0.537945
      31A     -0.531110    32A     -0.505758    33A     -0.485677
      34A     -0.469464    35A     -0.410829    36A     -0.318299
      37A     -0.290683

  @DF-RHF Final Energy:  -438.79952484371216

   => Energetics <=

    Nuclear Repulsion Energy =            524.3841143631600517
    One-Electron Energy =               -1636.2025118897804532
    Two-Electron Energy =                 673.0188726829082952
    Total Energy =                       -438.7995248437121063
  Basis Set: (AUG-CC-PVTZ AUX)
    Blend: AUG-CC-PVTZ-RI
    Molecular point group: c1

    Geometry (in Angstrom), charge = 0, multiplicity = 1:

       Center              X                  Y                   Z               Mass
    ------------   -----------------  -----------------  -----------------  -----------------
         O           -1.283688969453    -1.922508181845    -0.285290584571    15.994914619570
         N           -1.605975969453     0.790466818155    -0.400946584571    14.003074004430
         C           -0.327553969453     0.252922818155    -0.145934584571    12.000000000000
         C            0.815667030547     1.071601818155    -0.038223584571    12.000000000000
         C           -0.157684969453    -1.146847181845    -0.108065584571    12.000000000000
         C            2.075312030547     0.488209818155     0.149382415429    12.000000000000
         C            0.680501030547     2.572127818155    -0.103039584571    12.000000000000
         C            1.097104030547    -1.711237181845     0.113607415429    12.000000000000
         C            2.222689030547    -0.893884181845     0.222683415429    12.000000000000
         C           -2.657303969453     0.495689818155     0.581399415429    12.000000000000
         H            2.949058030547     1.131438818155     0.232295415429     1.007825032230
         H           -1.538368969453     1.794603818155    -0.534864584571     1.007825032230
         H            0.330537030547     2.912185818155    -1.085273584571     1.007825032230
         H           -0.021947969453     2.949442818155     0.649184415429     1.007825032230
         H            1.647459030547     3.047237818155     0.080070415429     1.007825032230
         H            1.198044030547    -2.795889181845     0.150471415429     1.007825032230
         H            3.201841030547    -1.337359181845     0.383771415429     1.007825032230
         H           -2.373147969453     0.762915818155     1.609767415429     1.007825032230
         H           -2.790955969453    -0.584022981845     0.580491215429     1.007825032230
         H           -3.547616969453     1.065253818155     0.303668415429     1.007825032230
         H           -1.003321969453    -2.855081181845    -0.270039584571     1.007825032230

  Basis Set: AUG-CC-PVTZ
    Blend: AUG-CC-PVTZ
  Basis Set: (AUG-CC-PVTZ AUX)
    Blend: AUG-CC-PVTZ-JKFIT
	 Reference Energy          =    -438.7995248437121631 [Eh]
	 Singles Energy            =      -0.0000000000000000 [Eh]
	 Same-Spin Energy          =      -0.4739111142566944 [Eh]
	 Opposite-Spin Energy      =      -1.4974890414082938 [Eh]
	 Correlation Energy        =      -1.9714001556649881 [Eh]
	 Total Energy              =    -440.7709249993771436 [Eh]

	 ================> DF-SCS-MP2 Energies <==================
	-----------------------------------------------------------
	 SCS Same-Spin Scale       =       0.3333333333333333 [-]
	 SCS Opposite-Spin Scale   =       1.2000000000000000 [-]
	 SCS Same-Spin Energy      =      -0.1579703714188981 [Eh]
	 SCS Opposite-Spin Energy  =      -1.7969868496899524 [Eh]
	 SCS Correlation Energy    =      -1.9549572211088504 [Eh]
	 SCS Total Energy          =    -440.7544820648209907 [Eh]
	-----------------------------------------------------------

  Dipole Moment: [D]
     X:     0.2391      Y:     0.0902      Z:     0.7802     Total:     0.8210

*** Psi4 exiting successfully. Buy a developer a beer!
