                               Psi4 1.4a3.dev225

  ==> Input File <==

--------------------------------------------------------------------------
#psi4
#
memory 32 gb

molecule  {
0 1
  O       -1.2691620    -1.9635190    -0.2989340
  N       -1.5914490     0.7494560    -0.4145900
  C       -0.3130270     0.2119120    -0.1595780
  C        0.8301940     1.0305910    -0.0518670
  C       -0.1431580    -1.1878580    -0.1217090
  C        2.0898390     0.4471990     0.1357390
  C        0.6950280     2.5311170    -0.1166830
  C        1.1116310    -1.7522480     0.0999640
  C        2.2372160    -0.9348950     0.2090400
  C       -2.6427770     0.4546790     0.5677560
  H        2.9796444     1.1022505     0.2201759
  H       -1.5238420     1.7535930    -0.5485080
  H        0.3450640     2.8711750    -1.0989170
  H       -0.0074210     2.9084320     0.6355410
  H        1.6619860     3.0062270     0.0664270
  H        1.2125710    -2.8369000     0.1368280
  H        3.2163680    -1.3783700     0.3701280
  H       -2.3586210     0.7219050     1.5961240
  H       -2.8840400    -0.6056810     0.5350110
  H       -3.5330900     1.0242430     0.2900250
  H       -0.9887950    -2.8960920    -0.2836830
units angstrom
no_reorient  #important for SAPT in psi4, default
symmetry c1  #important for SAPT in psi4, default
}

set PROPERTIES_ORIGIN ["COM"]
properties('MP2/aug-cc-pvtz', properties = ['dipole'])
--------------------------------------------------------------------------

    Molecular point group: c1
  Charge       = 0
  Multiplicity = 1
  Basis Set: AUG-CC-PVTZ
    Blend: AUG-CC-PVTZ
  Basis Set: (AUG-CC-PVTZ AUX)
    Blend: AUG-CC-PVTZ-JKFIT

    Orbital Energies [Eh]
    ---------------------

    Doubly Occupied:

       1A    -20.587005     2A    -15.554043     3A    -11.294947
       4A    -11.263248     5A    -11.240704     6A    -11.239875
       7A    -11.231751     8A    -11.230501     9A    -11.229326
      10A    -11.226209    11A     -1.396661    12A     -1.223991
      13A     -1.131075    14A     -1.040828    15A     -0.993899
      16A     -0.937620    17A     -0.900720    18A     -0.822684
      19A     -0.800157    20A     -0.706473    21A     -0.692393
      22A     -0.670986    23A     -0.617141    24A     -0.607353
      25A     -0.597719    26A     -0.587876    27A     -0.575554
      28A     -0.570055    29A     -0.559701    30A     -0.536021
      31A     -0.528231    32A     -0.503984    33A     -0.484512
      34A     -0.470291    35A     -0.413105    36A     -0.318191
      37A     -0.290641

  @DF-RHF Final Energy:  -438.80046147919370

   => Energetics <=

    Nuclear Repulsion Energy =            524.0315010300555514
    One-Electron Energy =               -1635.5129827973059946
    Two-Electron Energy =                 672.6810202880567431
    Total Energy =                       -438.8004614791937001
  Basis Set: (AUG-CC-PVTZ AUX)
    Blend: AUG-CC-PVTZ-RI
    Molecular point group: c1

    Geometry (in Angstrom), charge = 0, multiplicity = 1:

       Center              X                  Y                   Z               Mass
    ------------   -----------------  -----------------  -----------------  -----------------
         O           -1.283015893447    -1.922737378783    -0.285067727891    15.994914619570
         N           -1.605302893447     0.790237621217    -0.400723727891    14.003074004430
         C           -0.326880893447     0.252693621217    -0.145711727891    12.000000000000
         C            0.816340106553     1.071372621217    -0.038000727891    12.000000000000
         C           -0.157011893447    -1.147076378783    -0.107842727891    12.000000000000
         C            2.075985106553     0.487980621217     0.149605272109    12.000000000000
         C            0.681174106553     2.571898621217    -0.102816727891    12.000000000000
         C            1.097777106553    -1.711466378783     0.113830272109    12.000000000000
         C            2.223362106553    -0.894113378783     0.222906272109    12.000000000000
         C           -2.656630893447     0.495460621217     0.581622272109    12.000000000000
         H            2.965790506553     1.143032121217     0.234042172109     1.007825032230
         H           -1.537695893447     1.794374621217    -0.534641727891     1.007825032230
         H            0.331210106553     2.911956621217    -1.085050727891     1.007825032230
         H           -0.021274893447     2.949213621217     0.649407272109     1.007825032230
         H            1.648132106553     3.047008621217     0.080293272109     1.007825032230
         H            1.198717106553    -2.796118378783     0.150694272109     1.007825032230
         H            3.202514106553    -1.337588378783     0.383994272109     1.007825032230
         H           -2.372474893447     0.762686621217     1.609990272109     1.007825032230
         H           -2.897893893447    -0.564899378783     0.548877272109     1.007825032230
         H           -3.546943893447     1.065024621217     0.303891272109     1.007825032230
         H           -1.002648893447    -2.855310378783    -0.269816727891     1.007825032230

  Basis Set: AUG-CC-PVTZ
    Blend: AUG-CC-PVTZ
  Basis Set: (AUG-CC-PVTZ AUX)
    Blend: AUG-CC-PVTZ-JKFIT
	 Reference Energy          =    -438.8004614791937001 [Eh]
	 Singles Energy            =      -0.0000000000000000 [Eh]
	 Same-Spin Energy          =      -0.4737679097839818 [Eh]
	 Opposite-Spin Energy      =      -1.4973949806293543 [Eh]
	 Correlation Energy        =      -1.9711628904133360 [Eh]
	 Total Energy              =    -440.7716243696070251 [Eh]

	 ================> DF-SCS-MP2 Energies <==================
	-----------------------------------------------------------
	 SCS Same-Spin Scale       =       0.3333333333333333 [-]
	 SCS Opposite-Spin Scale   =       1.2000000000000000 [-]
	 SCS Same-Spin Energy      =      -0.1579226365946606 [Eh]
	 SCS Opposite-Spin Energy  =      -1.7968739767552251 [Eh]
	 SCS Correlation Energy    =      -1.9547966133498857 [Eh]
	 SCS Total Energy          =    -440.7552580925436132 [Eh]
	-----------------------------------------------------------

  Dipole Moment: [D]
     X:     0.1781      Y:     0.0919      Z:     0.7776     Total:     0.8030

*** Psi4 exiting successfully. Buy a developer a beer!
