                               Psi4 1.4a3.dev225

  ==> Input File <==

--------------------------------------------------------------------------
#psi4
#
memory 32 gb

molecule  {
0 1
  O       -1.2691620    -1.9635190    -0.2989340
  N       -1.5914490     0.7494560    -0.4145900
  C       -0.3130270     0.2119120    -0.1595780
  C        0.8301940     1.0305910    -0.0518670
  C       -0.1431580    -1.1878580    -0.1217090
  C        2.0898390     0.4471990     0.1357390
  C        0.6950280     2.5311170    -0.1166830
  C        1.1116310    -1.7522480     0.0999640
  C        2.2372160    -0.9348950     0.2090400
  C       -2.6427770     0.4546790     0.5677560
  H        2.9635850     1.0904280     0.2186520
  H       -1.5238420     1.7535930    -0.5485080
  H        0.3450640     2.8711750    -1.0989170
  H       -0.0074210     2.9084320     0.6355410
  H        1.6619860     3.0062270     0.0664270
  H        1.2125710    -2.8369000     0.1368280
  H        3.2163680    -1.3783700     0.3701280
  H       -2.3586210     0.7219050     1.5961240
  H       -2.8484056    -0.6134359     0.5456006
  H       -3.5330900     1.0242430     0.2900250
  H       -0.9887950    -2.8960920    -0.2836830
units angstrom
no_reorient  #important for SAPT in psi4, default
symmetry c1  #important for SAPT in psi4, default
}

set PROPERTIES_ORIGIN ["COM"]
properties('MP2/aug-cc-pvtz', properties = ['dipole'])
--------------------------------------------------------------------------

    Molecular point group: c1
  Charge       = 0
  Multiplicity = 1
  Basis Set: AUG-CC-PVTZ
    Blend: AUG-CC-PVTZ
  Basis Set: (AUG-CC-PVTZ AUX)
    Blend: AUG-CC-PVTZ-JKFIT

    Orbital Energies [Eh]
    ---------------------

    Doubly Occupied:

       1A    -20.587210     2A    -15.553657     3A    -11.294965
       4A    -11.263157     5A    -11.240530     6A    -11.239594
       7A    -11.231638     8A    -11.230412     9A    -11.229338
      10A    -11.223940    11A     -1.396924    12A     -1.223915
      13A     -1.131186    14A     -1.040854    15A     -0.994303
      16A     -0.937817    17A     -0.900443    18A     -0.822922
      19A     -0.801154    20A     -0.706611    21A     -0.693318
      22A     -0.671654    23A     -0.617930    24A     -0.607599
      25A     -0.597917    26A     -0.587583    27A     -0.575799
      28A     -0.570202    29A     -0.558643    30A     -0.536787
      31A     -0.529482    32A     -0.505403    33A     -0.484867
      34A     -0.469956    35A     -0.412324    36A     -0.318141
      37A     -0.290581

  @DF-RHF Final Energy:  -438.80088103819918

   => Energetics <=

    Nuclear Repulsion Energy =            524.2166459399501264
    One-Electron Energy =               -1635.8775397675367458
    Two-Electron Energy =                 672.8600127893874969
    Total Energy =                       -438.8008810381992362
  Basis Set: (AUG-CC-PVTZ AUX)
    Blend: AUG-CC-PVTZ-RI
    Molecular point group: c1

    Geometry (in Angstrom), charge = 0, multiplicity = 1:

       Center              X                  Y                   Z               Mass
    ------------   -----------------  -----------------  -----------------  -----------------
         O           -1.283159806419    -1.922593448167    -0.285134377793    15.994914619570
         N           -1.605446806419     0.790381551833    -0.400790377793    14.003074004430
         C           -0.327024806419     0.252837551833    -0.145778377793    12.000000000000
         C            0.816196193581     1.071516551833    -0.038067377793    12.000000000000
         C           -0.157155806419    -1.146932448167    -0.107909377793    12.000000000000
         C            2.075841193581     0.488124551833     0.149538622207    12.000000000000
         C            0.681030193581     2.572042551833    -0.102883377793    12.000000000000
         C            1.097633193581    -1.711322448167     0.113763622207    12.000000000000
         C            2.223218193581    -0.893969448167     0.222839622207    12.000000000000
         C           -2.656774806419     0.495604551833     0.581555622207    12.000000000000
         H            2.949587193581     1.131353551833     0.232451622207     1.007825032230
         H           -1.537839806419     1.794518551833    -0.534708377793     1.007825032230
         H            0.331066193581     2.912100551833    -1.085117377793     1.007825032230
         H           -0.021418806419     2.949357551833     0.649340622207     1.007825032230
         H            1.647988193581     3.047152551833     0.080226622207     1.007825032230
         H            1.198573193581    -2.795974448167     0.150627622207     1.007825032230
         H            3.202370193581    -1.337444448167     0.383927622207     1.007825032230
         H           -2.372618806419     0.762830551833     1.609923622207     1.007825032230
         H           -2.862403406419    -0.572510348167     0.559400222207     1.007825032230
         H           -3.547087806419     1.065168551833     0.303824622207     1.007825032230
         H           -1.002792806419    -2.855166448167    -0.269883377793     1.007825032230

  Basis Set: AUG-CC-PVTZ
    Blend: AUG-CC-PVTZ
  Basis Set: (AUG-CC-PVTZ AUX)
    Blend: AUG-CC-PVTZ-JKFIT
	 Reference Energy          =    -438.8008810381991793 [Eh]
	 Singles Energy            =      -0.0000000000000000 [Eh]
	 Same-Spin Energy          =      -0.4737702135770088 [Eh]
	 Opposite-Spin Energy      =      -1.4972982570711162 [Eh]
	 Correlation Energy        =      -1.9710684706481250 [Eh]
	 Total Energy              =    -440.7719495088472854 [Eh]

	 ================> DF-SCS-MP2 Energies <==================
	-----------------------------------------------------------
	 SCS Same-Spin Scale       =       0.3333333333333333 [-]
	 SCS Opposite-Spin Scale   =       1.2000000000000000 [-]
	 SCS Same-Spin Energy      =      -0.1579234045256696 [Eh]
	 SCS Opposite-Spin Energy  =      -1.7967579084853393 [Eh]
	 SCS Correlation Energy    =      -1.9546813130110090 [Eh]
	 SCS Total Energy          =    -440.7555623512101874 [Eh]
	-----------------------------------------------------------

  Dipole Moment: [D]
     X:     0.2042      Y:     0.0949      Z:     0.7792     Total:     0.8111

*** Psi4 exiting successfully. Buy a developer a beer!
