                               Psi4 1.4a3.dev225

  ==> Input File <==

--------------------------------------------------------------------------
#psi4
#
memory 32 gb

molecule  {
0 1
  O       -1.2691620    -1.9635190    -0.2989340
  N       -1.5914490     0.7494560    -0.4145900
  C       -0.3130270     0.2119120    -0.1595780
  C        0.8301940     1.0305910    -0.0518670
  C       -0.1431580    -1.1878580    -0.1217090
  C        2.0898390     0.4471990     0.1357390
  C        0.6771014     2.7301264    -0.1252793
  C        1.1116310    -1.7522480     0.0999640
  C        2.2372160    -0.9348950     0.2090400
  C       -2.6427770     0.4546790     0.5677560
  H        2.9635850     1.0904280     0.2186520
  H       -1.5238420     1.7535930    -0.5485080
  H        0.3450640     2.8711750    -1.0989170
  H       -0.0074210     2.9084320     0.6355410
  H        1.6619860     3.0062270     0.0664270
  H        1.2125710    -2.8369000     0.1368280
  H        3.2163680    -1.3783700     0.3701280
  H       -2.3586210     0.7219050     1.5961240
  H       -2.8840400    -0.6056810     0.5350110
  H       -3.5330900     1.0242430     0.2900250
  H       -0.9887950    -2.8960920    -0.2836830
units angstrom
no_reorient  #important for SAPT in psi4, default
symmetry c1  #important for SAPT in psi4, default
}

set PROPERTIES_ORIGIN ["COM"]
properties('MP2/aug-cc-pvtz', properties = ['dipole'])
--------------------------------------------------------------------------

    Molecular point group: c1
  Charge       = 0
  Multiplicity = 1
  Basis Set: AUG-CC-PVTZ
    Blend: AUG-CC-PVTZ
  Basis Set: (AUG-CC-PVTZ AUX)
    Blend: AUG-CC-PVTZ-JKFIT

    Orbital Energies [Eh]
    ---------------------

    Doubly Occupied:

       1A    -20.586495     2A    -15.553429     3A    -11.294386
       4A    -11.262944     5A    -11.247089     6A    -11.239507
       7A    -11.231186     8A    -11.229822     9A    -11.228852
      10A    -11.223985    11A     -1.396158    12A     -1.221933
      13A     -1.127275    14A     -1.024577    15A     -0.993467
      16A     -0.945067    17A     -0.900199    18A     -0.824906
      19A     -0.798970    20A     -0.701322    21A     -0.691835
      22A     -0.669659    23A     -0.618256    24A     -0.611212
      25A     -0.602300    26A     -0.590911    27A     -0.588230
      28A     -0.573883    29A     -0.553529    30A     -0.552692
      31A     -0.525900    32A     -0.498479    33A     -0.473721
      34A     -0.450620    35A     -0.412581    36A     -0.319529
      37A     -0.290227

  @DF-RHF Final Energy:  -438.77439069049836

   => Energetics <=

    Nuclear Repulsion Energy =            520.7078500492813191
    One-Electron Energy =               -1628.8542107789485271
    Two-Electron Energy =                 669.3719700391689003
    Total Energy =                       -438.7743906904984215
  Basis Set: (AUG-CC-PVTZ AUX)
    Blend: AUG-CC-PVTZ-RI
    Molecular point group: c1

    Geometry (in Angstrom), charge = 0, multiplicity = 1:

       Center              X                  Y                   Z               Mass
    ------------   -----------------  -----------------  -----------------  -----------------
         O           -1.281328576493    -1.940071252026    -0.284304025521    15.994914619570
         N           -1.603615576493     0.772903747974    -0.399960025521    14.003074004430
         C           -0.325193576493     0.235359747974    -0.144948025521    12.000000000000
         C            0.818027423507     1.054038747974    -0.037237025521    12.000000000000
         C           -0.155324576493    -1.164410252026    -0.107079025521    12.000000000000
         C            2.077672423507     0.470646747974     0.150368974479    12.000000000000
         C            0.664934823507     2.753574147974    -0.110649325521    12.000000000000
         C            1.099464423507    -1.728800252026     0.114593974479    12.000000000000
         C            2.225049423507    -0.911447252026     0.223669974479    12.000000000000
         C           -2.654943576493     0.478126747974     0.582385974479    12.000000000000
         H            2.951418423507     1.113875747974     0.233281974479     1.007825032230
         H           -1.536008576493     1.777040747974    -0.533878025521     1.007825032230
         H            0.332897423507     2.894622747974    -1.084287025521     1.007825032230
         H           -0.019587576493     2.931879747974     0.650170974479     1.007825032230
         H            1.649819423507     3.029674747974     0.081056974479     1.007825032230
         H            1.200404423507    -2.813452252026     0.151457974479     1.007825032230
         H            3.204201423507    -1.354922252026     0.384757974479     1.007825032230
         H           -2.370787576493     0.745352747974     1.610753974479     1.007825032230
         H           -2.896206576493    -0.582233252026     0.549640974479     1.007825032230
         H           -3.545256576493     1.047690747974     0.304654974479     1.007825032230
         H           -1.000961576493    -2.872644252026    -0.269053025521     1.007825032230

  Basis Set: AUG-CC-PVTZ
    Blend: AUG-CC-PVTZ
  Basis Set: (AUG-CC-PVTZ AUX)
    Blend: AUG-CC-PVTZ-JKFIT
	 Reference Energy          =    -438.7743906904983646 [Eh]
	 Singles Energy            =      -0.0000000000000000 [Eh]
	 Same-Spin Energy          =      -0.4733572714708765 [Eh]
	 Opposite-Spin Energy      =      -1.4980210940692036 [Eh]
	 Correlation Energy        =      -1.9713783655400801 [Eh]
	 Total Energy              =    -440.7457690560384549 [Eh]

	 ================> DF-SCS-MP2 Energies <==================
	-----------------------------------------------------------
	 SCS Same-Spin Scale       =       0.3333333333333333 [-]
	 SCS Opposite-Spin Scale   =       1.2000000000000000 [-]
	 SCS Same-Spin Energy      =      -0.1577857571569588 [Eh]
	 SCS Opposite-Spin Energy  =      -1.7976253128830442 [Eh]
	 SCS Correlation Energy    =      -1.9554110700400029 [Eh]
	 SCS Total Energy          =    -440.7298017605383507 [Eh]
	-----------------------------------------------------------

  Dipole Moment: [D]
     X:     0.2004      Y:     0.0331      Z:     0.7735     Total:     0.7997

*** Psi4 exiting successfully. Buy a developer a beer!
