                               Psi4 1.4a3.dev225

  ==> Input File <==

--------------------------------------------------------------------------
#psi4
#
memory 32 gb

molecule  {
0 1
  O       -1.2691620    -1.9635190    -0.2989340
  N       -1.5914490     0.7494560    -0.4145900
  C       -0.3130270     0.2119120    -0.1595780
  C        0.8301940     1.0305910    -0.0518670
  C       -0.1431580    -1.1878580    -0.1217090
  C        2.1856980     0.4547419     0.1496090
  C        0.6950280     2.5311170    -0.1166830
  C        1.1116310    -1.7522480     0.0999640
  C        2.2372160    -0.9348950     0.2090400
  C       -2.6427770     0.4546790     0.5677560
  H        2.9635850     1.0904280     0.2186520
  H       -1.5238420     1.7535930    -0.5485080
  H        0.3450640     2.8711750    -1.0989170
  H       -0.0074210     2.9084320     0.6355410
  H        1.6619860     3.0062270     0.0664270
  H        1.2125710    -2.8369000     0.1368280
  H        3.2163680    -1.3783700     0.3701280
  H       -2.3586210     0.7219050     1.5961240
  H       -2.8840400    -0.6056810     0.5350110
  H       -3.5330900     1.0242430     0.2900250
  H       -0.9887950    -2.8960920    -0.2836830
units angstrom
no_reorient  #important for SAPT in psi4, default
symmetry c1  #important for SAPT in psi4, default
}

set PROPERTIES_ORIGIN ["COM"]
properties('MP2/aug-cc-pvtz', properties = ['dipole'])
--------------------------------------------------------------------------

    Molecular point group: c1
  Charge       = 0
  Multiplicity = 1
  Basis Set: AUG-CC-PVTZ
    Blend: AUG-CC-PVTZ
  Basis Set: (AUG-CC-PVTZ AUX)
    Blend: AUG-CC-PVTZ-JKFIT

    Orbital Energies [Eh]
    ---------------------

    Doubly Occupied:

       1A    -20.589375     2A    -15.553994     3A    -11.299155
       4A    -11.263217     5A    -11.248725     6A    -11.239942
       7A    -11.233220     8A    -11.229716     9A    -11.228831
      10A    -11.225322    11A     -1.398810    12A     -1.223365
      13A     -1.123811    14A     -1.036707    15A     -0.997414
      16A     -0.936832    17A     -0.898888    18A     -0.823792
      19A     -0.802856    20A     -0.703908    21A     -0.698908
      22A     -0.671120    23A     -0.623090    24A     -0.609001
      25A     -0.600335    26A     -0.588076    27A     -0.574976
      28A     -0.569046    29A     -0.560599    30A     -0.540918
      31A     -0.521719    32A     -0.517976    33A     -0.473054
      34A     -0.466136    35A     -0.413476    36A     -0.309852
      37A     -0.294315

  @DF-RHF Final Energy:  -438.78842275700060

   => Energetics <=

    Nuclear Repulsion Energy =            522.3634186533072352
    One-Electron Energy =               -1632.1227254132145390
    Two-Electron Energy =                 670.9708840029067005
    Total Energy =                       -438.7884227570006033
  Basis Set: (AUG-CC-PVTZ AUX)
    Blend: AUG-CC-PVTZ-RI
    Molecular point group: c1

    Geometry (in Angstrom), charge = 0, multiplicity = 1:

       Center              X                  Y                   Z               Mass
    ------------   -----------------  -----------------  -----------------  -----------------
         O           -1.291289086565    -1.923310748045    -0.286270669872    15.994914619570
         N           -1.613576086565     0.789664251955    -0.401926669872    14.003074004430
         C           -0.335154086565     0.252120251955    -0.146914669872    12.000000000000
         C            0.808066913435     1.070799251955    -0.039203669872    12.000000000000
         C           -0.165285086565    -1.147649748045    -0.109045669872    12.000000000000
         C            2.163570913435     0.494950151955     0.162272330128    12.000000000000
         C            0.672900913435     2.571325251955    -0.104019669872    12.000000000000
         C            1.089503913435    -1.712039748045     0.112627330128    12.000000000000
         C            2.215088913435    -0.894686748045     0.221703330128    12.000000000000
         C           -2.664904086565     0.494887251955     0.580419330128    12.000000000000
         H            2.941457913435     1.130636251955     0.231315330128     1.007825032230
         H           -1.545969086565     1.793801251955    -0.535844669872     1.007825032230
         H            0.322936913435     2.911383251955    -1.086253669872     1.007825032230
         H           -0.029548086565     2.948640251955     0.648204330128     1.007825032230
         H            1.639858913435     3.046435251955     0.079090330128     1.007825032230
         H            1.190443913435    -2.796691748045     0.149491330128     1.007825032230
         H            3.194240913435    -1.338161748045     0.382791330128     1.007825032230
         H           -2.380748086565     0.762113251955     1.608787330128     1.007825032230
         H           -2.906167086565    -0.565472748045     0.547674330128     1.007825032230
         H           -3.555217086565     1.064451251955     0.302688330128     1.007825032230
         H           -1.010922086565    -2.855883748045    -0.271019669872     1.007825032230

  Basis Set: AUG-CC-PVTZ
    Blend: AUG-CC-PVTZ
  Basis Set: (AUG-CC-PVTZ AUX)
    Blend: AUG-CC-PVTZ-JKFIT
	 Reference Energy          =    -438.7884227570006033 [Eh]
	 Singles Energy            =      -0.0000000000000000 [Eh]
	 Same-Spin Energy          =      -0.4735468945647098 [Eh]
	 Opposite-Spin Energy      =      -1.4979484392049898 [Eh]
	 Correlation Energy        =      -1.9714953337696997 [Eh]
	 Total Energy              =    -440.7599180907703271 [Eh]

	 ================> DF-SCS-MP2 Energies <==================
	-----------------------------------------------------------
	 SCS Same-Spin Scale       =       0.3333333333333333 [-]
	 SCS Opposite-Spin Scale   =       1.2000000000000000 [-]
	 SCS Same-Spin Energy      =      -0.1578489648549033 [Eh]
	 SCS Opposite-Spin Energy  =      -1.7975381270459876 [Eh]
	 SCS Correlation Energy    =      -1.9553870919008909 [Eh]
	 SCS Total Energy          =    -440.7438098489014919 [Eh]
	-----------------------------------------------------------

  Dipole Moment: [D]
     X:     0.1560      Y:     0.0805      Z:     0.7742     Total:     0.7939

*** Psi4 exiting successfully. Buy a developer a beer!
