                               Psi4 1.4a3.dev225

  ==> Input File <==

--------------------------------------------------------------------------
#psi4
#
memory 32 gb

molecule  {
0 1
  O       -1.2691620    -1.9635190    -0.2989340
  N       -1.5914490     0.7494560    -0.4145900
  C       -0.3130270     0.2119120    -0.1595780
  C        0.8301940     1.0305910    -0.0518670
  C       -0.1431580    -1.1878580    -0.1217090
  C        2.0898390     0.4471990     0.1357390
  C        0.6950280     2.5311170    -0.1166830
  C        1.1116310    -1.7522480     0.0999640
  C        2.2372160    -0.9348950     0.2090400
  C       -2.6427770     0.4546790     0.5677560
  H        3.1241793     1.2086533     0.2338914
  H       -1.5238420     1.7535930    -0.5485080
  H        0.3450640     2.8711750    -1.0989170
  H       -0.0074210     2.9084320     0.6355410
  H        1.6619860     3.0062270     0.0664270
  H        1.2125710    -2.8369000     0.1368280
  H        3.2163680    -1.3783700     0.3701280
  H       -2.3586210     0.7219050     1.5961240
  H       -2.8840400    -0.6056810     0.5350110
  H       -3.5330900     1.0242430     0.2900250
  H       -0.9887950    -2.8960920    -0.2836830
units angstrom
no_reorient  #important for SAPT in psi4, default
symmetry c1  #important for SAPT in psi4, default
}

set PROPERTIES_ORIGIN ["COM"]
properties('MP2/aug-cc-pvtz', properties = ['dipole'])
--------------------------------------------------------------------------

    Molecular point group: c1
  Charge       = 0
  Multiplicity = 1
  Basis Set: AUG-CC-PVTZ
    Blend: AUG-CC-PVTZ
  Basis Set: (AUG-CC-PVTZ AUX)
    Blend: AUG-CC-PVTZ-JKFIT

    Orbital Energies [Eh]
    ---------------------

    Doubly Occupied:

       1A    -20.587926     2A    -15.555040     3A    -11.296122
       4A    -11.265067     5A    -11.246179     6A    -11.243001
       7A    -11.240554     8A    -11.233859     9A    -11.232360
      10A    -11.229169    11A     -1.397604    12A     -1.225055
      13A     -1.131634    14A     -1.041491    15A     -0.992304
      16A     -0.936758    17A     -0.901562    18A     -0.822948
      19A     -0.794433    20A     -0.707730    21A     -0.689675
      22A     -0.666889    23A     -0.616852    24A     -0.605422
      25A     -0.593329    26A     -0.587967    27A     -0.575559
      28A     -0.568208    29A     -0.558531    30A     -0.533669
      31A     -0.528292    32A     -0.488145    33A     -0.485972
      34A     -0.471338    35A     -0.413831    36A     -0.319716
      37A     -0.291959

  @DF-RHF Final Energy:  -438.77896333493351

   => Energetics <=

    Nuclear Repulsion Energy =            523.1884876168442133
    One-Electron Energy =               -1633.7826039012836645
    Two-Electron Energy =                 671.8151529495058867
    Total Energy =                       -438.7789633349335645
  Basis Set: (AUG-CC-PVTZ AUX)
    Blend: AUG-CC-PVTZ-RI
    Molecular point group: c1

    Geometry (in Angstrom), charge = 0, multiplicity = 1:

       Center              X                  Y                   Z               Mass
    ------------   -----------------  -----------------  -----------------  -----------------
         O           -1.284078496101    -1.923519638969    -0.285168562546    15.994914619570
         N           -1.606365496101     0.789455361031    -0.400824562546    14.003074004430
         C           -0.327943496101     0.251911361031    -0.145812562546    12.000000000000
         C            0.815277503899     1.070590361031    -0.038101562546    12.000000000000
         C           -0.158074496101    -1.147858638969    -0.107943562546    12.000000000000
         C            2.074922503899     0.487198361031     0.149504437454    12.000000000000
         C            0.680111503899     2.571116361031    -0.102917562546    12.000000000000
         C            1.096714503899    -1.712248638969     0.113729437454    12.000000000000
         C            2.222299503899    -0.894895638969     0.222805437454    12.000000000000
         C           -2.657693496101     0.494678361031     0.581521437454    12.000000000000
         H            3.109262803899     1.248652661031     0.247656837454     1.007825032230
         H           -1.538758496101     1.793592361031    -0.534742562546     1.007825032230
         H            0.330147503899     2.911174361031    -1.085151562546     1.007825032230
         H           -0.022337496101     2.948431361031     0.649306437454     1.007825032230
         H            1.647069503899     3.046226361031     0.080192437454     1.007825032230
         H            1.197654503899    -2.796900638969     0.150593437454     1.007825032230
         H            3.201451503899    -1.338370638969     0.383893437454     1.007825032230
         H           -2.373537496101     0.761904361031     1.609889437454     1.007825032230
         H           -2.898956496101    -0.565681638969     0.548776437454     1.007825032230
         H           -3.548006496101     1.064242361031     0.303790437454     1.007825032230
         H           -1.003711496101    -2.856092638969    -0.269917562546     1.007825032230

  Basis Set: AUG-CC-PVTZ
    Blend: AUG-CC-PVTZ
  Basis Set: (AUG-CC-PVTZ AUX)
    Blend: AUG-CC-PVTZ-JKFIT
	 Reference Energy          =    -438.7789633349335077 [Eh]
	 Singles Energy            =      -0.0000000000000000 [Eh]
	 Same-Spin Energy          =      -0.4742744892971169 [Eh]
	 Opposite-Spin Energy      =      -1.4994597806709276 [Eh]
	 Correlation Energy        =      -1.9737342699680445 [Eh]
	 Total Energy              =    -440.7526976049015275 [Eh]

	 ================> DF-SCS-MP2 Energies <==================
	-----------------------------------------------------------
	 SCS Same-Spin Scale       =       0.3333333333333333 [-]
	 SCS Opposite-Spin Scale   =       1.2000000000000000 [-]
	 SCS Same-Spin Energy      =      -0.1580914964323723 [Eh]
	 SCS Opposite-Spin Energy  =      -1.7993517368051131 [Eh]
	 SCS Correlation Energy    =      -1.9574432332374854 [Eh]
	 SCS Total Energy          =    -440.7364065681709917 [Eh]
	-----------------------------------------------------------

  Dipole Moment: [D]
     X:     0.0739      Y:     0.0232      Z:     0.7702     Total:     0.7741

*** Psi4 exiting successfully. Buy a developer a beer!
