                               Psi4 1.4a3.dev225

  ==> Input File <==

--------------------------------------------------------------------------
#psi4
#
memory 32 gb

molecule  {
0 1
  O       -1.3197354    -1.8821196    -0.3077470
  N       -1.5914490     0.7494560    -0.4145900
  C       -0.3130270     0.2119120    -0.1595780
  C        0.8301940     1.0305910    -0.0518670
  C       -0.1431580    -1.1878580    -0.1217090
  C        2.0898390     0.4471990     0.1357390
  C        0.6950280     2.5311170    -0.1166830
  C        1.1116310    -1.7522480     0.0999640
  C        2.2372160    -0.9348950     0.2090400
  C       -2.6427770     0.4546790     0.5677560
  H        2.9635850     1.0904280     0.2186520
  H       -1.5238420     1.7535930    -0.5485080
  H        0.3450640     2.8711750    -1.0989170
  H       -0.0074210     2.9084320     0.6355410
  H        1.6619860     3.0062270     0.0664270
  H        1.2125710    -2.8369000     0.1368280
  H        3.2163680    -1.3783700     0.3701280
  H       -2.3586210     0.7219050     1.5961240
  H       -2.8840400    -0.6056810     0.5350110
  H       -3.5330900     1.0242430     0.2900250
  H       -0.9887950    -2.8960920    -0.2836830
units angstrom
no_reorient  #important for SAPT in psi4, default
symmetry c1  #important for SAPT in psi4, default
}

set PROPERTIES_ORIGIN ["COM"]
properties('MP2/aug-cc-pvtz', properties = ['dipole'])
--------------------------------------------------------------------------

    Molecular point group: c1
  Charge       = 0
  Multiplicity = 1
  Basis Set: AUG-CC-PVTZ
    Blend: AUG-CC-PVTZ
  Basis Set: (AUG-CC-PVTZ AUX)
    Blend: AUG-CC-PVTZ-JKFIT

    Orbital Energies [Eh]
    ---------------------

    Doubly Occupied:

       1A    -20.597039     2A    -15.553298     3A    -11.293952
       4A    -11.260710     5A    -11.239368     6A    -11.238312
       7A    -11.232923     8A    -11.231356     9A    -11.228573
      10A    -11.223715    11A     -1.384887    12A     -1.221830
      13A     -1.130773    14A     -1.040183    15A     -0.991521
      16A     -0.937786    17A     -0.898588    18A     -0.817513
      19A     -0.798630    20A     -0.702002    21A     -0.678156
      22A     -0.672330    23A     -0.613309    24A     -0.607142
      25A     -0.596895    26A     -0.589028    27A     -0.575910
      28A     -0.570487    29A     -0.558990    30A     -0.536052
      31A     -0.526433    32A     -0.503992    33A     -0.483011
      34A     -0.469321    35A     -0.412214    36A     -0.318583
      37A     -0.289631

  @DF-RHF Final Energy:  -438.78519518607601

   => Energetics <=

    Nuclear Repulsion Energy =            524.6353767644413892
    One-Electron Energy =               -1636.7922520090505714
    Two-Electron Energy =                 673.3716800585332294
    Total Energy =                       -438.7851951860759527
  Basis Set: (AUG-CC-PVTZ AUX)
    Blend: AUG-CC-PVTZ-RI
    Molecular point group: c1

    Geometry (in Angstrom), charge = 0, multiplicity = 1:

       Center              X                  Y                   Z               Mass
    ------------   -----------------  -----------------  -----------------  -----------------
         O           -1.327570342328    -1.850748711178    -0.292841226997    15.994914619570
         N           -1.599283942328     0.780826888822    -0.399684226997    14.003074004430
         C           -0.320861942328     0.243282888822    -0.144672226997    12.000000000000
         C            0.822359057672     1.061961888822    -0.036961226997    12.000000000000
         C           -0.150992942328    -1.156487111178    -0.106803226997    12.000000000000
         C            2.082004057672     0.478569888822     0.150644773003    12.000000000000
         C            0.687193057672     2.562487888822    -0.101777226997    12.000000000000
         C            1.103796057672    -1.720877111178     0.114869773003    12.000000000000
         C            2.229381057672    -0.903524111178     0.223945773003    12.000000000000
         C           -2.650611942328     0.486049888822     0.582661773003    12.000000000000
         H            2.955750057672     1.121798888822     0.233557773003     1.007825032230
         H           -1.531676942328     1.784963888822    -0.533602226997     1.007825032230
         H            0.337229057672     2.902545888822    -1.084011226997     1.007825032230
         H           -0.015255942328     2.939802888822     0.650446773003     1.007825032230
         H            1.654151057672     3.037597888822     0.081332773003     1.007825032230
         H            1.204736057672    -2.805529111178     0.151733773003     1.007825032230
         H            3.208533057672    -1.346999111178     0.385033773003     1.007825032230
         H           -2.366455942328     0.753275888822     1.611029773003     1.007825032230
         H           -2.891874942328    -0.574310111178     0.549916773003     1.007825032230
         H           -3.540924942328     1.055613888822     0.304930773003     1.007825032230
         H           -0.996629942328    -2.864721111178    -0.268777226997     1.007825032230

  Basis Set: AUG-CC-PVTZ
    Blend: AUG-CC-PVTZ
  Basis Set: (AUG-CC-PVTZ AUX)
    Blend: AUG-CC-PVTZ-JKFIT
	 Reference Energy          =    -438.7851951860760096 [Eh]
	 Singles Energy            =      -0.0000000000000000 [Eh]
	 Same-Spin Energy          =      -0.4756767855749771 [Eh]
	 Opposite-Spin Energy      =      -1.5015776879370455 [Eh]
	 Correlation Energy        =      -1.9772544735120225 [Eh]
	 Total Energy              =    -440.7624496595880146 [Eh]

	 ================> DF-SCS-MP2 Energies <==================
	-----------------------------------------------------------
	 SCS Same-Spin Scale       =       0.3333333333333333 [-]
	 SCS Opposite-Spin Scale   =       1.2000000000000000 [-]
	 SCS Same-Spin Energy      =      -0.1585589285249924 [Eh]
	 SCS Opposite-Spin Energy  =      -1.8018932255244544 [Eh]
	 SCS Correlation Energy    =      -1.9604521540494468 [Eh]
	 SCS Total Energy          =    -440.7456473401254584 [Eh]
	-----------------------------------------------------------

  Dipole Moment: [D]
     X:     0.1918      Y:    -0.0109      Z:     0.7735     Total:     0.7970

*** Psi4 exiting successfully. Buy a developer a beer!
