                               Psi4 1.4a3.dev225

  ==> Input File <==

--------------------------------------------------------------------------
#psi4
#
memory 32 gb

molecule  {
0 1
  O       -1.2131028    -2.0411395    -0.2892575
  N       -1.5914490     0.7494560    -0.4145900
  C       -0.3130270     0.2119120    -0.1595780
  C        0.8301940     1.0305910    -0.0518670
  C       -0.1431580    -1.1878580    -0.1217090
  C        2.0898390     0.4471990     0.1357390
  C        0.6950280     2.5311170    -0.1166830
  C        1.1116310    -1.7522480     0.0999640
  C        2.2372160    -0.9348950     0.2090400
  C       -2.6427770     0.4546790     0.5677560
  H        2.9635850     1.0904280     0.2186520
  H       -1.5238420     1.7535930    -0.5485080
  H        0.3450640     2.8711750    -1.0989170
  H       -0.0074210     2.9084320     0.6355410
  H        1.6619860     3.0062270     0.0664270
  H        1.2125710    -2.8369000     0.1368280
  H        3.2163680    -1.3783700     0.3701280
  H       -2.3586210     0.7219050     1.5961240
  H       -2.8840400    -0.6056810     0.5350110
  H       -3.5330900     1.0242430     0.2900250
  H       -0.9887950    -2.8960920    -0.2836830
units angstrom
no_reorient  #important for SAPT in psi4, default
symmetry c1  #important for SAPT in psi4, default
}

set PROPERTIES_ORIGIN ["COM"]
properties('MP2/aug-cc-pvtz', properties = ['dipole'])
--------------------------------------------------------------------------

    Molecular point group: c1
  Charge       = 0
  Multiplicity = 1
  Basis Set: AUG-CC-PVTZ
    Blend: AUG-CC-PVTZ
  Basis Set: (AUG-CC-PVTZ AUX)
    Blend: AUG-CC-PVTZ-JKFIT

    Orbital Energies [Eh]
    ---------------------

    Doubly Occupied:

       1A    -20.574795     2A    -15.554750     3A    -11.296697
       4A    -11.265812     5A    -11.241681     6A    -11.241388
       7A    -11.230715     8A    -11.230216     9A    -11.228864
      10A    -11.224209    11A     -1.412758    12A     -1.225991
      13A     -1.131843    14A     -1.041994    15A     -0.998037
      16A     -0.938146    17A     -0.903273    18A     -0.831987
      19A     -0.803633    20A     -0.721289    21A     -0.697997
      22A     -0.670875    23A     -0.620335    24A     -0.607367
      25A     -0.599528    26A     -0.586774    27A     -0.575600
      28A     -0.569776    29A     -0.560232    30A     -0.535889
      31A     -0.529758    32A     -0.505817    33A     -0.484741
      34A     -0.471059    35A     -0.413933    36A     -0.317625
      37A     -0.291707

  @DF-RHF Final Energy:  -438.79747558754718

   => Energetics <=

    Nuclear Repulsion Energy =            523.8359899808588125
    One-Electron Energy =               -1634.9927446644380780
    Two-Electron Energy =                 672.3592790960320826
    Total Energy =                       -438.7974755875471828
  Basis Set: (AUG-CC-PVTZ AUX)
    Blend: AUG-CC-PVTZ-RI
    Molecular point group: c1

    Geometry (in Angstrom), charge = 0, multiplicity = 1:

       Center              X                  Y                   Z               Mass
    ------------   -----------------  -----------------  -----------------  -----------------
         O           -1.233379592118    -1.991214231847    -0.276509074578    15.994914619570
         N           -1.611725792118     0.799381268153    -0.401841574578    14.003074004430
         C           -0.333303792118     0.261837268153    -0.146829574578    12.000000000000
         C            0.809917207882     1.080516268153    -0.039118574578    12.000000000000
         C           -0.163434792118    -1.137932731847    -0.108960574578    12.000000000000
         C            2.069562207882     0.497124268153     0.148487425422    12.000000000000
         C            0.674751207882     2.581042268153    -0.103934574578    12.000000000000
         C            1.091354207882    -1.702322731847     0.112712425422    12.000000000000
         C            2.216939207882    -0.884969731847     0.221788425422    12.000000000000
         C           -2.663053792118     0.504604268153     0.580504425422    12.000000000000
         H            2.943308207882     1.140353268153     0.231400425422     1.007825032230
         H           -1.544118792118     1.803518268153    -0.535759574578     1.007825032230
         H            0.324787207882     2.921100268153    -1.086168574578     1.007825032230
         H           -0.027697792118     2.958357268153     0.648289425422     1.007825032230
         H            1.641709207882     3.056152268153     0.079175425422     1.007825032230
         H            1.192294207882    -2.786974731847     0.149576425422     1.007825032230
         H            3.196091207882    -1.328444731847     0.382876425422     1.007825032230
         H           -2.378897792118     0.771830268153     1.608872425422     1.007825032230
         H           -2.904316792118    -0.555755731847     0.547759425422     1.007825032230
         H           -3.553366792118     1.074168268153     0.302773425422     1.007825032230
         H           -1.009071792118    -2.846166731847    -0.270934574578     1.007825032230

  Basis Set: AUG-CC-PVTZ
    Blend: AUG-CC-PVTZ
  Basis Set: (AUG-CC-PVTZ AUX)
    Blend: AUG-CC-PVTZ-JKFIT
	 Reference Energy          =    -438.7974755875471828 [Eh]
	 Singles Energy            =      -0.0000000000000000 [Eh]
	 Same-Spin Energy          =      -0.4720770473139864 [Eh]
	 Opposite-Spin Energy      =      -1.4937611027428161 [Eh]
	 Correlation Energy        =      -1.9658381500568025 [Eh]
	 Total Energy              =    -440.7633137376039940 [Eh]

	 ================> DF-SCS-MP2 Energies <==================
	-----------------------------------------------------------
	 SCS Same-Spin Scale       =       0.3333333333333333 [-]
	 SCS Opposite-Spin Scale   =       1.2000000000000000 [-]
	 SCS Same-Spin Energy      =      -0.1573590157713288 [Eh]
	 SCS Opposite-Spin Energy  =      -1.7925133232913792 [Eh]
	 SCS Correlation Energy    =      -1.9498723390627080 [Eh]
	 SCS Total Energy          =    -440.7473479266099048 [Eh]
	-----------------------------------------------------------

  Dipole Moment: [D]
     X:     0.1815      Y:     0.2353      Z:     0.7823     Total:     0.8368

*** Psi4 exiting successfully. Buy a developer a beer!
