                               Psi4 1.4a3.dev225

  ==> Input File <==

--------------------------------------------------------------------------
#psi4
#
memory 32 gb

molecule  {
0 1
  O       -1.2691620    -1.9635190    -0.2989340
  N       -1.5914490     0.7494560    -0.4145900
  C       -0.3130270     0.2119120    -0.1595780
  C        0.8301940     1.0305910    -0.0518670
  C       -0.1431580    -1.1878580    -0.1217090
  C        2.0898390     0.4471990     0.1357390
  C        0.6950280     2.5311170    -0.1166830
  C        1.1116310    -1.7522480     0.0999640
  C        2.2372160    -0.9348950     0.2090400
  C       -2.6427770     0.4546790     0.5677560
  H        2.9234364     1.0608717     0.2148422
  H       -1.5238420     1.7535930    -0.5485080
  H        0.3450640     2.8711750    -1.0989170
  H       -0.0074210     2.9084320     0.6355410
  H        1.6619860     3.0062270     0.0664270
  H        1.2125710    -2.8369000     0.1368280
  H        3.2163680    -1.3783700     0.3701280
  H       -2.3586210     0.7219050     1.5961240
  H       -2.8840400    -0.6056810     0.5350110
  H       -3.5330900     1.0242430     0.2900250
  H       -0.9887950    -2.8960920    -0.2836830
units angstrom
no_reorient  #important for SAPT in psi4, default
symmetry c1  #important for SAPT in psi4, default
}

set PROPERTIES_ORIGIN ["COM"]
properties('MP2/aug-cc-pvtz', properties = ['dipole'])
--------------------------------------------------------------------------

    Molecular point group: c1
  Charge       = 0
  Multiplicity = 1
  Basis Set: AUG-CC-PVTZ
    Blend: AUG-CC-PVTZ
  Basis Set: (AUG-CC-PVTZ AUX)
    Blend: AUG-CC-PVTZ-JKFIT

    Orbital Energies [Eh]
    ---------------------

    Doubly Occupied:

       1A    -20.586778     2A    -15.553749     3A    -11.294664
       4A    -11.262689     5A    -11.239998     6A    -11.239682
       7A    -11.231125     8A    -11.229907     9A    -11.229421
      10A    -11.217847    11A     -1.396424    12A     -1.223691
      13A     -1.131310    14A     -1.040790    15A     -0.995348
      16A     -0.938418    17A     -0.900518    18A     -0.823210
      19A     -0.803645    20A     -0.706156    21A     -0.694893
      22A     -0.673034    23A     -0.618289    24A     -0.609193
      25A     -0.599074    26A     -0.587816    27A     -0.575638
      28A     -0.570689    29A     -0.560087    30A     -0.537225
      31A     -0.528194    32A     -0.507630    33A     -0.484072
      34A     -0.469921    35A     -0.412881    36A     -0.317793
      37A     -0.290283

  @DF-RHF Final Energy:  -438.80038417987078

   => Energetics <=

    Nuclear Repulsion Energy =            524.4055581822739214
    One-Electron Energy =               -1636.2477216622235119
    Two-Electron Energy =                 673.0417793000789288
    Total Energy =                       -438.8003841798707754
  Basis Set: (AUG-CC-PVTZ AUX)
    Blend: AUG-CC-PVTZ-RI
    Molecular point group: c1

    Geometry (in Angstrom), charge = 0, multiplicity = 1:

       Center              X                  Y                   Z               Mass
    ------------   -----------------  -----------------  -----------------  -----------------
         O           -1.282602659204    -1.922433166979    -0.285028515190    15.994914619570
         N           -1.604889659204     0.790541833021    -0.400684515190    14.003074004430
         C           -0.326467659204     0.252997833021    -0.145672515190    12.000000000000
         C            0.816753340796     1.071676833021    -0.037961515190    12.000000000000
         C           -0.156598659204    -1.146772166979    -0.107803515190    12.000000000000
         C            2.076398340796     0.488284833021     0.149644484810    12.000000000000
         C            0.681587340796     2.572202833021    -0.102777515190    12.000000000000
         C            1.098190340796    -1.711162166979     0.113869484810    12.000000000000
         C            2.223775340796    -0.893809166979     0.222945484810    12.000000000000
         C           -2.656217659204     0.495764833021     0.581661484810    12.000000000000
         H            2.909995740796     1.101957533021     0.228747684810     1.007825032230
         H           -1.537282659204     1.794678833021    -0.534602515190     1.007825032230
         H            0.331623340796     2.912260833021    -1.085011515190     1.007825032230
         H           -0.020861659204     2.949517833021     0.649446484810     1.007825032230
         H            1.648545340796     3.047312833021     0.080332484810     1.007825032230
         H            1.199130340796    -2.795814166979     0.150733484810     1.007825032230
         H            3.202927340796    -1.337284166979     0.384033484810     1.007825032230
         H           -2.372061659204     0.762990833021     1.610029484810     1.007825032230
         H           -2.897480659204    -0.564595166979     0.548916484810     1.007825032230
         H           -3.546530659204     1.065328833021     0.303930484810     1.007825032230
         H           -1.002235659204    -2.855006166979    -0.269777515190     1.007825032230

  Basis Set: AUG-CC-PVTZ
    Blend: AUG-CC-PVTZ
  Basis Set: (AUG-CC-PVTZ AUX)
    Blend: AUG-CC-PVTZ-JKFIT
	 Reference Energy          =    -438.8003841798707754 [Eh]
	 Singles Energy            =      -0.0000000000000000 [Eh]
	 Same-Spin Energy          =      -0.4736199629644562 [Eh]
	 Opposite-Spin Energy      =      -1.4969141386986875 [Eh]
	 Correlation Energy        =      -1.9705341016631437 [Eh]
	 Total Energy              =    -440.7709182815339091 [Eh]

	 ================> DF-SCS-MP2 Energies <==================
	-----------------------------------------------------------
	 SCS Same-Spin Scale       =       0.3333333333333333 [-]
	 SCS Opposite-Spin Scale   =       1.2000000000000000 [-]
	 SCS Same-Spin Energy      =      -0.1578733209881521 [Eh]
	 SCS Opposite-Spin Energy  =      -1.7962969664384250 [Eh]
	 SCS Correlation Energy    =      -1.9541702874265769 [Eh]
	 SCS Total Energy          =    -440.7545544672973392 [Eh]
	-----------------------------------------------------------

  Dipole Moment: [D]
     X:     0.2053      Y:     0.1108      Z:     0.7794     Total:     0.8135

*** Psi4 exiting successfully. Buy a developer a beer!
