                               Psi4 1.4a3.dev225

  ==> Input File <==

--------------------------------------------------------------------------
#psi4
#
memory 32 gb

molecule  {
0 1
  O       -1.2691620    -1.9635190    -0.2989340
  N       -1.5914490     0.7494560    -0.4145900
  C       -0.3130270     0.2119120    -0.1595780
  C        0.8301940     1.0305910    -0.0518670
  C       -0.1529505    -1.2101224    -0.1216302
  C        2.0898390     0.4471990     0.1357390
  C        0.6950280     2.5311170    -0.1166830
  C        1.1116310    -1.7522480     0.0999640
  C        2.2372160    -0.9348950     0.2090400
  C       -2.6427770     0.4546790     0.5677560
  H        2.9635850     1.0904280     0.2186520
  H       -1.5238420     1.7535930    -0.5485080
  H        0.3450640     2.8711750    -1.0989170
  H       -0.0074210     2.9084320     0.6355410
  H        1.6619860     3.0062270     0.0664270
  H        1.2125710    -2.8369000     0.1368280
  H        3.2163680    -1.3783700     0.3701280
  H       -2.3586210     0.7219050     1.5961240
  H       -2.8840400    -0.6056810     0.5350110
  H       -3.5330900     1.0242430     0.2900250
  H       -0.9887950    -2.8960920    -0.2836830
units angstrom
no_reorient  #important for SAPT in psi4, default
symmetry c1  #important for SAPT in psi4, default
}

set PROPERTIES_ORIGIN ["COM"]
properties('MP2/aug-cc-pvtz', properties = ['dipole'])
--------------------------------------------------------------------------

    Molecular point group: c1
  Charge       = 0
  Multiplicity = 1
  Basis Set: AUG-CC-PVTZ
    Blend: AUG-CC-PVTZ
  Basis Set: (AUG-CC-PVTZ AUX)
    Blend: AUG-CC-PVTZ-JKFIT

    Orbital Energies [Eh]
    ---------------------

    Doubly Occupied:

       1A    -20.591291     2A    -15.553772     3A    -11.296869
       4A    -11.264157     5A    -11.240101     6A    -11.239237
       7A    -11.230658     8A    -11.229255     9A    -11.228724
      10A    -11.222891    11A     -1.407854    12A     -1.223082
      13A     -1.129128    14A     -1.040054    15A     -0.991359
      16A     -0.937041    17A     -0.900142    18A     -0.823998
      19A     -0.801554    20A     -0.708011    21A     -0.694919
      22A     -0.673010    23A     -0.615449    24A     -0.609203
      25A     -0.599850    26A     -0.588981    27A     -0.576651
      28A     -0.570326    29A     -0.561051    30A     -0.536192
      31A     -0.527919    32A     -0.506023    33A     -0.481844
      34A     -0.469306    35A     -0.412708    36A     -0.317594
      37A     -0.287185

  @DF-RHF Final Energy:  -438.80029860076104

   => Energetics <=

    Nuclear Repulsion Energy =            523.9672973472295325
    One-Electron Energy =               -1635.3604100406760153
    Two-Electron Energy =                 672.5928140926854439
    Total Energy =                       -438.8002986007610389
  Basis Set: (AUG-CC-PVTZ AUX)
    Blend: AUG-CC-PVTZ-RI
    Molecular point group: c1

    Geometry (in Angstrom), charge = 0, multiplicity = 1:

       Center              X                  Y                   Z               Mass
    ------------   -----------------  -----------------  -----------------  -----------------
         O           -1.282040615494    -1.920701490706    -0.285063422325    15.994914619570
         N           -1.604327615494     0.792273509294    -0.400719422325    14.003074004430
         C           -0.325905615494     0.254729509294    -0.145707422325    12.000000000000
         C            0.817315384506     1.073408509294    -0.037996422325    12.000000000000
         C           -0.165829115494    -1.167304890706    -0.107759622325    12.000000000000
         C            2.076960384506     0.490016509294     0.149609577675    12.000000000000
         C            0.682149384506     2.573934509294    -0.102812422325    12.000000000000
         C            1.098752384506    -1.709430490706     0.113834577675    12.000000000000
         C            2.224337384506    -0.892077490706     0.222910577675    12.000000000000
         C           -2.655655615494     0.497496509294     0.581626577675    12.000000000000
         H            2.950706384506     1.133245509294     0.232522577675     1.007825032230
         H           -1.536720615494     1.796410509294    -0.534637422325     1.007825032230
         H            0.332185384506     2.913992509294    -1.085046422325     1.007825032230
         H           -0.020299615494     2.951249509294     0.649411577675     1.007825032230
         H            1.649107384506     3.049044509294     0.080297577675     1.007825032230
         H            1.199692384506    -2.794082490706     0.150698577675     1.007825032230
         H            3.203489384506    -1.335552490706     0.383998577675     1.007825032230
         H           -2.371499615494     0.764722509294     1.609994577675     1.007825032230
         H           -2.896918615494    -0.562863490706     0.548881577675     1.007825032230
         H           -3.545968615494     1.067060509294     0.303895577675     1.007825032230
         H           -1.001673615494    -2.853274490706    -0.269812422325     1.007825032230

  Basis Set: AUG-CC-PVTZ
    Blend: AUG-CC-PVTZ
  Basis Set: (AUG-CC-PVTZ AUX)
    Blend: AUG-CC-PVTZ-JKFIT
	 Reference Energy          =    -438.8002986007610389 [Eh]
	 Singles Energy            =      -0.0000000000000000 [Eh]
	 Same-Spin Energy          =      -0.4738220901090033 [Eh]
	 Opposite-Spin Energy      =      -1.4972377166410413 [Eh]
	 Correlation Energy        =      -1.9710598067500447 [Eh]
	 Total Energy              =    -440.7713584075110589 [Eh]

	 ================> DF-SCS-MP2 Energies <==================
	-----------------------------------------------------------
	 SCS Same-Spin Scale       =       0.3333333333333333 [-]
	 SCS Opposite-Spin Scale   =       1.2000000000000000 [-]
	 SCS Same-Spin Energy      =      -0.1579406967030011 [Eh]
	 SCS Opposite-Spin Energy  =      -1.7966852599692495 [Eh]
	 SCS Correlation Energy    =      -1.9546259566722506 [Eh]
	 SCS Total Energy          =    -440.7549245574332986 [Eh]
	-----------------------------------------------------------

  Dipole Moment: [D]
     X:     0.0697      Y:     0.0146      Z:     0.7579     Total:     0.7613

*** Psi4 exiting successfully. Buy a developer a beer!
