                               Psi4 1.4a3.dev225

  ==> Input File <==

--------------------------------------------------------------------------
#psi4
#
memory 32 gb

molecule  {
0 1
  O       -1.2691620    -1.9635190    -0.2989340
  N       -1.5914490     0.7494560    -0.4145900
  C       -0.3130270     0.2119120    -0.1595780
  C        0.8301940     1.0305910    -0.0518670
  C       -0.1431580    -1.1878580    -0.1217090
  C        2.2696852     0.3639050     0.1625245
  C        0.6950280     2.5311170    -0.1166830
  C        1.1116310    -1.7522480     0.0999640
  C        2.2372160    -0.9348950     0.2090400
  C       -2.6427770     0.4546790     0.5677560
  H        2.9635850     1.0904280     0.2186520
  H       -1.5238420     1.7535930    -0.5485080
  H        0.3450640     2.8711750    -1.0989170
  H       -0.0074210     2.9084320     0.6355410
  H        1.6619860     3.0062270     0.0664270
  H        1.2125710    -2.8369000     0.1368280
  H        3.2163680    -1.3783700     0.3701280
  H       -2.3586210     0.7219050     1.5961240
  H       -2.8840400    -0.6056810     0.5350110
  H       -3.5330900     1.0242430     0.2900250
  H       -0.9887950    -2.8960920    -0.2836830
units angstrom
no_reorient  #important for SAPT in psi4, default
symmetry c1  #important for SAPT in psi4, default
}

set PROPERTIES_ORIGIN ["COM"]
properties('MP2/aug-cc-pvtz', properties = ['dipole'])
--------------------------------------------------------------------------

    Molecular point group: c1
  Charge       = 0
  Multiplicity = 1
  Basis Set: AUG-CC-PVTZ
    Blend: AUG-CC-PVTZ
  Basis Set: (AUG-CC-PVTZ AUX)
    Blend: AUG-CC-PVTZ-JKFIT

    Orbital Energies [Eh]
    ---------------------

    Doubly Occupied:

       1A    -20.590820     2A    -15.553715     3A    -11.302736
       4A    -11.262978     5A    -11.252886     6A    -11.239983
       7A    -11.230355     8A    -11.226481     9A    -11.225097
      10A    -11.222341    11A     -1.400157    12A     -1.222883
      13A     -1.125934    14A     -1.032376    15A     -1.007769
      16A     -0.938307    17A     -0.896504    18A     -0.826015
      19A     -0.796823    20A     -0.706735    21A     -0.699826
      22A     -0.669702    23A     -0.631510    24A     -0.607353
      25A     -0.601219    26A     -0.588530    27A     -0.574671
      28A     -0.566032    29A     -0.560657    30A     -0.546323
      31A     -0.523469    32A     -0.514174    33A     -0.469704
      34A     -0.452795    35A     -0.415105    36A     -0.308769
      37A     -0.296834

  @DF-RHF Final Energy:  -438.76084380050924

   => Energetics <=

    Nuclear Repulsion Energy =            521.6544586837146653
    One-Electron Energy =               -1630.6554679568723714
    Two-Electron Energy =                 670.2401654726484139
    Total Energy =                       -438.7608438005092921
  Basis Set: (AUG-CC-PVTZ AUX)
    Blend: AUG-CC-PVTZ-RI
    Molecular point group: c1

    Geometry (in Angstrom), charge = 0, multiplicity = 1:

       Center              X                  Y                   Z               Mass
    ------------   -----------------  -----------------  -----------------  -----------------
         O           -1.298641118382    -1.915359110427    -0.287401260806    15.994914619570
         N           -1.620928118382     0.797615889573    -0.403057260806    14.003074004430
         C           -0.342506118382     0.260071889573    -0.148045260806    12.000000000000
         C            0.800714881618     1.078750889573    -0.040334260806    12.000000000000
         C           -0.172637118382    -1.139698110427    -0.110176260806    12.000000000000
         C            2.240206081618     0.412064889573     0.174057239194    12.000000000000
         C            0.665548881618     2.579276889573    -0.105150260806    12.000000000000
         C            1.082151881618    -1.704088110427     0.111496739194    12.000000000000
         C            2.207736881618    -0.886735110427     0.220572739194    12.000000000000
         C           -2.672256118382     0.502838889573     0.579288739194    12.000000000000
         H            2.934105881618     1.138587889573     0.230184739194     1.007825032230
         H           -1.553321118382     1.801752889573    -0.536975260806     1.007825032230
         H            0.315584881618     2.919334889573    -1.087384260806     1.007825032230
         H           -0.036900118382     2.956591889573     0.647073739194     1.007825032230
         H            1.632506881618     3.054386889573     0.077959739194     1.007825032230
         H            1.183091881618    -2.788740110427     0.148360739194     1.007825032230
         H            3.186888881618    -1.330210110427     0.381660739194     1.007825032230
         H           -2.388100118382     0.770064889573     1.607656739194     1.007825032230
         H           -2.913519118382    -0.557521110427     0.546543739194     1.007825032230
         H           -3.562569118382     1.072402889573     0.301557739194     1.007825032230
         H           -1.018274118382    -2.847932110427    -0.272150260806     1.007825032230

  Basis Set: AUG-CC-PVTZ
    Blend: AUG-CC-PVTZ
  Basis Set: (AUG-CC-PVTZ AUX)
    Blend: AUG-CC-PVTZ-JKFIT
	 Reference Energy          =    -438.7608438005092353 [Eh]
	 Singles Energy            =      -0.0000000000000000 [Eh]
	 Same-Spin Energy          =      -0.4728229628869727 [Eh]
	 Opposite-Spin Energy      =      -1.4987910855707924 [Eh]
	 Correlation Energy        =      -1.9716140484577651 [Eh]
	 Total Energy              =    -440.7324578489669875 [Eh]

	 ================> DF-SCS-MP2 Energies <==================
	-----------------------------------------------------------
	 SCS Same-Spin Scale       =       0.3333333333333333 [-]
	 SCS Opposite-Spin Scale   =       1.2000000000000000 [-]
	 SCS Same-Spin Energy      =      -0.1576076542956575 [Eh]
	 SCS Opposite-Spin Energy  =      -1.7985493026849508 [Eh]
	 SCS Correlation Energy    =      -1.9561569569806083 [Eh]
	 SCS Total Energy          =    -440.7170007574898705 [Eh]
	-----------------------------------------------------------

  Dipole Moment: [D]
     X:     0.1414      Y:     0.1042      Z:     0.7706     Total:     0.7904

*** Psi4 exiting successfully. Buy a developer a beer!
