                               Psi4 1.4a3.dev225

  ==> Input File <==

--------------------------------------------------------------------------
#psi4
#
memory 32 gb

molecule  {
0 1
  O       -1.2691620    -1.9635190    -0.2989340
  N       -1.5914490     0.7494560    -0.4145900
  C       -0.3130270     0.2119120    -0.1595780
  C        0.8301940     1.0305910    -0.0518670
  C       -0.1431580    -1.1878580    -0.1217090
  C        2.0898390     0.4471990     0.1357390
  C        0.6950280     2.5311170    -0.1166830
  C        1.1116310    -1.7522480     0.0999640
  C        2.2372160    -0.9348950     0.2090400
  C       -2.6427770     0.4546790     0.5677560
  H        2.8029907     0.9722027     0.2034126
  H       -1.5238420     1.7535930    -0.5485080
  H        0.3450640     2.8711750    -1.0989170
  H       -0.0074210     2.9084320     0.6355410
  H        1.6619860     3.0062270     0.0664270
  H        1.2125710    -2.8369000     0.1368280
  H        3.2163680    -1.3783700     0.3701280
  H       -2.3586210     0.7219050     1.5961240
  H       -2.8840400    -0.6056810     0.5350110
  H       -3.5330900     1.0242430     0.2900250
  H       -0.9887950    -2.8960920    -0.2836830
units angstrom
no_reorient  #important for SAPT in psi4, default
symmetry c1  #important for SAPT in psi4, default
}

set PROPERTIES_ORIGIN ["COM"]
properties('MP2/aug-cc-pvtz', properties = ['dipole'])
--------------------------------------------------------------------------

    Molecular point group: c1
  Charge       = 0
  Multiplicity = 1
  Basis Set: AUG-CC-PVTZ
    Blend: AUG-CC-PVTZ
  Basis Set: (AUG-CC-PVTZ AUX)
    Blend: AUG-CC-PVTZ-JKFIT

    Orbital Energies [Eh]
    ---------------------

    Doubly Occupied:

       1A    -20.586522     2A    -15.553285     3A    -11.294367
       4A    -11.261756     5A    -11.239391     6A    -11.239022
       7A    -11.230257     8A    -11.229658     9A    -11.229047
      10A    -11.199508    11A     -1.396145    12A     -1.223258
      13A     -1.133037    14A     -1.041295    15A     -1.000863
      16A     -0.941227    17A     -0.900341    18A     -0.828124
      19A     -0.811891    20A     -0.706438    21A     -0.703431
      22A     -0.676775    23A     -0.624024    24A     -0.611803
      25A     -0.600297    26A     -0.587730    27A     -0.575849
      28A     -0.571639    29A     -0.560716    30A     -0.539582
      31A     -0.528138    32A     -0.512197    33A     -0.483423
      34A     -0.469394    35A     -0.412562    36A     -0.317304
      37A     -0.289793

  @DF-RHF Final Energy:  -438.76680936566811

   => Energetics <=

    Nuclear Repulsion Energy =            525.3270157262454632
    One-Electron Energy =               -1637.9674707937560925
    Two-Electron Energy =                 673.8736457018425199
    Total Energy =                       -438.7668093656681094
  Basis Set: (AUG-CC-PVTZ AUX)
    Blend: AUG-CC-PVTZ-RI
    Molecular point group: c1

    Geometry (in Angstrom), charge = 0, multiplicity = 1:

       Center              X                  Y                   Z               Mass
    ------------   -----------------  -----------------  -----------------  -----------------
         O           -1.281717157360    -1.921781283491    -0.284944486189    15.994914619570
         N           -1.604004157360     0.791193716509    -0.400600486189    14.003074004430
         C           -0.325582157360     0.253649716509    -0.145588486189    12.000000000000
         C            0.817638842640     1.072328716509    -0.037877486189    12.000000000000
         C           -0.155713157360    -1.146120283491    -0.107719486189    12.000000000000
         C            2.077283842640     0.488936716509     0.149728513811    12.000000000000
         C            0.682472842640     2.572854716509    -0.102693486189    12.000000000000
         C            1.099075842640    -1.710510283491     0.113953513811    12.000000000000
         C            2.224660842640    -0.893157283491     0.223029513811    12.000000000000
         C           -2.655332157360     0.496416716509     0.581745513811    12.000000000000
         H            2.790435542640     1.013940416509     0.217402113811     1.007825032230
         H           -1.536397157360     1.795330716509    -0.534518486189     1.007825032230
         H            0.332508842640     2.912912716509    -1.084927486189     1.007825032230
         H           -0.019976157360     2.950169716509     0.649530513811     1.007825032230
         H            1.649430842640     3.047964716509     0.080416513811     1.007825032230
         H            1.200015842640    -2.795162283491     0.150817513811     1.007825032230
         H            3.203812842640    -1.336632283491     0.384117513811     1.007825032230
         H           -2.371176157360     0.763642716509     1.610113513811     1.007825032230
         H           -2.896595157360    -0.563943283491     0.549000513811     1.007825032230
         H           -3.545645157360     1.065980716509     0.304014513811     1.007825032230
         H           -1.001350157360    -2.854354283491    -0.269693486189     1.007825032230

  Basis Set: AUG-CC-PVTZ
    Blend: AUG-CC-PVTZ
  Basis Set: (AUG-CC-PVTZ AUX)
    Blend: AUG-CC-PVTZ-JKFIT
	 Reference Energy          =    -438.7668093656681094 [Eh]
	 Singles Energy            =      -0.0000000000000000 [Eh]
	 Same-Spin Energy          =      -0.4734669384605232 [Eh]
	 Opposite-Spin Energy      =      -1.4966282256937351 [Eh]
	 Correlation Energy        =      -1.9700951641542583 [Eh]
	 Total Energy              =    -440.7369045298223682 [Eh]

	 ================> DF-SCS-MP2 Energies <==================
	-----------------------------------------------------------
	 SCS Same-Spin Scale       =       0.3333333333333333 [-]
	 SCS Opposite-Spin Scale   =       1.2000000000000000 [-]
	 SCS Same-Spin Energy      =      -0.1578223128201744 [Eh]
	 SCS Opposite-Spin Energy  =      -1.7959538708324820 [Eh]
	 SCS Correlation Energy    =      -1.9537761836526564 [Eh]
	 SCS Total Energy          =    -440.7205855493207878 [Eh]
	-----------------------------------------------------------

  Dipole Moment: [D]
     X:     0.2389      Y:     0.1359      Z:     0.7812     Total:     0.8282

*** Psi4 exiting successfully. Buy a developer a beer!
