                               Psi4 1.4a3.dev225

  ==> Input File <==

--------------------------------------------------------------------------
#psi4
#
memory 32 gb

molecule  {
0 1
  O       -1.2691620    -1.9635190    -0.2989340
  N       -1.5914490     0.7494560    -0.4145900
  C       -0.3130270     0.2119120    -0.1595780
  C        0.8301940     1.0305910    -0.0518670
  C       -0.1431580    -1.1878580    -0.1217090
  C        2.0898390     0.4471990     0.1357390
  C        0.6950280     2.5311170    -0.1166830
  C        1.1116310    -1.7522480     0.0999640
  C        2.2372160    -0.9348950     0.2090400
  C       -2.6427770     0.4546790     0.5677560
  H        2.9475256     1.0786055     0.2171281
  H       -1.5238420     1.7535930    -0.5485080
  H        0.3450640     2.8711750    -1.0989170
  H       -0.0074210     2.9084320     0.6355410
  H        1.6619860     3.0062270     0.0664270
  H        1.2125710    -2.8369000     0.1368280
  H        3.2163680    -1.3783700     0.3701280
  H       -2.3586210     0.7219050     1.5961240
  H       -2.8840400    -0.6056810     0.5350110
  H       -3.5330900     1.0242430     0.2900250
  H       -0.9887950    -2.8960920    -0.2836830
units angstrom
no_reorient  #important for SAPT in psi4, default
symmetry c1  #important for SAPT in psi4, default
}

set PROPERTIES_ORIGIN ["COM"]
properties('MP2/aug-cc-pvtz', properties = ['dipole'])
--------------------------------------------------------------------------

    Molecular point group: c1
  Charge       = 0
  Multiplicity = 1
  Basis Set: AUG-CC-PVTZ
    Blend: AUG-CC-PVTZ
  Basis Set: (AUG-CC-PVTZ AUX)
    Blend: AUG-CC-PVTZ-JKFIT

    Orbital Energies [Eh]
    ---------------------

    Doubly Occupied:

       1A    -20.586866     2A    -15.553869     3A    -11.294774
       4A    -11.262918     5A    -11.240282     6A    -11.239760
       7A    -11.231372     8A    -11.230145     9A    -11.229379
      10A    -11.221481    11A     -1.396517    12A     -1.223812
      13A     -1.131172    14A     -1.040789    15A     -0.994656
      16A     -0.938039    17A     -0.900596    18A     -0.822913
      19A     -0.802067    20A     -0.706278    21A     -0.693689
      22A     -0.672153    23A     -0.617676    24A     -0.608378
      25A     -0.598573    26A     -0.587842    27A     -0.575599
      28A     -0.570432    29A     -0.559930    30A     -0.536707
      31A     -0.528211    32A     -0.506221    33A     -0.484251
      34A     -0.470071    35A     -0.412971    36A     -0.317950
      37A     -0.290426

  @DF-RHF Final Energy:  -438.80126395439333

   => Energetics <=

    Nuclear Repulsion Energy =            524.2415300991095819
    One-Electron Energy =               -1635.9280596690691709
    Two-Electron Energy =                 672.8852656155661407
    Total Energy =                       -438.8012639543933346
  Basis Set: (AUG-CC-PVTZ AUX)
    Blend: AUG-CC-PVTZ-RI
    Molecular point group: c1

    Geometry (in Angstrom), charge = 0, multiplicity = 1:

       Center              X                  Y                   Z               Mass
    ------------   -----------------  -----------------  -----------------  -----------------
         O           -1.282779760014    -1.922563543677    -0.285045320844    15.994914619570
         N           -1.605066760014     0.790411456323    -0.400701320844    14.003074004430
         C           -0.326644760014     0.252867456323    -0.145689320844    12.000000000000
         C            0.816576239986     1.071546456323    -0.037978320844    12.000000000000
         C           -0.156775760014    -1.146902543677    -0.107820320844    12.000000000000
         C            2.076221239986     0.488154456323     0.149627679156    12.000000000000
         C            0.681410239986     2.572072456323    -0.102794320844    12.000000000000
         C            1.098013239986    -1.711292543677     0.113852679156    12.000000000000
         C            2.223598239986    -0.893939543677     0.222928679156    12.000000000000
         C           -2.656394760014     0.495634456323     0.581644679156    12.000000000000
         H            2.933907839986     1.119560956323     0.231016779156     1.007825032230
         H           -1.537459760014     1.794548456323    -0.534619320844     1.007825032230
         H            0.331446239986     2.912130456323    -1.085028320844     1.007825032230
         H           -0.021038760014     2.949387456323     0.649429679156     1.007825032230
         H            1.648368239986     3.047182456323     0.080315679156     1.007825032230
         H            1.198953239986    -2.795944543677     0.150716679156     1.007825032230
         H            3.202750239986    -1.337414543677     0.384016679156     1.007825032230
         H           -2.372238760014     0.762860456323     1.610012679156     1.007825032230
         H           -2.897657760014    -0.564725543677     0.548899679156     1.007825032230
         H           -3.546707760014     1.065198456323     0.303913679156     1.007825032230
         H           -1.002412760014    -2.855136543677    -0.269794320844     1.007825032230

  Basis Set: AUG-CC-PVTZ
    Blend: AUG-CC-PVTZ
  Basis Set: (AUG-CC-PVTZ AUX)
    Blend: AUG-CC-PVTZ-JKFIT
	 Reference Energy          =    -438.8012639543933346 [Eh]
	 Singles Energy            =      -0.0000000000000000 [Eh]
	 Same-Spin Energy          =      -0.4736786060460106 [Eh]
	 Opposite-Spin Energy      =      -1.4970942392125097 [Eh]
	 Correlation Energy        =      -1.9707728452585203 [Eh]
	 Total Energy              =    -440.7720367996518576 [Eh]

	 ================> DF-SCS-MP2 Energies <==================
	-----------------------------------------------------------
	 SCS Same-Spin Scale       =       0.3333333333333333 [-]
	 SCS Opposite-Spin Scale   =       1.2000000000000000 [-]
	 SCS Same-Spin Energy      =      -0.1578928686820035 [Eh]
	 SCS Opposite-Spin Energy  =      -1.7965130870550117 [Eh]
	 SCS Correlation Energy    =      -1.9544059557370153 [Eh]
	 SCS Total Energy          =    -440.7556699101303366 [Eh]
	-----------------------------------------------------------

  Dipole Moment: [D]
     X:     0.1946      Y:     0.1032      Z:     0.7787     Total:     0.8092

*** Psi4 exiting successfully. Buy a developer a beer!
