                               Psi4 1.4a3.dev225

  ==> Input File <==

--------------------------------------------------------------------------
#psi4
#
memory 32 gb

molecule  {
0 1
  O       -1.2691620    -1.9635190    -0.2989340
  N       -1.5914490     0.7494560    -0.4145900
  C       -0.3130270     0.2119120    -0.1595780
  C        0.8301940     1.0305910    -0.0518670
  C       -0.1431580    -1.1878580    -0.1217090
  C        2.0898390     0.4471990     0.1357390
  C        0.6950280     2.5311170    -0.1166830
  C        1.1116310    -1.7522480     0.0999640
  C        2.2775504    -0.9056058     0.2129487
  C       -2.6427770     0.4546790     0.5677560
  H        2.9635850     1.0904280     0.2186520
  H       -1.5238420     1.7535930    -0.5485080
  H        0.3450640     2.8711750    -1.0989170
  H       -0.0074210     2.9084320     0.6355410
  H        1.6619860     3.0062270     0.0664270
  H        1.2125710    -2.8369000     0.1368280
  H        3.2163680    -1.3783700     0.3701280
  H       -2.3586210     0.7219050     1.5961240
  H       -2.8840400    -0.6056810     0.5350110
  H       -3.5330900     1.0242430     0.2900250
  H       -0.9887950    -2.8960920    -0.2836830
units angstrom
no_reorient  #important for SAPT in psi4, default
symmetry c1  #important for SAPT in psi4, default
}

set PROPERTIES_ORIGIN ["COM"]
properties('MP2/aug-cc-pvtz', properties = ['dipole'])
--------------------------------------------------------------------------

    Molecular point group: c1
  Charge       = 0
  Multiplicity = 1
  Basis Set: AUG-CC-PVTZ
    Blend: AUG-CC-PVTZ
  Basis Set: (AUG-CC-PVTZ AUX)
    Blend: AUG-CC-PVTZ-JKFIT

    Orbital Energies [Eh]
    ---------------------

    Doubly Occupied:

       1A    -20.586727     2A    -15.554823     3A    -11.295352
       4A    -11.264672     5A    -11.240352     6A    -11.239991
       7A    -11.234190     8A    -11.231099     9A    -11.229396
      10A    -11.222405    11A     -1.396500    12A     -1.224536
      13A     -1.129155    14A     -1.036610    15A     -0.997979
      16A     -0.936808    17A     -0.900305    18A     -0.825235
      19A     -0.800070    20A     -0.705767    21A     -0.693440
      22A     -0.669602    23A     -0.622891    24A     -0.609205
      25A     -0.598006    26A     -0.587165    27A     -0.575612
      28A     -0.569461    29A     -0.560059    30A     -0.533783
      31A     -0.530821    32A     -0.499091    33A     -0.489017
      34A     -0.468945    35A     -0.412646    36A     -0.315673
      37A     -0.292336

  @DF-RHF Final Energy:  -438.79791327694699

   => Energetics <=

    Nuclear Repulsion Energy =            523.6206522353118089
    One-Electron Energy =               -1634.6776834171728296
    Two-Electron Energy =                 672.2591179049140919
    Total Energy =                       -438.7979132769469288
  Basis Set: (AUG-CC-PVTZ AUX)
    Blend: AUG-CC-PVTZ-RI
    Molecular point group: c1

    Geometry (in Angstrom), charge = 0, multiplicity = 1:

       Center              X                  Y                   Z               Mass
    ------------   -----------------  -----------------  -----------------  -----------------
         O           -1.286428600374    -1.925214365376    -0.285398682301    15.994914619570
         N           -1.608715600374     0.787760634624    -0.401054682301    14.003074004430
         C           -0.330293600374     0.250216634624    -0.146042682301    12.000000000000
         C            0.812927399626     1.068895634624    -0.038331682301    12.000000000000
         C           -0.160424600374    -1.149553365376    -0.108173682301    12.000000000000
         C            2.072572399626     0.485503634624     0.149274317699    12.000000000000
         C            0.677761399626     2.569421634624    -0.103147682301    12.000000000000
         C            1.094364399626    -1.713943365376     0.113499317699    12.000000000000
         C            2.260283799626    -0.867301165376     0.226484017699    12.000000000000
         C           -2.660043600374     0.492983634624     0.581291317699    12.000000000000
         H            2.946318399626     1.128732634624     0.232187317699     1.007825032230
         H           -1.541108600374     1.791897634624    -0.534972682301     1.007825032230
         H            0.327797399626     2.909479634624    -1.085381682301     1.007825032230
         H           -0.024687600374     2.946736634624     0.649076317699     1.007825032230
         H            1.644719399626     3.044531634624     0.079962317699     1.007825032230
         H            1.195304399626    -2.798595365376     0.150363317699     1.007825032230
         H            3.199101399626    -1.340065365376     0.383663317699     1.007825032230
         H           -2.375887600374     0.760209634624     1.609659317699     1.007825032230
         H           -2.901306600374    -0.567376365376     0.548546317699     1.007825032230
         H           -3.550356600374     1.062547634624     0.303560317699     1.007825032230
         H           -1.006061600374    -2.857787365376    -0.270147682301     1.007825032230

  Basis Set: AUG-CC-PVTZ
    Blend: AUG-CC-PVTZ
  Basis Set: (AUG-CC-PVTZ AUX)
    Blend: AUG-CC-PVTZ-JKFIT
	 Reference Energy          =    -438.7979132769469857 [Eh]
	 Singles Energy            =      -0.0000000000000000 [Eh]
	 Same-Spin Energy          =      -0.4736239597768059 [Eh]
	 Opposite-Spin Energy      =      -1.4975667311260572 [Eh]
	 Correlation Energy        =      -1.9711906909028631 [Eh]
	 Total Energy              =    -440.7691039678498441 [Eh]

	 ================> DF-SCS-MP2 Energies <==================
	-----------------------------------------------------------
	 SCS Same-Spin Scale       =       0.3333333333333333 [-]
	 SCS Opposite-Spin Scale   =       1.2000000000000000 [-]
	 SCS Same-Spin Energy      =      -0.1578746532589353 [Eh]
	 SCS Opposite-Spin Energy  =      -1.7970800773512685 [Eh]
	 SCS Correlation Energy    =      -1.9549547306102038 [Eh]
	 SCS Total Energy          =    -440.7528680075571970 [Eh]
	-----------------------------------------------------------

  Dipole Moment: [D]
     X:     0.1700      Y:     0.1174      Z:     0.7782     Total:     0.8052

*** Psi4 exiting successfully. Buy a developer a beer!
