                               Psi4 1.4a3.dev225

  ==> Input File <==

--------------------------------------------------------------------------
#psi4
#
memory 32 gb

molecule  {
0 1
  O       -1.2691620    -1.9635190    -0.2989340
  N       -1.5914490     0.7494560    -0.4145900
  C       -0.3130270     0.2119120    -0.1595780
  C        0.8301940     1.0305910    -0.0518670
  C       -0.1431580    -1.1878580    -0.1217090
  C        2.0898390     0.4471990     0.1357390
  C        0.6950280     2.5311170    -0.1166830
  C        1.1116310    -1.7522480     0.0999640
  C        2.2583930    -1.1334916     0.2195728
  C       -2.6427770     0.4546790     0.5677560
  H        2.9635850     1.0904280     0.2186520
  H       -1.5238420     1.7535930    -0.5485080
  H        0.3450640     2.8711750    -1.0989170
  H       -0.0074210     2.9084320     0.6355410
  H        1.6619860     3.0062270     0.0664270
  H        1.2125710    -2.8369000     0.1368280
  H        3.2163680    -1.3783700     0.3701280
  H       -2.3586210     0.7219050     1.5961240
  H       -2.8840400    -0.6056810     0.5350110
  H       -3.5330900     1.0242430     0.2900250
  H       -0.9887950    -2.8960920    -0.2836830
units angstrom
no_reorient  #important for SAPT in psi4, default
symmetry c1  #important for SAPT in psi4, default
}

set PROPERTIES_ORIGIN ["COM"]
properties('MP2/aug-cc-pvtz', properties = ['dipole'])
--------------------------------------------------------------------------

    Molecular point group: c1
  Charge       = 0
  Multiplicity = 1
  Basis Set: AUG-CC-PVTZ
    Blend: AUG-CC-PVTZ
  Basis Set: (AUG-CC-PVTZ AUX)
    Blend: AUG-CC-PVTZ-JKFIT

    Orbital Energies [Eh]
    ---------------------

    Doubly Occupied:

       1A    -20.586578     2A    -15.554360     3A    -11.291908
       4A    -11.263633     5A    -11.241911     6A    -11.239928
       7A    -11.238352     8A    -11.234529     9A    -11.229545
      10A    -11.228724    11A     -1.395667    12A     -1.223713
      13A     -1.125413    14A     -1.051067    15A     -0.985486
      16A     -0.930086    17A     -0.905352    18A     -0.819634
      19A     -0.809917    20A     -0.704249    21A     -0.697506
      22A     -0.681755    23A     -0.622606    24A     -0.609134
      25A     -0.595275    26A     -0.588079    27A     -0.572788
      28A     -0.566702    29A     -0.560356    30A     -0.550631
      31A     -0.527472    32A     -0.506428    33A     -0.466056
      34A     -0.453815    35A     -0.413166    36A     -0.330666
      37A     -0.277523

  @DF-RHF Final Energy:  -438.75868555284234

   => Energetics <=

    Nuclear Repulsion Energy =            522.2890026833828188
    One-Electron Energy =               -1631.9353561563045787
    Two-Electron Energy =                 670.8876679200794797
    Total Energy =                       -438.7586855528423939
  Basis Set: (AUG-CC-PVTZ AUX)
    Blend: AUG-CC-PVTZ-RI
    Molecular point group: c1

    Geometry (in Angstrom), charge = 0, multiplicity = 1:

       Center              X                  Y                   Z               Mass
    ------------   -----------------  -----------------  -----------------  -----------------
         O           -1.284751608947    -1.905265805926    -0.285978539636    15.994914619570
         N           -1.607038608947     0.807709194074    -0.401634539636    14.003074004430
         C           -0.328616608947     0.270165194074    -0.146622539636    12.000000000000
         C            0.814604391053     1.088844194074    -0.038911539636    12.000000000000
         C           -0.158747608947    -1.129604805926    -0.108753539636    12.000000000000
         C            2.074249391053     0.505452194074     0.148694460364    12.000000000000
         C            0.679438391053     2.589370194074    -0.103727539636    12.000000000000
         C            1.096041391053    -1.693994805926     0.112919460364    12.000000000000
         C            2.242803391053    -1.075238405926     0.232528260364    12.000000000000
         C           -2.658366608947     0.512932194074     0.580711460364    12.000000000000
         H            2.947995391053     1.148681194074     0.231607460364     1.007825032230
         H           -1.539431608947     1.811846194074    -0.535552539636     1.007825032230
         H            0.329474391053     2.929428194074    -1.085961539636     1.007825032230
         H           -0.023010608947     2.966685194074     0.648496460364     1.007825032230
         H            1.646396391053     3.064480194074     0.079382460364     1.007825032230
         H            1.196981391053    -2.778646805926     0.149783460364     1.007825032230
         H            3.200778391053    -1.320116805926     0.383083460364     1.007825032230
         H           -2.374210608947     0.780158194074     1.609079460364     1.007825032230
         H           -2.899629608947    -0.547427805926     0.547966460364     1.007825032230
         H           -3.548679608947     1.082496194074     0.302980460364     1.007825032230
         H           -1.004384608947    -2.837838805926    -0.270727539636     1.007825032230

  Basis Set: AUG-CC-PVTZ
    Blend: AUG-CC-PVTZ
  Basis Set: (AUG-CC-PVTZ AUX)
    Blend: AUG-CC-PVTZ-JKFIT
	 Reference Energy          =    -438.7586855528423371 [Eh]
	 Singles Energy            =      -0.0000000000000000 [Eh]
	 Same-Spin Energy          =      -0.4737410941317056 [Eh]
	 Opposite-Spin Energy      =      -1.5002106459255899 [Eh]
	 Correlation Energy        =      -1.9739517400572955 [Eh]
	 Total Energy              =    -440.7326372928996534 [Eh]

	 ================> DF-SCS-MP2 Energies <==================
	-----------------------------------------------------------
	 SCS Same-Spin Scale       =       0.3333333333333333 [-]
	 SCS Opposite-Spin Scale   =       1.2000000000000000 [-]
	 SCS Same-Spin Energy      =      -0.1579136980439019 [Eh]
	 SCS Opposite-Spin Energy  =      -1.8002527751107078 [Eh]
	 SCS Correlation Energy    =      -1.9581664731546096 [Eh]
	 SCS Total Energy          =    -440.7168520259969569 [Eh]
	-----------------------------------------------------------

  Dipole Moment: [D]
     X:     0.2288      Y:     0.0972      Z:     0.7863     Total:     0.8246

*** Psi4 exiting successfully. Buy a developer a beer!
