                               Psi4 1.4a3.dev225

  ==> Input File <==

--------------------------------------------------------------------------
#psi4
#
memory 32 gb

molecule  {
0 1
  O       -1.2691620    -1.9635190    -0.2989340
  N       -1.5914490     0.7494560    -0.4145900
  C       -0.3130270     0.2119120    -0.1595780
  C        0.8301940     1.0305910    -0.0518670
  C       -0.1623577    -1.2325520    -0.1214839
  C        2.0898390     0.4471990     0.1357390
  C        0.6950280     2.5311170    -0.1166830
  C        1.1116310    -1.7522480     0.0999640
  C        2.2372160    -0.9348950     0.2090400
  C       -2.6427770     0.4546790     0.5677560
  H        2.9635850     1.0904280     0.2186520
  H       -1.5238420     1.7535930    -0.5485080
  H        0.3450640     2.8711750    -1.0989170
  H       -0.0074210     2.9084320     0.6355410
  H        1.6619860     3.0062270     0.0664270
  H        1.2125710    -2.8369000     0.1368280
  H        3.2163680    -1.3783700     0.3701280
  H       -2.3586210     0.7219050     1.5961240
  H       -2.8840400    -0.6056810     0.5350110
  H       -3.5330900     1.0242430     0.2900250
  H       -0.9887950    -2.8960920    -0.2836830
units angstrom
no_reorient  #important for SAPT in psi4, default
symmetry c1  #important for SAPT in psi4, default
}

set PROPERTIES_ORIGIN ["COM"]
properties('MP2/aug-cc-pvtz', properties = ['dipole'])
--------------------------------------------------------------------------

    Molecular point group: c1
  Charge       = 0
  Multiplicity = 1
  Basis Set: AUG-CC-PVTZ
    Blend: AUG-CC-PVTZ
  Basis Set: (AUG-CC-PVTZ AUX)
    Blend: AUG-CC-PVTZ-JKFIT

    Orbital Energies [Eh]
    ---------------------

    Doubly Occupied:

       1A    -20.595710     2A    -15.553617     3A    -11.299000
       4A    -11.265134     5A    -11.240400     6A    -11.237987
       7A    -11.229837     8A    -11.228164     9A    -11.228091
      10A    -11.221888    11A     -1.419561    12A     -1.222301
      13A     -1.127206    14A     -1.039309    15A     -0.988644
      16A     -0.936294    17A     -0.899641    18A     -0.825741
      19A     -0.801985    20A     -0.710576    21A     -0.695592
      22A     -0.674646    23A     -0.614660    24A     -0.610710
      25A     -0.602262    26A     -0.589661    27A     -0.577835
      28A     -0.569833    29A     -0.561765    30A     -0.535961
      31A     -0.527539    32A     -0.506709    33A     -0.478848
      34A     -0.468340    35A     -0.412381    36A     -0.317160
      37A     -0.283883

  @DF-RHF Final Energy:  -438.79799478393375

   => Energetics <=

    Nuclear Repulsion Energy =            523.8071340177245929
    One-Electron Energy =               -1635.0125153384369696
    Two-Electron Energy =                 672.4073865367786311
    Total Energy =                       -438.7979947839337456
  Basis Set: (AUG-CC-PVTZ AUX)
    Blend: AUG-CC-PVTZ-RI
    Molecular point group: c1

    Geometry (in Angstrom), charge = 0, multiplicity = 1:

       Center              X                  Y                   Z               Mass
    ------------   -----------------  -----------------  -----------------  -----------------
         O           -1.281217132467    -1.918738058983    -0.285076229065    15.994914619570
         N           -1.603504132467     0.794236941017    -0.400732229065    14.003074004430
         C           -0.325082132467     0.256692941017    -0.145720229065    12.000000000000
         C            0.818138867533     1.075371941017    -0.038009229065    12.000000000000
         C           -0.174412832467    -1.187771058983    -0.107626129065    12.000000000000
         C            2.077783867533     0.491979941017     0.149596770935    12.000000000000
         C            0.682972867533     2.575897941017    -0.102825229065    12.000000000000
         C            1.099575867533    -1.707467058983     0.113821770935    12.000000000000
         C            2.225160867533    -0.890114058983     0.222897770935    12.000000000000
         C           -2.654832132467     0.499459941017     0.581613770935    12.000000000000
         H            2.951529867533     1.135208941017     0.232509770935     1.007825032230
         H           -1.535897132467     1.798373941017    -0.534650229065     1.007825032230
         H            0.333008867533     2.915955941017    -1.085059229065     1.007825032230
         H           -0.019476132467     2.953212941017     0.649398770935     1.007825032230
         H            1.649930867533     3.051007941017     0.080284770935     1.007825032230
         H            1.200515867533    -2.792119058983     0.150685770935     1.007825032230
         H            3.204312867533    -1.333589058983     0.383985770935     1.007825032230
         H           -2.370676132467     0.766685941017     1.609981770935     1.007825032230
         H           -2.896095132467    -0.560900058983     0.548868770935     1.007825032230
         H           -3.545145132467     1.069023941017     0.303882770935     1.007825032230
         H           -1.000850132467    -2.851311058983    -0.269825229065     1.007825032230

  Basis Set: AUG-CC-PVTZ
    Blend: AUG-CC-PVTZ
  Basis Set: (AUG-CC-PVTZ AUX)
    Blend: AUG-CC-PVTZ-JKFIT
	 Reference Energy          =    -438.7979947839337456 [Eh]
	 Singles Energy            =      -0.0000000000000000 [Eh]
	 Same-Spin Energy          =      -0.4739382320907435 [Eh]
	 Opposite-Spin Energy      =      -1.4973076206727667 [Eh]
	 Correlation Energy        =      -1.9712458527635102 [Eh]
	 Total Energy              =    -440.7692406366972477 [Eh]

	 ================> DF-SCS-MP2 Energies <==================
	-----------------------------------------------------------
	 SCS Same-Spin Scale       =       0.3333333333333333 [-]
	 SCS Opposite-Spin Scale   =       1.2000000000000000 [-]
	 SCS Same-Spin Energy      =      -0.1579794106969145 [Eh]
	 SCS Opposite-Spin Energy  =      -1.7967691448073200 [Eh]
	 SCS Correlation Energy    =      -1.9547485555042345 [Eh]
	 SCS Total Energy          =    -440.7527433394379841 [Eh]
	-----------------------------------------------------------

  Dipole Moment: [D]
     X:    -0.0481      Y:    -0.0685      Z:     0.7376     Total:     0.7424

*** Psi4 exiting successfully. Buy a developer a beer!
