                               Psi4 1.4a3.dev225

  ==> Input File <==

--------------------------------------------------------------------------
#psi4
#
memory 32 gb

molecule  {
0 1
  O       -1.2691620    -1.9635190    -0.2989340
  N       -1.5914490     0.7494560    -0.4145900
  C       -0.3130270     0.2119120    -0.1595780
  C        0.8301940     1.0305910    -0.0518670
  C       -0.1431580    -1.1878580    -0.1217090
  C        2.0898390     0.4471990     0.1357390
  C        0.6950280     2.5311170    -0.1166830
  C        1.1116310    -1.7522480     0.0999640
  C        2.1565471    -0.9934734     0.2012227
  C       -2.6427770     0.4546790     0.5677560
  H        2.9635850     1.0904280     0.2186520
  H       -1.5238420     1.7535930    -0.5485080
  H        0.3450640     2.8711750    -1.0989170
  H       -0.0074210     2.9084320     0.6355410
  H        1.6619860     3.0062270     0.0664270
  H        1.2125710    -2.8369000     0.1368280
  H        3.2163680    -1.3783700     0.3701280
  H       -2.3586210     0.7219050     1.5961240
  H       -2.8840400    -0.6056810     0.5350110
  H       -3.5330900     1.0242430     0.2900250
  H       -0.9887950    -2.8960920    -0.2836830
units angstrom
no_reorient  #important for SAPT in psi4, default
symmetry c1  #important for SAPT in psi4, default
}

set PROPERTIES_ORIGIN ["COM"]
properties('MP2/aug-cc-pvtz', properties = ['dipole'])
--------------------------------------------------------------------------

    Molecular point group: c1
  Charge       = 0
  Multiplicity = 1
  Basis Set: AUG-CC-PVTZ
    Blend: AUG-CC-PVTZ
  Basis Set: (AUG-CC-PVTZ AUX)
    Blend: AUG-CC-PVTZ-JKFIT

    Orbital Energies [Eh]
    ---------------------

    Doubly Occupied:

       1A    -20.587364     2A    -15.552329     3A    -11.293793
       4A    -11.260009     5A    -11.241445     6A    -11.238802
       7A    -11.230202     8A    -11.229181     9A    -11.226973
      10A    -11.221862    11A     -1.396756    12A     -1.222771
      13A     -1.138005    14A     -1.050605    15A     -0.987944
      16A     -0.939092    17A     -0.901292    18A     -0.818070
      19A     -0.802998    20A     -0.708716    21A     -0.692218
      22A     -0.674576    23A     -0.613901    24A     -0.601942
      25A     -0.598366    26A     -0.589981    27A     -0.574929
      28A     -0.571382    29A     -0.559208    30A     -0.542118
      31A     -0.524069    32A     -0.510934    33A     -0.474559
      34A     -0.469041    35A     -0.414909    36A     -0.326369
      37A     -0.285086

  @DF-RHF Final Energy:  -438.78763435206497

   => Energetics <=

    Nuclear Repulsion Energy =            525.2680913871106441
    One-Electron Energy =               -1637.9678559259584745
    Two-Electron Energy =                 673.9121301867828606
    Total Energy =                       -438.7876343520649698
  Basis Set: (AUG-CC-PVTZ AUX)
    Blend: AUG-CC-PVTZ-RI
    Molecular point group: c1

    Geometry (in Angstrom), charge = 0, multiplicity = 1:

       Center              X                  Y                   Z               Mass
    ------------   -----------------  -----------------  -----------------  -----------------
         O           -1.275836270690    -1.917522652938    -0.284372217255    15.994914619570
         N           -1.598123270690     0.795452347062    -0.400028217255    14.003074004430
         C           -0.319701270690     0.257908347062    -0.145016217255    12.000000000000
         C            0.823519729310     1.076587347062    -0.037305217255    12.000000000000
         C           -0.149832270690    -1.141861652938    -0.107147217255    12.000000000000
         C            2.083164729310     0.493195347062     0.150300782745    12.000000000000
         C            0.688353729310     2.577113347062    -0.102121217255    12.000000000000
         C            1.104956729310    -1.706251652938     0.114525782745    12.000000000000
         C            2.149872829310    -0.947477052938     0.215784482745    12.000000000000
         C           -2.649451270690     0.500675347062     0.582317782745    12.000000000000
         H            2.956910729310     1.136424347062     0.233213782745     1.007825032230
         H           -1.530516270690     1.799589347062    -0.533946217255     1.007825032230
         H            0.338389729310     2.917171347062    -1.084355217255     1.007825032230
         H           -0.014095270690     2.954428347062     0.650102782745     1.007825032230
         H            1.655311729310     3.052223347062     0.080988782745     1.007825032230
         H            1.205896729310    -2.790903652938     0.151389782745     1.007825032230
         H            3.209693729310    -1.332373652938     0.384689782745     1.007825032230
         H           -2.365295270690     0.767901347062     1.610685782745     1.007825032230
         H           -2.890714270690    -0.559684652938     0.549572782745     1.007825032230
         H           -3.539764270690     1.070239347062     0.304586782745     1.007825032230
         H           -0.995469270690    -2.850095652938    -0.269121217255     1.007825032230

  Basis Set: AUG-CC-PVTZ
    Blend: AUG-CC-PVTZ
  Basis Set: (AUG-CC-PVTZ AUX)
    Blend: AUG-CC-PVTZ-JKFIT
	 Reference Energy          =    -438.7876343520649698 [Eh]
	 Singles Energy            =      -0.0000000000000000 [Eh]
	 Same-Spin Energy          =      -0.4736787929612009 [Eh]
	 Opposite-Spin Energy      =      -1.4974191012303557 [Eh]
	 Correlation Energy        =      -1.9710978941915567 [Eh]
	 Total Energy              =    -440.7587322462564998 [Eh]

	 ================> DF-SCS-MP2 Energies <==================
	-----------------------------------------------------------
	 SCS Same-Spin Scale       =       0.3333333333333333 [-]
	 SCS Opposite-Spin Scale   =       1.2000000000000000 [-]
	 SCS Same-Spin Energy      =      -0.1578929309870669 [Eh]
	 SCS Opposite-Spin Energy  =      -1.7969029214764267 [Eh]
	 SCS Correlation Energy    =      -1.9547958524634936 [Eh]
	 SCS Total Energy          =    -440.7424302045284890 [Eh]
	-----------------------------------------------------------

  Dipole Moment: [D]
     X:     0.2249      Y:     0.0605      Z:     0.7777     Total:     0.8118

*** Psi4 exiting successfully. Buy a developer a beer!
