                               Psi4 1.4a3.dev225

  ==> Input File <==

--------------------------------------------------------------------------
#psi4
#
memory 32 gb

molecule  {
0 1
  O       -1.2691620    -1.9635190    -0.2989340
  N       -1.5914490     0.7494560    -0.4145900
  C       -0.3130270     0.2119120    -0.1595780
  C        0.8301940     1.0305910    -0.0518670
  C       -0.1431580    -1.1878580    -0.1217090
  C        2.0898390     0.4471990     0.1357390
  C        0.6950280     2.5311170    -0.1166830
  C        1.1116310    -1.7522480     0.0999640
  C        2.2372160    -0.9348950     0.2090400
  C       -2.6427770     0.4546790     0.5677560
  H        2.9635850     1.0904280     0.2186520
  H       -1.5238420     1.7535930    -0.5485080
  H        0.3450640     2.8711750    -1.0989170
  H       -0.0074210     2.9084320     0.6355410
  H        1.6619860     3.0062270     0.0664270
  H        1.2125710    -2.8369000     0.1368280
  H        3.2163680    -1.3783700     0.3701280
  H       -2.3586210     0.7219050     1.5961240
  H       -2.9017497    -0.6013184     0.5297304
  H       -3.5330900     1.0242430     0.2900250
  H       -0.9887950    -2.8960920    -0.2836830
units angstrom
no_reorient  #important for SAPT in psi4, default
symmetry c1  #important for SAPT in psi4, default
}

set PROPERTIES_ORIGIN ["COM"]
properties('MP2/aug-cc-pvtz', properties = ['dipole'])
--------------------------------------------------------------------------

    Molecular point group: c1
  Charge       = 0
  Multiplicity = 1
  Basis Set: AUG-CC-PVTZ
    Blend: AUG-CC-PVTZ
  Basis Set: (AUG-CC-PVTZ AUX)
    Blend: AUG-CC-PVTZ-JKFIT

    Orbital Energies [Eh]
    ---------------------

    Doubly Occupied:

       1A    -20.586796     2A    -15.554104     3A    -11.294804
       4A    -11.263043     5A    -11.240466     6A    -11.239927
       7A    -11.231513     8A    -11.230270     9A    -11.229358
      10A    -11.223829    11A     -1.396420    12A     -1.223895
      13A     -1.131077    14A     -1.040779    15A     -0.994233
      16A     -0.937819    17A     -0.900774    18A     -0.822709
      19A     -0.801049    20A     -0.706256    21A     -0.692846
      22A     -0.671523    23A     -0.617122    24A     -0.608004
      25A     -0.598319    26A     -0.587981    27A     -0.575464
      28A     -0.570287    29A     -0.560380    30A     -0.536190
      31A     -0.527502    32A     -0.505013    33A     -0.484107
      34A     -0.470283    35A     -0.413384    36A     -0.318030
      37A     -0.290505

  @DF-RHF Final Energy:  -438.80112895195452

   => Energetics <=

    Nuclear Repulsion Energy =            524.0953178286843013
    One-Electron Energy =               -1635.6407724032389979
    Two-Electron Energy =                 672.7443256226001722
    Total Energy =                       -438.8011289519545244
  Basis Set: (AUG-CC-PVTZ AUX)
    Blend: AUG-CC-PVTZ-RI
    Molecular point group: c1

    Geometry (in Angstrom), charge = 0, multiplicity = 1:

       Center              X                  Y                   Z               Mass
    ------------   -----------------  -----------------  -----------------  -----------------
         O           -1.282767627213    -1.922682534524    -0.285017702051    15.994914619570
         N           -1.605054627213     0.790292465476    -0.400673702051    14.003074004430
         C           -0.326632627213     0.252748465476    -0.145661702051    12.000000000000
         C            0.816588372787     1.071427465476    -0.037950702051    12.000000000000
         C           -0.156763627213    -1.147021534524    -0.107792702051    12.000000000000
         C            2.076233372787     0.488035465476     0.149655297949    12.000000000000
         C            0.681422372787     2.571953465476    -0.102766702051    12.000000000000
         C            1.098025372787    -1.711411534524     0.113880297949    12.000000000000
         C            2.223610372787    -0.894058534524     0.222956297949    12.000000000000
         C           -2.656382627213     0.495515465476     0.581672297949    12.000000000000
         H            2.949979372787     1.131264465476     0.232568297949     1.007825032230
         H           -1.537447627213     1.794429465476    -0.534591702051     1.007825032230
         H            0.331458372787     2.912011465476    -1.085000702051     1.007825032230
         H           -0.021026627213     2.949268465476     0.649457297949     1.007825032230
         H            1.648380372787     3.047063465476     0.080343297949     1.007825032230
         H            1.198965372787    -2.796063534524     0.150744297949     1.007825032230
         H            3.202762372787    -1.337533534524     0.384044297949     1.007825032230
         H           -2.372226627213     0.762741465476     1.610040297949     1.007825032230
         H           -2.915355327213    -0.560481934524     0.543646697949     1.007825032230
         H           -3.546695627213     1.065079465476     0.303941297949     1.007825032230
         H           -1.002400627213    -2.855255534524    -0.269766702051     1.007825032230

  Basis Set: AUG-CC-PVTZ
    Blend: AUG-CC-PVTZ
  Basis Set: (AUG-CC-PVTZ AUX)
    Blend: AUG-CC-PVTZ-JKFIT
	 Reference Energy          =    -438.8011289519545244 [Eh]
	 Singles Energy            =      -0.0000000000000000 [Eh]
	 Same-Spin Energy          =      -0.4737031775784759 [Eh]
	 Opposite-Spin Energy      =      -1.4972135717560482 [Eh]
	 Correlation Energy        =      -1.9709167493345241 [Eh]
	 Total Energy              =    -440.7720457012890733 [Eh]

	 ================> DF-SCS-MP2 Energies <==================
	-----------------------------------------------------------
	 SCS Same-Spin Scale       =       0.3333333333333333 [-]
	 SCS Opposite-Spin Scale   =       1.2000000000000000 [-]
	 SCS Same-Spin Energy      =      -0.1579010591928253 [Eh]
	 SCS Opposite-Spin Energy  =      -1.7966562861072577 [Eh]
	 SCS Correlation Energy    =      -1.9545573453000831 [Eh]
	 SCS Total Energy          =    -440.7556862972546128 [Eh]
	-----------------------------------------------------------

  Dipole Moment: [D]
     X:     0.1778      Y:     0.0994      Z:     0.7775     Total:     0.8037

*** Psi4 exiting successfully. Buy a developer a beer!
