                               Psi4 1.4a3.dev225

  ==> Input File <==

--------------------------------------------------------------------------
#psi4
#
memory 32 gb

molecule  {
0 1
  O       -1.2691620    -1.9635190    -0.2989340
  N       -1.5914490     0.7494560    -0.4145900
  C       -0.3130270     0.2119120    -0.1595780
  C        0.8301940     1.0305910    -0.0518670
  C       -0.1001975    -1.1005865    -0.1213490
  C        2.0898390     0.4471990     0.1357390
  C        0.6950280     2.5311170    -0.1166830
  C        1.1116310    -1.7522480     0.0999640
  C        2.2372160    -0.9348950     0.2090400
  C       -2.6427770     0.4546790     0.5677560
  H        2.9635850     1.0904280     0.2186520
  H       -1.5238420     1.7535930    -0.5485080
  H        0.3450640     2.8711750    -1.0989170
  H       -0.0074210     2.9084320     0.6355410
  H        1.6619860     3.0062270     0.0664270
  H        1.2125710    -2.8369000     0.1368280
  H        3.2163680    -1.3783700     0.3701280
  H       -2.3586210     0.7219050     1.5961240
  H       -2.8840400    -0.6056810     0.5350110
  H       -3.5330900     1.0242430     0.2900250
  H       -0.9887950    -2.8960920    -0.2836830
units angstrom
no_reorient  #important for SAPT in psi4, default
symmetry c1  #important for SAPT in psi4, default
}

set PROPERTIES_ORIGIN ["COM"]
properties('MP2/aug-cc-pvtz', properties = ['dipole'])
--------------------------------------------------------------------------

    Molecular point group: c1
  Charge       = 0
  Multiplicity = 1
  Basis Set: AUG-CC-PVTZ
    Blend: AUG-CC-PVTZ
  Basis Set: (AUG-CC-PVTZ AUX)
    Blend: AUG-CC-PVTZ-JKFIT

    Orbital Energies [Eh]
    ---------------------

    Doubly Occupied:

       1A    -20.569777     2A    -15.555020     3A    -11.288169
       4A    -11.258093     5A    -11.245568     6A    -11.238837
       7A    -11.235962     8A    -11.234130     9A    -11.231878
      10A    -11.227468    11A     -1.355965    12A     -1.227552
      13A     -1.139733    14A     -1.043854    15A     -1.007548
      16A     -0.941162    17A     -0.902711    18A     -0.822310
      19A     -0.798695    20A     -0.707949    21A     -0.675077
      22A     -0.667419    23A     -0.628995    24A     -0.605610
      25A     -0.597179    26A     -0.585706    27A     -0.571730
      28A     -0.566399    29A     -0.550808    30A     -0.535944
      31A     -0.528781    32A     -0.502160    33A     -0.487023
      34A     -0.472224    35A     -0.414468    36A     -0.320536
      37A     -0.303944

  @DF-RHF Final Energy:  -438.78972069890801

   => Energetics <=

    Nuclear Repulsion Energy =            524.8864922317602577
    One-Electron Energy =               -1637.2596580399142567
    Two-Electron Energy =                 673.5834451092459858
    Total Energy =                       -438.7897206989080132
  Basis Set: (AUG-CC-PVTZ AUX)
    Blend: AUG-CC-PVTZ-RI
    Molecular point group: c1

    Geometry (in Angstrom), charge = 0, multiplicity = 1:

       Center              X                  Y                   Z               Mass
    ------------   -----------------  -----------------  -----------------  -----------------
         O           -1.286658482674    -1.930289992548    -0.285088037877    15.994914619570
         N           -1.608945482674     0.782685007452    -0.400744037877    14.003074004430
         C           -0.330523482674     0.245141007452    -0.145732037877    12.000000000000
         C            0.812697517326     1.063820007452    -0.038021037877    12.000000000000
         C           -0.117693982674    -1.067357492548    -0.107503037877    12.000000000000
         C            2.072342517326     0.480428007452     0.149584962123    12.000000000000
         C            0.677531517326     2.564346007452    -0.102837037877    12.000000000000
         C            1.094134517326    -1.719018992548     0.113809962123    12.000000000000
         C            2.219719517326    -0.901665992548     0.222885962123    12.000000000000
         C           -2.660273482674     0.487908007452     0.581601962123    12.000000000000
         H            2.946088517326     1.123657007452     0.232497962123     1.007825032230
         H           -1.541338482674     1.786822007452    -0.534662037877     1.007825032230
         H            0.327567517326     2.904404007452    -1.085071037877     1.007825032230
         H           -0.024917482674     2.941661007452     0.649386962123     1.007825032230
         H            1.644489517326     3.039456007452     0.080272962123     1.007825032230
         H            1.195074517326    -2.803670992548     0.150673962123     1.007825032230
         H            3.198871517326    -1.345140992548     0.383973962123     1.007825032230
         H           -2.376117482674     0.755134007452     1.609969962123     1.007825032230
         H           -2.901536482674    -0.572451992548     0.548856962123     1.007825032230
         H           -3.550586482674     1.057472007452     0.303870962123     1.007825032230
         H           -1.006291482674    -2.862862992548    -0.269837037877     1.007825032230

  Basis Set: AUG-CC-PVTZ
    Blend: AUG-CC-PVTZ
  Basis Set: (AUG-CC-PVTZ AUX)
    Blend: AUG-CC-PVTZ-JKFIT
	 Reference Energy          =    -438.7897206989080132 [Eh]
	 Singles Energy            =      -0.0000000000000000 [Eh]
	 Same-Spin Energy          =      -0.4735193082696472 [Eh]
	 Opposite-Spin Energy      =      -1.4979665626069312 [Eh]
	 Correlation Energy        =      -1.9714858708765783 [Eh]
	 Total Energy              =    -440.7612065697845765 [Eh]

	 ================> DF-SCS-MP2 Energies <==================
	-----------------------------------------------------------
	 SCS Same-Spin Scale       =       0.3333333333333333 [-]
	 SCS Opposite-Spin Scale   =       1.2000000000000000 [-]
	 SCS Same-Spin Energy      =      -0.1578397694232157 [Eh]
	 SCS Opposite-Spin Energy  =      -1.7975598751283173 [Eh]
	 SCS Correlation Energy    =      -1.9553996445515329 [Eh]
	 SCS Total Energy          =    -440.7451203434595186 [Eh]
	-----------------------------------------------------------

  Dipole Moment: [D]
     X:     0.6428      Y:     0.4317      Z:     0.8575     Total:     1.1554

*** Psi4 exiting successfully. Buy a developer a beer!
