                               Psi4 1.4a3.dev225

  ==> Input File <==

--------------------------------------------------------------------------
#psi4
#
memory 32 gb

molecule  {
0 1
  O       -1.2691620    -1.9635190    -0.2989340
  N       -1.5914490     0.7494560    -0.4145900
  C       -0.3130270     0.2119120    -0.1595780
  C        0.8301940     1.0305910    -0.0518670
  C       -0.1431580    -1.1878580    -0.1217090
  C        2.0898390     0.4471990     0.1357390
  C        0.6950280     2.5311170    -0.1166830
  C        1.2016692    -1.7927462     0.1158703
  C        2.2372160    -0.9348950     0.2090400
  C       -2.6427770     0.4546790     0.5677560
  H        2.9635850     1.0904280     0.2186520
  H       -1.5238420     1.7535930    -0.5485080
  H        0.3450640     2.8711750    -1.0989170
  H       -0.0074210     2.9084320     0.6355410
  H        1.6619860     3.0062270     0.0664270
  H        1.2125710    -2.8369000     0.1368280
  H        3.2163680    -1.3783700     0.3701280
  H       -2.3586210     0.7219050     1.5961240
  H       -2.8840400    -0.6056810     0.5350110
  H       -3.5330900     1.0242430     0.2900250
  H       -0.9887950    -2.8960920    -0.2836830
units angstrom
no_reorient  #important for SAPT in psi4, default
symmetry c1  #important for SAPT in psi4, default
}

set PROPERTIES_ORIGIN ["COM"]
properties('MP2/aug-cc-pvtz', properties = ['dipole'])
--------------------------------------------------------------------------

    Molecular point group: c1
  Charge       = 0
  Multiplicity = 1
  Basis Set: AUG-CC-PVTZ
    Blend: AUG-CC-PVTZ
  Basis Set: (AUG-CC-PVTZ AUX)
    Blend: AUG-CC-PVTZ-JKFIT

    Orbital Energies [Eh]
    ---------------------

    Doubly Occupied:

       1A    -20.590325     2A    -15.552251     3A    -11.303250
       4A    -11.260047     5A    -11.243804     6A    -11.238904
       7A    -11.233199     8A    -11.230064     9A    -11.227647
      10A    -11.222101    11A     -1.397386    12A     -1.222401
      13A     -1.129399    14A     -1.041959    15A     -0.990020
      16A     -0.937378    17A     -0.900606    18A     -0.824031
      19A     -0.796302    20A     -0.707324    21A     -0.695204
      22A     -0.672388    23A     -0.618207    24A     -0.611040
      25A     -0.598117    26A     -0.591404    27A     -0.575422
      28A     -0.569608    29A     -0.557987    30A     -0.535725
      31A     -0.527080    32A     -0.511956    33A     -0.473616
      34A     -0.470723    35A     -0.414000    36A     -0.316986
      37A     -0.287332

  @DF-RHF Final Energy:  -438.78921295392007

   => Energetics <=

    Nuclear Repulsion Energy =            522.7211354259520704
    One-Electron Energy =               -1632.8703092382249906
    Two-Electron Energy =                 671.3599608583529061
    Total Energy =                       -438.7892129539200141
  Basis Set: (AUG-CC-PVTZ AUX)
    Blend: AUG-CC-PVTZ-RI
    Molecular point group: c1

    Geometry (in Angstrom), charge = 0, multiplicity = 1:

       Center              X                  Y                   Z               Mass
    ------------   -----------------  -----------------  -----------------  -----------------
         O           -1.290779548126    -1.919105348940    -0.286448922539    15.994914619570
         N           -1.613066548126     0.793869651060    -0.402104922539    14.003074004430
         C           -0.334644548126     0.256325651060    -0.147092922539    12.000000000000
         C            0.808576451874     1.075004651060    -0.039381922539    12.000000000000
         C           -0.164775548126    -1.143444348940    -0.109223922539    12.000000000000
         C            2.068221451874     0.491612651060     0.148224077461    12.000000000000
         C            0.673410451874     2.575530651060    -0.104197922539    12.000000000000
         C            1.180051651874    -1.748332548940     0.128355377461    12.000000000000
         C            2.215598451874    -0.890481348940     0.221525077461    12.000000000000
         C           -2.664394548126     0.499092651060     0.580241077461    12.000000000000
         H            2.941967451874     1.134841651060     0.231137077461     1.007825032230
         H           -1.545459548126     1.798006651060    -0.536022922539     1.007825032230
         H            0.323446451874     2.915588651060    -1.086431922539     1.007825032230
         H           -0.029038548126     2.952845651060     0.648026077461     1.007825032230
         H            1.640368451874     3.050640651060     0.078912077461     1.007825032230
         H            1.190953451874    -2.792486348940     0.149313077461     1.007825032230
         H            3.194750451874    -1.333956348940     0.382613077461     1.007825032230
         H           -2.380238548126     0.766318651060     1.608609077461     1.007825032230
         H           -2.905657548126    -0.561267348940     0.547496077461     1.007825032230
         H           -3.554707548126     1.068656651060     0.302510077461     1.007825032230
         H           -1.010412548126    -2.851678348940    -0.271197922539     1.007825032230

  Basis Set: AUG-CC-PVTZ
    Blend: AUG-CC-PVTZ
  Basis Set: (AUG-CC-PVTZ AUX)
    Blend: AUG-CC-PVTZ-JKFIT
	 Reference Energy          =    -438.7892129539200710 [Eh]
	 Singles Energy            =      -0.0000000000000000 [Eh]
	 Same-Spin Energy          =      -0.4736088161307799 [Eh]
	 Opposite-Spin Energy      =      -1.4979938922322305 [Eh]
	 Correlation Energy        =      -1.9716027083630103 [Eh]
	 Total Energy              =    -440.7608156622831075 [Eh]

	 ================> DF-SCS-MP2 Energies <==================
	-----------------------------------------------------------
	 SCS Same-Spin Scale       =       0.3333333333333333 [-]
	 SCS Opposite-Spin Scale   =       1.2000000000000000 [-]
	 SCS Same-Spin Energy      =      -0.1578696053769266 [Eh]
	 SCS Opposite-Spin Energy  =      -1.7975926706786765 [Eh]
	 SCS Correlation Energy    =      -1.9554622760556031 [Eh]
	 SCS Total Energy          =    -440.7446752299756554 [Eh]
	-----------------------------------------------------------

  Dipole Moment: [D]
     X:     0.1547      Y:     0.0201      Z:     0.7662     Total:     0.7819

*** Psi4 exiting successfully. Buy a developer a beer!
