                               Psi4 1.4a3.dev225

  ==> Input File <==

--------------------------------------------------------------------------
#psi4
#
memory 32 gb

molecule  {
0 1
  O       -1.2691620    -1.9635190    -0.2989340
  N       -1.5914490     0.7494560    -0.4145900
  C       -0.3130270     0.2119120    -0.1595780
  C        0.8301940     1.0305910    -0.0518670
  C       -0.1431580    -1.1878580    -0.1217090
  C        2.0898390     0.4471990     0.1357390
  C        0.6950280     2.5311170    -0.1166830
  C        1.1116310    -1.7522480     0.0999640
  C        2.2372160    -0.9348950     0.2090400
  C       -2.6427770     0.4546790     0.5677560
  H        2.9635850     1.0904280     0.2186520
  H       -1.5238420     1.7535930    -0.5485080
  H        0.3450640     2.8711750    -1.0989170
  H       -0.0074210     2.9084320     0.6355410
  H        1.6619860     3.0062270     0.0664270
  H        1.2125710    -2.8369000     0.1368280
  H        3.3064544    -1.4191717     0.3849488
  H       -2.3586210     0.7219050     1.5961240
  H       -2.8840400    -0.6056810     0.5350110
  H       -3.5330900     1.0242430     0.2900250
  H       -0.9887950    -2.8960920    -0.2836830
units angstrom
no_reorient  #important for SAPT in psi4, default
symmetry c1  #important for SAPT in psi4, default
}

set PROPERTIES_ORIGIN ["COM"]
properties('MP2/aug-cc-pvtz', properties = ['dipole'])
--------------------------------------------------------------------------

    Molecular point group: c1
  Charge       = 0
  Multiplicity = 1
  Basis Set: AUG-CC-PVTZ
    Blend: AUG-CC-PVTZ
  Basis Set: (AUG-CC-PVTZ AUX)
    Blend: AUG-CC-PVTZ-JKFIT

    Orbital Energies [Eh]
    ---------------------

    Doubly Occupied:

       1A    -20.587478     2A    -15.554270     3A    -11.295598
       4A    -11.263515     5A    -11.242457     6A    -11.241241
       7A    -11.240072     8A    -11.231822     9A    -11.229817
      10A    -11.224942    11A     -1.397103    12A     -1.224270
      13A     -1.131157    14A     -1.040797    15A     -0.992896
      16A     -0.938415    17A     -0.899862    18A     -0.821721
      19A     -0.797410    20A     -0.706238    21A     -0.692957
      22A     -0.669063    23A     -0.613813    24A     -0.601240
      25A     -0.598649    26A     -0.588064    27A     -0.575595
      28A     -0.570751    29A     -0.560125    30A     -0.535837
      31A     -0.525030    32A     -0.505444    33A     -0.480578
      34A     -0.470876    35A     -0.413467    36A     -0.318731
      37A     -0.291036

  @DF-RHF Final Energy:  -438.79372701469543

   => Energetics <=

    Nuclear Repulsion Energy =            523.6386153810911992
    One-Electron Energy =               -1634.7200104798098437
    Two-Electron Energy =                 672.2876680840230392
    Total Energy =                       -438.7937270146954916
  Basis Set: (AUG-CC-PVTZ AUX)
    Blend: AUG-CC-PVTZ-RI
    Molecular point group: c1

    Geometry (in Angstrom), charge = 0, multiplicity = 1:

       Center              X                  Y                   Z               Mass
    ------------   -----------------  -----------------  -----------------  -----------------
         O           -1.283560130768    -1.922350492193    -0.285165485050    15.994914619570
         N           -1.605847130768     0.790624507807    -0.400821485050    14.003074004430
         C           -0.327425130768     0.253080507807    -0.145809485050    12.000000000000
         C            0.815795869232     1.071759507807    -0.038098485050    12.000000000000
         C           -0.157556130768    -1.146689492193    -0.107940485050    12.000000000000
         C            2.075440869232     0.488367507807     0.149507514950    12.000000000000
         C            0.680629869232     2.572285507807    -0.102914485050    12.000000000000
         C            1.097232869232    -1.711079492193     0.113732514950    12.000000000000
         C            2.222817869232    -0.893726492193     0.222808514950    12.000000000000
         C           -2.657175130768     0.495847507807     0.581524514950    12.000000000000
         H            2.949186869232     1.131596507807     0.232420514950     1.007825032230
         H           -1.538240130768     1.794761507807    -0.534739485050     1.007825032230
         H            0.330665869232     2.912343507807    -1.085148485050     1.007825032230
         H           -0.021819130768     2.949600507807     0.649309514950     1.007825032230
         H            1.647587869232     3.047395507807     0.080195514950     1.007825032230
         H            1.198172869232    -2.795731492193     0.150596514950     1.007825032230
         H            3.292056269232    -1.378003192193     0.398717314950     1.007825032230
         H           -2.373019130768     0.763073507807     1.609892514950     1.007825032230
         H           -2.898438130768    -0.564512492193     0.548779514950     1.007825032230
         H           -3.547488130768     1.065411507807     0.303793514950     1.007825032230
         H           -1.003193130768    -2.854923492193    -0.269914485050     1.007825032230

  Basis Set: AUG-CC-PVTZ
    Blend: AUG-CC-PVTZ
  Basis Set: (AUG-CC-PVTZ AUX)
    Blend: AUG-CC-PVTZ-JKFIT
	 Reference Energy          =    -438.7937270146954347 [Eh]
	 Singles Energy            =      -0.0000000000000000 [Eh]
	 Same-Spin Energy          =      -0.4739322985306363 [Eh]
	 Opposite-Spin Energy      =      -1.4982253125382325 [Eh]
	 Correlation Energy        =      -1.9721576110688688 [Eh]
	 Total Energy              =    -440.7658846257643290 [Eh]

	 ================> DF-SCS-MP2 Energies <==================
	-----------------------------------------------------------
	 SCS Same-Spin Scale       =       0.3333333333333333 [-]
	 SCS Opposite-Spin Scale   =       1.2000000000000000 [-]
	 SCS Same-Spin Energy      =      -0.1579774328435454 [Eh]
	 SCS Opposite-Spin Energy  =      -1.7978703750458791 [Eh]
	 SCS Correlation Energy    =      -1.9558478078894246 [Eh]
	 SCS Total Energy          =    -440.7495748225848615 [Eh]
	-----------------------------------------------------------

  Dipole Moment: [D]
     X:     0.1390      Y:     0.1215      Z:     0.7714     Total:     0.7932

*** Psi4 exiting successfully. Buy a developer a beer!
