                               Psi4 1.4a3.dev225

  ==> Input File <==

--------------------------------------------------------------------------
#psi4
#
memory 32 gb

molecule  {
0 1
  O       -1.2691620    -1.9635190    -0.2989340
  N       -1.5914490     0.7494560    -0.4145900
  C       -0.3130270     0.2119120    -0.1595780
  C        0.6755813     1.0236264    -0.0828727
  C       -0.1431580    -1.1878580    -0.1217090
  C        2.0898390     0.4471990     0.1357390
  C        0.6950280     2.5311170    -0.1166830
  C        1.1116310    -1.7522480     0.0999640
  C        2.2372160    -0.9348950     0.2090400
  C       -2.6427770     0.4546790     0.5677560
  H        2.9635850     1.0904280     0.2186520
  H       -1.5238420     1.7535930    -0.5485080
  H        0.3450640     2.8711750    -1.0989170
  H       -0.0074210     2.9084320     0.6355410
  H        1.6619860     3.0062270     0.0664270
  H        1.2125710    -2.8369000     0.1368280
  H        3.2163680    -1.3783700     0.3701280
  H       -2.3586210     0.7219050     1.5961240
  H       -2.8840400    -0.6056810     0.5350110
  H       -3.5330900     1.0242430     0.2900250
  H       -0.9887950    -2.8960920    -0.2836830
units angstrom
no_reorient  #important for SAPT in psi4, default
symmetry c1  #important for SAPT in psi4, default
}

set PROPERTIES_ORIGIN ["COM"]
properties('MP2/aug-cc-pvtz', properties = ['dipole'])
--------------------------------------------------------------------------

    Molecular point group: c1
  Charge       = 0
  Multiplicity = 1
  Basis Set: AUG-CC-PVTZ
    Blend: AUG-CC-PVTZ
  Basis Set: (AUG-CC-PVTZ AUX)
    Blend: AUG-CC-PVTZ-JKFIT

    Orbital Energies [Eh]
    ---------------------

    Doubly Occupied:

       1A    -20.590741     2A    -15.548523     3A    -11.301906
       4A    -11.249378     5A    -11.237904     6A    -11.236795
       7A    -11.233444     8A    -11.231182     9A    -11.231129
      10A    -11.227712    11A     -1.400066    12A     -1.230722
      13A     -1.125871    14A     -1.043274    15A     -0.995875
      16A     -0.936891    17A     -0.897956    18A     -0.839194
      19A     -0.792391    20A     -0.705762    21A     -0.691314
      22A     -0.670786    23A     -0.618403    24A     -0.608691
      25A     -0.601963    26A     -0.586913    27A     -0.577455
      28A     -0.570506    29A     -0.559224    30A     -0.545859
      31A     -0.523492    32A     -0.515470    33A     -0.471234
      34A     -0.458759    35A     -0.412274    36A     -0.317218
      37A     -0.295049

  @DF-RHF Final Energy:  -438.77195975010625

   => Energetics <=

    Nuclear Repulsion Energy =            525.2120075677854629
    One-Electron Energy =               -1637.8052843642981315
    Two-Electron Energy =                 673.8213170464065342
    Total Energy =                       -438.7719597501062481
  Basis Set: (AUG-CC-PVTZ AUX)
    Blend: AUG-CC-PVTZ-RI
    Molecular point group: c1

    Geometry (in Angstrom), charge = 0, multiplicity = 1:

       Center              X                  Y                   Z               Mass
    ------------   -----------------  -----------------  -----------------  -----------------
         O           -1.269363413275    -1.922040797367    -0.282342362056    15.994914619570
         N           -1.591650413275     0.790934202633    -0.397998362056    14.003074004430
         C           -0.313228413275     0.253390202633    -0.142986362056    12.000000000000
         C            0.675379886725     1.065104602633    -0.066281062056    12.000000000000
         C           -0.143359413275    -1.146379797367    -0.105117362056    12.000000000000
         C            2.089637586725     0.488677202633     0.152330637944    12.000000000000
         C            0.694826586725     2.572595202633    -0.100091362056    12.000000000000
         C            1.111429586725    -1.710769797367     0.116555637944    12.000000000000
         C            2.237014586725    -0.893416797367     0.225631637944    12.000000000000
         C           -2.642978413275     0.496157202633     0.584347637944    12.000000000000
         H            2.963383586725     1.131906202633     0.235243637944     1.007825032230
         H           -1.524043413275     1.795071202633    -0.531916362056     1.007825032230
         H            0.344862586725     2.912653202633    -1.082325362056     1.007825032230
         H           -0.007622413275     2.949910202633     0.652132637944     1.007825032230
         H            1.661784586725     3.047705202633     0.083018637944     1.007825032230
         H            1.212369586725    -2.795421797367     0.153419637944     1.007825032230
         H            3.216166586725    -1.336891797367     0.386719637944     1.007825032230
         H           -2.358822413275     0.763383202633     1.612715637944     1.007825032230
         H           -2.884241413275    -0.564202797367     0.551602637944     1.007825032230
         H           -3.533291413275     1.065721202633     0.306616637944     1.007825032230
         H           -0.988996413275    -2.854613797367    -0.267091362056     1.007825032230

  Basis Set: AUG-CC-PVTZ
    Blend: AUG-CC-PVTZ
  Basis Set: (AUG-CC-PVTZ AUX)
    Blend: AUG-CC-PVTZ-JKFIT
	 Reference Energy          =    -438.7719597501062481 [Eh]
	 Singles Energy            =      -0.0000000000000000 [Eh]
	 Same-Spin Energy          =      -0.4725158804936885 [Eh]
	 Opposite-Spin Energy      =      -1.4978326822499302 [Eh]
	 Correlation Energy        =      -1.9703485627436188 [Eh]
	 Total Energy              =    -440.7423083128498433 [Eh]

	 ================> DF-SCS-MP2 Energies <==================
	-----------------------------------------------------------
	 SCS Same-Spin Scale       =       0.3333333333333333 [-]
	 SCS Opposite-Spin Scale   =       1.2000000000000000 [-]
	 SCS Same-Spin Energy      =      -0.1575052934978962 [Eh]
	 SCS Opposite-Spin Energy  =      -1.7973992186999161 [Eh]
	 SCS Correlation Energy    =      -1.9549045121978124 [Eh]
	 SCS Total Energy          =    -440.7268642623040478 [Eh]
	-----------------------------------------------------------

  Dipole Moment: [D]
     X:     0.3104      Y:     0.0344      Z:     0.7903     Total:     0.8498

*** Psi4 exiting successfully. Buy a developer a beer!
