                               Psi4 1.4a3.dev225

  ==> Input File <==

--------------------------------------------------------------------------
#psi4
#
memory 32 gb

molecule  {
0 1
  O       -1.2691620    -1.9635190    -0.2989340
  N       -1.5914490     0.7494560    -0.4145900
  C       -0.3130270     0.2119120    -0.1595780
  C        0.8301940     1.0305910    -0.0518670
  C       -0.1431580    -1.1878580    -0.1217090
  C        2.0898390     0.4471990     0.1357390
  C        0.6950280     2.5311170    -0.1166830
  C        1.1116310    -1.7522480     0.0999640
  C        2.2533498    -0.9231793     0.2106035
  C       -2.6427770     0.4546790     0.5677560
  H        2.9635850     1.0904280     0.2186520
  H       -1.5238420     1.7535930    -0.5485080
  H        0.3450640     2.8711750    -1.0989170
  H       -0.0074210     2.9084320     0.6355410
  H        1.6619860     3.0062270     0.0664270
  H        1.2125710    -2.8369000     0.1368280
  H        3.2163680    -1.3783700     0.3701280
  H       -2.3586210     0.7219050     1.5961240
  H       -2.8840400    -0.6056810     0.5350110
  H       -3.5330900     1.0242430     0.2900250
  H       -0.9887950    -2.8960920    -0.2836830
units angstrom
no_reorient  #important for SAPT in psi4, default
symmetry c1  #important for SAPT in psi4, default
}

set PROPERTIES_ORIGIN ["COM"]
properties('MP2/aug-cc-pvtz', properties = ['dipole'])
--------------------------------------------------------------------------

    Molecular point group: c1
  Charge       = 0
  Multiplicity = 1
  Basis Set: AUG-CC-PVTZ
    Blend: AUG-CC-PVTZ
  Basis Set: (AUG-CC-PVTZ AUX)
    Blend: AUG-CC-PVTZ-JKFIT

    Orbital Energies [Eh]
    ---------------------

    Doubly Occupied:

       1A    -20.586852     2A    -15.554299     3A    -11.295062
       4A    -11.263715     5A    -11.240289     6A    -11.240029
       7A    -11.232436     8A    -11.230907     9A    -11.229373
      10A    -11.223267    11A     -1.396554    12A     -1.224150
      13A     -1.130235    14A     -1.039059    15A     -0.995713
      16A     -0.937428    17A     -0.900516    18A     -0.823770
      19A     -0.800659    20A     -0.706071    21A     -0.693176
      22A     -0.670802    23A     -0.619287    24A     -0.608569
      25A     -0.598109    26A     -0.587544    27A     -0.575599
      28A     -0.569945    29A     -0.559919    30A     -0.535235
      31A     -0.529273    32A     -0.502978    33A     -0.486491
      34A     -0.469630    35A     -0.412840    36A     -0.316922
      37A     -0.291371

  @DF-RHF Final Energy:  -438.80053227895405

   => Energetics <=

    Nuclear Repulsion Energy =            523.9259324246705773
    One-Electron Energy =               -1635.2967751548167143
    Two-Electron Energy =                 672.5703104511921993
    Total Energy =                       -438.8005322789540514
  Basis Set: (AUG-CC-PVTZ AUX)
    Blend: AUG-CC-PVTZ-RI
    Molecular point group: c1

    Geometry (in Angstrom), charge = 0, multiplicity = 1:

       Center              X                  Y                   Z               Mass
    ------------   -----------------  -----------------  -----------------  -----------------
         O           -1.284310139689    -1.923676024639    -0.285193389291    15.994914619570
         N           -1.606597139689     0.789298975361    -0.400849389291    14.003074004430
         C           -0.328175139689     0.251754975361    -0.145837389291    12.000000000000
         C            0.815045860311     1.070433975361    -0.038126389291    12.000000000000
         C           -0.158306139689    -1.148015024639    -0.107968389291    12.000000000000
         C            2.074690860311     0.487041975361     0.149479610709    12.000000000000
         C            0.679879860311     2.570959975361    -0.102942389291    12.000000000000
         C            1.096482860311    -1.712405024639     0.113704610709    12.000000000000
         C            2.238201660311    -0.883336324639     0.224344110709    12.000000000000
         C           -2.657925139689     0.494521975361     0.581496610709    12.000000000000
         H            2.948436860311     1.130270975361     0.232392610709     1.007825032230
         H           -1.538990139689     1.793435975361    -0.534767389291     1.007825032230
         H            0.329915860311     2.911017975361    -1.085176389291     1.007825032230
         H           -0.022569139689     2.948274975361     0.649281610709     1.007825032230
         H            1.646837860311     3.046069975361     0.080167610709     1.007825032230
         H            1.197422860311    -2.797057024639     0.150568610709     1.007825032230
         H            3.201219860311    -1.338527024639     0.383868610709     1.007825032230
         H           -2.373769139689     0.761747975361     1.609864610709     1.007825032230
         H           -2.899188139689    -0.565838024639     0.548751610709     1.007825032230
         H           -3.548238139689     1.064085975361     0.303765610709     1.007825032230
         H           -1.003943139689    -2.856249024639    -0.269942389291     1.007825032230

  Basis Set: AUG-CC-PVTZ
    Blend: AUG-CC-PVTZ
  Basis Set: (AUG-CC-PVTZ AUX)
    Blend: AUG-CC-PVTZ-JKFIT
	 Reference Energy          =    -438.8005322789540514 [Eh]
	 Singles Energy            =      -0.0000000000000000 [Eh]
	 Same-Spin Energy          =      -0.4736904692396351 [Eh]
	 Opposite-Spin Energy      =      -1.4973348365730810 [Eh]
	 Correlation Energy        =      -1.9710253058127161 [Eh]
	 Total Energy              =    -440.7715575847667537 [Eh]

	 ================> DF-SCS-MP2 Energies <==================
	-----------------------------------------------------------
	 SCS Same-Spin Scale       =       0.3333333333333333 [-]
	 SCS Opposite-Spin Scale   =       1.2000000000000000 [-]
	 SCS Same-Spin Energy      =      -0.1578968230798784 [Eh]
	 SCS Opposite-Spin Energy  =      -1.7968018038876972 [Eh]
	 SCS Correlation Energy    =      -1.9546986269675755 [Eh]
	 SCS Total Energy          =    -440.7552309059216213 [Eh]
	-----------------------------------------------------------

  Dipole Moment: [D]
     X:     0.1797      Y:     0.1055      Z:     0.7782     Total:     0.8056

*** Psi4 exiting successfully. Buy a developer a beer!
