                               Psi4 1.4a3.dev225

  ==> Input File <==

--------------------------------------------------------------------------
#psi4
#
memory 32 gb

molecule  {
0 1
  O       -1.2691620    -1.9635190    -0.2989340
  N       -1.5914490     0.7494560    -0.4145900
  C       -0.3130270     0.2119120    -0.1595780
  C        0.9833258     1.0539957    -0.0215714
  C       -0.1431580    -1.1878580    -0.1217090
  C        2.0898390     0.4471990     0.1357390
  C        0.6950280     2.5311170    -0.1166830
  C        1.1116310    -1.7522480     0.0999640
  C        2.2372160    -0.9348950     0.2090400
  C       -2.6427770     0.4546790     0.5677560
  H        2.9635850     1.0904280     0.2186520
  H       -1.5238420     1.7535930    -0.5485080
  H        0.3450640     2.8711750    -1.0989170
  H       -0.0074210     2.9084320     0.6355410
  H        1.6619860     3.0062270     0.0664270
  H        1.2125710    -2.8369000     0.1368280
  H        3.2163680    -1.3783700     0.3701280
  H       -2.3586210     0.7219050     1.5961240
  H       -2.8840400    -0.6056810     0.5350110
  H       -3.5330900     1.0242430     0.2900250
  H       -0.9887950    -2.8960920    -0.2836830
units angstrom
no_reorient  #important for SAPT in psi4, default
symmetry c1  #important for SAPT in psi4, default
}

set PROPERTIES_ORIGIN ["COM"]
properties('MP2/aug-cc-pvtz', properties = ['dipole'])
--------------------------------------------------------------------------

    Molecular point group: c1
  Charge       = 0
  Multiplicity = 1
  Basis Set: AUG-CC-PVTZ
    Blend: AUG-CC-PVTZ
  Basis Set: (AUG-CC-PVTZ AUX)
    Blend: AUG-CC-PVTZ-JKFIT

    Orbital Energies [Eh]
    ---------------------

    Doubly Occupied:

       1A    -20.582613     2A    -15.557671     3A    -11.286680
       4A    -11.270906     5A    -11.240670     6A    -11.239520
       7A    -11.235285     8A    -11.230634     9A    -11.230305
      10A    -11.210959    11A     -1.392495    12A     -1.219657
      13A     -1.140211    14A     -1.045902    15A     -0.990670
      16A     -0.941887    17A     -0.902618    18A     -0.825822
      19A     -0.788467    20A     -0.710653    21A     -0.690024
      22A     -0.667585    23A     -0.619379    24A     -0.607195
      25A     -0.595856    26A     -0.587793    27A     -0.580462
      28A     -0.572933    29A     -0.560496    30A     -0.537706
      31A     -0.531743    32A     -0.495995    33A     -0.477283
      34A     -0.468304    35A     -0.410186    36A     -0.335381
      37A     -0.277495

  @DF-RHF Final Energy:  -438.76992711950419

   => Energetics <=

    Nuclear Repulsion Energy =            523.2402213221232614
    One-Electron Energy =               -1633.9014127745040241
    Two-Electron Energy =                 671.8912643328766308
    Total Energy =                       -438.7699271195041320
  Basis Set: (AUG-CC-PVTZ AUX)
    Blend: AUG-CC-PVTZ-RI
    Molecular point group: c1

    Geometry (in Angstrom), charge = 0, multiplicity = 1:

       Center              X                  Y                   Z               Mass
    ------------   -----------------  -----------------  -----------------  -----------------
         O           -1.296302605861    -1.924699250796    -0.287708526281    15.994914619570
         N           -1.618589605861     0.788275749204    -0.403364526281    14.003074004430
         C           -0.340167605861     0.250731749204    -0.148352526281    12.000000000000
         C            0.956185194139     1.092815449204    -0.010345926281    12.000000000000
         C           -0.170298605861    -1.149038250796    -0.110483526281    12.000000000000
         C            2.062698394139     0.486018749204     0.146964473719    12.000000000000
         C            0.667887394139     2.569936749204    -0.105457526281    12.000000000000
         C            1.084490394139    -1.713428250796     0.111189473719    12.000000000000
         C            2.210075394139    -0.896075250796     0.220265473719    12.000000000000
         C           -2.669917605861     0.493498749204     0.578981473719    12.000000000000
         H            2.936444394139     1.129247749204     0.229877473719     1.007825032230
         H           -1.550982605861     1.792412749204    -0.537282526281     1.007825032230
         H            0.317923394139     2.909994749204    -1.087691526281     1.007825032230
         H           -0.034561605861     2.947251749204     0.646766473719     1.007825032230
         H            1.634845394139     3.045046749204     0.077652473719     1.007825032230
         H            1.185430394139    -2.798080250796     0.148053473719     1.007825032230
         H            3.189227394139    -1.339550250796     0.381353473719     1.007825032230
         H           -2.385761605861     0.760724749204     1.607349473719     1.007825032230
         H           -2.911180605861    -0.566861250796     0.546236473719     1.007825032230
         H           -3.560230605861     1.063062749204     0.301250473719     1.007825032230
         H           -1.015935605861    -2.857272250796    -0.272457526281     1.007825032230

  Basis Set: AUG-CC-PVTZ
    Blend: AUG-CC-PVTZ
  Basis Set: (AUG-CC-PVTZ AUX)
    Blend: AUG-CC-PVTZ-JKFIT
	 Reference Energy          =    -438.7699271195041888 [Eh]
	 Singles Energy            =      -0.0000000000000000 [Eh]
	 Same-Spin Energy          =      -0.4738009483666548 [Eh]
	 Opposite-Spin Energy      =      -1.4988215513008867 [Eh]
	 Correlation Energy        =      -1.9726224996675414 [Eh]
	 Total Energy              =    -440.7425496191717116 [Eh]

	 ================> DF-SCS-MP2 Energies <==================
	-----------------------------------------------------------
	 SCS Same-Spin Scale       =       0.3333333333333333 [-]
	 SCS Opposite-Spin Scale   =       1.2000000000000000 [-]
	 SCS Same-Spin Energy      =      -0.1579336494555516 [Eh]
	 SCS Opposite-Spin Energy  =      -1.7985858615610639 [Eh]
	 SCS Correlation Energy    =      -1.9565195110166156 [Eh]
	 SCS Total Energy          =    -440.7264466305207975 [Eh]
	-----------------------------------------------------------

  Dipole Moment: [D]
     X:     0.1503      Y:     0.1935      Z:     0.7678     Total:     0.8059

*** Psi4 exiting successfully. Buy a developer a beer!
