                               Psi4 1.4a3.dev225

  ==> Input File <==

--------------------------------------------------------------------------
#psi4
#
memory 32 gb

molecule  {
0 1
  O       -1.2691620    -1.9635190    -0.2989340
  N       -1.5914490     0.7494560    -0.4145900
  C       -0.2941626     0.2572101    -0.1634139
  C        0.8301940     1.0305910    -0.0518670
  C       -0.1431580    -1.1878580    -0.1217090
  C        2.0898390     0.4471990     0.1357390
  C        0.6950280     2.5311170    -0.1166830
  C        1.1116310    -1.7522480     0.0999640
  C        2.2372160    -0.9348950     0.2090400
  C       -2.6427770     0.4546790     0.5677560
  H        2.9635850     1.0904280     0.2186520
  H       -1.5238420     1.7535930    -0.5485080
  H        0.3450640     2.8711750    -1.0989170
  H       -0.0074210     2.9084320     0.6355410
  H        1.6619860     3.0062270     0.0664270
  H        1.2125710    -2.8369000     0.1368280
  H        3.2163680    -1.3783700     0.3701280
  H       -2.3586210     0.7219050     1.5961240
  H       -2.8840400    -0.6056810     0.5350110
  H       -3.5330900     1.0242430     0.2900250
  H       -0.9887950    -2.8960920    -0.2836830
units angstrom
no_reorient  #important for SAPT in psi4, default
symmetry c1  #important for SAPT in psi4, default
}

set PROPERTIES_ORIGIN ["COM"]
properties('MP2/aug-cc-pvtz', properties = ['dipole'])
--------------------------------------------------------------------------

    Molecular point group: c1
  Charge       = 0
  Multiplicity = 1
  Basis Set: AUG-CC-PVTZ
    Blend: AUG-CC-PVTZ
  Basis Set: (AUG-CC-PVTZ AUX)
    Blend: AUG-CC-PVTZ-JKFIT

    Orbital Energies [Eh]
    ---------------------

    Doubly Occupied:

       1A    -20.589245     2A    -15.554482     3A    -11.300133
       4A    -11.263684     5A    -11.240994     6A    -11.234962
       7A    -11.231022     8A    -11.229021     9A    -11.228072
      10A    -11.223507    11A     -1.397458    12A     -1.225236
      13A     -1.131796    14A     -1.042919    15A     -0.989950
      16A     -0.937622    17A     -0.901021    18A     -0.823139
      19A     -0.803105    20A     -0.705027    21A     -0.694215
      22A     -0.672927    23A     -0.613322    24A     -0.608513
      25A     -0.596210    26A     -0.590166    27A     -0.576446
      28A     -0.570327    29A     -0.560684    30A     -0.535637
      31A     -0.528795    32A     -0.507470    33A     -0.478673
      34A     -0.471083    35A     -0.414941    36A     -0.320576
      37A     -0.288645

  @DF-RHF Final Energy:  -438.79801719104722

   => Energetics <=

    Nuclear Repulsion Energy =            524.0448519133389027
    One-Electron Energy =               -1635.5236900875395349
    Two-Electron Energy =                 672.6808209831533532
    Total Energy =                       -438.7980171910471654
  Basis Set: (AUG-CC-PVTZ AUX)
    Blend: AUG-CC-PVTZ-RI
    Molecular point group: c1

    Geometry (in Angstrom), charge = 0, multiplicity = 1:

       Center              X                  Y                   Z               Mass
    ------------   -----------------  -----------------  -----------------  -----------------
         O           -1.284549169662    -1.926615744898    -0.284720739166    15.994914619570
         N           -1.606836169662     0.786359255102    -0.400376739166    14.003074004430
         C           -0.309549769662     0.294113355102    -0.149200639166    12.000000000000
         C            0.814806830338     1.067494255102    -0.037653739166    12.000000000000
         C           -0.158545169662    -1.150954744898    -0.107495739166    12.000000000000
         C            2.074451830338     0.484102255102     0.149952260834    12.000000000000
         C            0.679640830338     2.568020255102    -0.102469739166    12.000000000000
         C            1.096243830338    -1.715344744898     0.114177260834    12.000000000000
         C            2.221828830338    -0.897991744898     0.223253260834    12.000000000000
         C           -2.658164169662     0.491582255102     0.581969260834    12.000000000000
         H            2.948197830338     1.127331255102     0.232865260834     1.007825032230
         H           -1.539229169662     1.790496255102    -0.534294739166     1.007825032230
         H            0.329676830338     2.908078255102    -1.084703739166     1.007825032230
         H           -0.022808169662     2.945335255102     0.649754260834     1.007825032230
         H            1.646598830338     3.043130255102     0.080640260834     1.007825032230
         H            1.197183830338    -2.799996744898     0.151041260834     1.007825032230
         H            3.200980830338    -1.341466744898     0.384341260834     1.007825032230
         H           -2.374008169662     0.758808255102     1.610337260834     1.007825032230
         H           -2.899427169662    -0.568777744898     0.549224260834     1.007825032230
         H           -3.548477169662     1.061146255102     0.304238260834     1.007825032230
         H           -1.004182169662    -2.859188744898    -0.269469739166     1.007825032230

  Basis Set: AUG-CC-PVTZ
    Blend: AUG-CC-PVTZ
  Basis Set: (AUG-CC-PVTZ AUX)
    Blend: AUG-CC-PVTZ-JKFIT
	 Reference Energy          =    -438.7980171910472222 [Eh]
	 Singles Energy            =      -0.0000000000000000 [Eh]
	 Same-Spin Energy          =      -0.4736092914523867 [Eh]
	 Opposite-Spin Energy      =      -1.4973732334004322 [Eh]
	 Correlation Energy        =      -1.9709825248528188 [Eh]
	 Total Energy              =    -440.7689997159000654 [Eh]

	 ================> DF-SCS-MP2 Energies <==================
	-----------------------------------------------------------
	 SCS Same-Spin Scale       =       0.3333333333333333 [-]
	 SCS Opposite-Spin Scale   =       1.2000000000000000 [-]
	 SCS Same-Spin Energy      =      -0.1578697638174622 [Eh]
	 SCS Opposite-Spin Energy  =      -1.7968478800805185 [Eh]
	 SCS Correlation Energy    =      -1.9547176438979808 [Eh]
	 SCS Total Energy          =    -440.7527348349452154 [Eh]
	-----------------------------------------------------------

  Dipole Moment: [D]
     X:     0.1233      Y:     0.0673      Z:     0.7857     Total:     0.7982

*** Psi4 exiting successfully. Buy a developer a beer!
