                               Psi4 1.4a3.dev225

  ==> Input File <==

--------------------------------------------------------------------------
#psi4
#
memory 32 gb

molecule  {
0 1
  O       -1.2691620    -1.9635190    -0.2989340
  N       -1.5914490     0.7494560    -0.4145900
  C       -0.3130270     0.2119120    -0.1595780
  C        0.8301940     1.0305910    -0.0518670
  C       -0.1431580    -1.1878580    -0.1217090
  C        2.0898390     0.4471990     0.1357390
  C        0.6950280     2.5311170    -0.1166830
  C        1.1296386    -1.7603476     0.1031453
  C        2.2372160    -0.9348950     0.2090400
  C       -2.6427770     0.4546790     0.5677560
  H        2.9635850     1.0904280     0.2186520
  H       -1.5238420     1.7535930    -0.5485080
  H        0.3450640     2.8711750    -1.0989170
  H       -0.0074210     2.9084320     0.6355410
  H        1.6619860     3.0062270     0.0664270
  H        1.2125710    -2.8369000     0.1368280
  H        3.2163680    -1.3783700     0.3701280
  H       -2.3586210     0.7219050     1.5961240
  H       -2.8840400    -0.6056810     0.5350110
  H       -3.5330900     1.0242430     0.2900250
  H       -0.9887950    -2.8960920    -0.2836830
units angstrom
no_reorient  #important for SAPT in psi4, default
symmetry c1  #important for SAPT in psi4, default
}

set PROPERTIES_ORIGIN ["COM"]
properties('MP2/aug-cc-pvtz', properties = ['dipole'])
--------------------------------------------------------------------------

    Molecular point group: c1
  Charge       = 0
  Multiplicity = 1
  Basis Set: AUG-CC-PVTZ
    Blend: AUG-CC-PVTZ
  Basis Set: (AUG-CC-PVTZ AUX)
    Blend: AUG-CC-PVTZ-JKFIT

    Orbital Energies [Eh]
    ---------------------

    Doubly Occupied:

       1A    -20.587695     2A    -15.553606     3A    -11.296840
       4A    -11.262474     5A    -11.241150     6A    -11.239637
       7A    -11.231611     8A    -11.230049     9A    -11.229491
      10A    -11.223488    11A     -1.396782    12A     -1.223595
      13A     -1.130629    14A     -1.040700    15A     -0.993442
      16A     -0.937565    17A     -0.900771    18A     -0.822951
      19A     -0.800113    20A     -0.706668    21A     -0.693402
      22A     -0.671606    23A     -0.617527    24A     -0.608189
      25A     -0.598122    26A     -0.588360    27A     -0.575737
      28A     -0.570073    29A     -0.559582    30A     -0.536439
      31A     -0.528063    32A     -0.506803    33A     -0.482812
      34A     -0.470240    35A     -0.413199    36A     -0.317130
      37A     -0.290327

  @DF-RHF Final Energy:  -438.80048378265542

   => Energetics <=

    Nuclear Repulsion Energy =            523.8416017199961061
    One-Electron Energy =               -1635.1304381544321132
    Two-Electron Energy =                 672.4883526517805876
    Total Energy =                       -438.8004837826554194
  Basis Set: (AUG-CC-PVTZ AUX)
    Blend: AUG-CC-PVTZ-RI
    Molecular point group: c1

    Geometry (in Angstrom), charge = 0, multiplicity = 1:

       Center              X                  Y                   Z               Mass
    ------------   -----------------  -----------------  -----------------  -----------------
         O           -1.284474167508    -1.921941442273    -0.285335007503    15.994914619570
         N           -1.606761167508     0.791033557727    -0.400991007503    14.003074004430
         C           -0.328339167508     0.253489557727    -0.145979007503    12.000000000000
         C            0.814881832492     1.072168557727    -0.038268007503    12.000000000000
         C           -0.158470167508    -1.146280442273    -0.108110007503    12.000000000000
         C            2.074526832492     0.488776557727     0.149337992497    12.000000000000
         C            0.679715832492     2.572694557727    -0.103084007503    12.000000000000
         C            1.114326432492    -1.718770042273     0.116744292497    12.000000000000
         C            2.221903832492    -0.893317442273     0.222638992497    12.000000000000
         C           -2.658089167508     0.496256557727     0.581354992497    12.000000000000
         H            2.948272832492     1.132005557727     0.232250992497     1.007825032230
         H           -1.539154167508     1.795170557727    -0.534909007503     1.007825032230
         H            0.329751832492     2.912752557727    -1.085318007503     1.007825032230
         H           -0.022733167508     2.950009557727     0.649139992497     1.007825032230
         H            1.646673832492     3.047804557727     0.080025992497     1.007825032230
         H            1.197258832492    -2.795322442273     0.150426992497     1.007825032230
         H            3.201055832492    -1.336792442273     0.383726992497     1.007825032230
         H           -2.373933167508     0.763482557727     1.609722992497     1.007825032230
         H           -2.899352167508    -0.564103442273     0.548609992497     1.007825032230
         H           -3.548402167508     1.065820557727     0.303623992497     1.007825032230
         H           -1.004107167508    -2.854514442273    -0.270084007503     1.007825032230

  Basis Set: AUG-CC-PVTZ
    Blend: AUG-CC-PVTZ
  Basis Set: (AUG-CC-PVTZ AUX)
    Blend: AUG-CC-PVTZ-JKFIT
	 Reference Energy          =    -438.8004837826554194 [Eh]
	 Singles Energy            =      -0.0000000000000000 [Eh]
	 Same-Spin Energy          =      -0.4737221475898835 [Eh]
	 Opposite-Spin Energy      =      -1.4973152065872677 [Eh]
	 Correlation Energy        =      -1.9710373541771511 [Eh]
	 Total Energy              =    -440.7715211368325754 [Eh]

	 ================> DF-SCS-MP2 Energies <==================
	-----------------------------------------------------------
	 SCS Same-Spin Scale       =       0.3333333333333333 [-]
	 SCS Opposite-Spin Scale   =       1.2000000000000000 [-]
	 SCS Same-Spin Energy      =      -0.1579073825299611 [Eh]
	 SCS Opposite-Spin Energy  =      -1.7967782479047212 [Eh]
	 SCS Correlation Energy    =      -1.9546856304346822 [Eh]
	 SCS Total Energy          =    -440.7551694130901296 [Eh]
	-----------------------------------------------------------

  Dipole Moment: [D]
     X:     0.1773      Y:     0.0811      Z:     0.7754     Total:     0.7995

*** Psi4 exiting successfully. Buy a developer a beer!
