                               Psi4 1.4a3.dev225

  ==> Input File <==

--------------------------------------------------------------------------
#psi4
#
memory 32 gb

molecule  {
0 1
  O       -1.2691620    -1.9635190    -0.2989340
  N       -1.5914490     0.7494560    -0.4145900
  C       -0.3130270     0.2119120    -0.1595780
  C        0.8301940     1.0305910    -0.0518670
  C       -0.1431580    -1.1878580    -0.1217090
  C        2.0898390     0.4471990     0.1357390
  C        0.6950280     2.5311170    -0.1166830
  C        1.1116310    -1.7522480     0.0999640
  C        2.2372160    -0.9348950     0.2090400
  C       -2.6427770     0.4546790     0.5677560
  H        2.9635850     1.0904280     0.2186520
  H       -1.5238420     1.7535930    -0.5485080
  H        0.3450640     2.8711750    -1.0989170
  H       -0.0074210     2.9084320     0.6355410
  H        1.6619860     3.0062270     0.0664270
  H        1.2125710    -2.8369000     0.1368280
  H        3.2163680    -1.3783700     0.3701280
  H       -2.3069498     0.7704977     1.7831236
  H       -2.8840400    -0.6056810     0.5350110
  H       -3.5330900     1.0242430     0.2900250
  H       -0.9887950    -2.8960920    -0.2836830
units angstrom
no_reorient  #important for SAPT in psi4, default
symmetry c1  #important for SAPT in psi4, default
}

set PROPERTIES_ORIGIN ["COM"]
properties('MP2/aug-cc-pvtz', properties = ['dipole'])
--------------------------------------------------------------------------

    Molecular point group: c1
  Charge       = 0
  Multiplicity = 1
  Basis Set: AUG-CC-PVTZ
    Blend: AUG-CC-PVTZ
  Basis Set: (AUG-CC-PVTZ AUX)
    Blend: AUG-CC-PVTZ-JKFIT

    Orbital Energies [Eh]
    ---------------------

    Doubly Occupied:

       1A    -20.588138     2A    -15.558992     3A    -11.296240
       4A    -11.264212     5A    -11.263188     6A    -11.241874
       7A    -11.232629     8A    -11.231217     9A    -11.229910
      10A    -11.224605    11A     -1.397781    12A     -1.226049
      13A     -1.132090    14A     -1.041570    15A     -0.994206
      16A     -0.938030    17A     -0.891826    18A     -0.823723
      19A     -0.800564    20A     -0.707480    21A     -0.695157
      22A     -0.669763    23A     -0.618000    24A     -0.609496
      25A     -0.598479    26A     -0.577457    27A     -0.572614
      28A     -0.569056    29A     -0.553899    30A     -0.536403
      31A     -0.528183    32A     -0.504712    33A     -0.485803
      34A     -0.469668    35A     -0.405401    36A     -0.318862
      37A     -0.292235

  @DF-RHF Final Energy:  -438.78195684588798

   => Energetics <=

    Nuclear Repulsion Energy =            523.3708905709092960
    One-Electron Energy =               -1634.1266671910973400
    Two-Electron Energy =                 671.9738197743000683
    Total Energy =                       -438.7819568458879758
  Basis Set: (AUG-CC-PVTZ AUX)
    Blend: AUG-CC-PVTZ-RI
    Molecular point group: c1

    Geometry (in Angstrom), charge = 0, multiplicity = 1:

       Center              X                  Y                   Z               Mass
    ------------   -----------------  -----------------  -----------------  -----------------
         O           -1.283277706983    -1.923007708732    -0.286431322228    15.994914619570
         N           -1.605564706983     0.789967291268    -0.402087322228    14.003074004430
         C           -0.327142706983     0.252423291268    -0.147075322228    12.000000000000
         C            0.816078293017     1.071102291268    -0.039364322228    12.000000000000
         C           -0.157273706983    -1.147346708732    -0.109206322228    12.000000000000
         C            2.075723293017     0.487710291268     0.148241677772    12.000000000000
         C            0.680912293017     2.571628291268    -0.104180322228    12.000000000000
         C            1.097515293017    -1.711736708732     0.112466677772    12.000000000000
         C            2.223100293017    -0.894383708732     0.221542677772    12.000000000000
         C           -2.656892706983     0.495190291268     0.580258677772    12.000000000000
         H            2.949469293017     1.130939291268     0.231154677772     1.007825032230
         H           -1.537957706983     1.794104291268    -0.536005322228     1.007825032230
         H            0.330948293017     2.911686291268    -1.086414322228     1.007825032230
         H           -0.021536706983     2.948943291268     0.648043677772     1.007825032230
         H            1.647870293017     3.046738291268     0.078929677772     1.007825032230
         H            1.198455293017    -2.796388708732     0.149330677772     1.007825032230
         H            3.202252293017    -1.337858708732     0.382630677772     1.007825032230
         H           -2.321065506983     0.811008991268     1.795626277772     1.007825032230
         H           -2.898155706983    -0.565169708732     0.547513677772     1.007825032230
         H           -3.547205706983     1.064754291268     0.302527677772     1.007825032230
         H           -1.002910706983    -2.855580708732    -0.271180322228     1.007825032230

  Basis Set: AUG-CC-PVTZ
    Blend: AUG-CC-PVTZ
  Basis Set: (AUG-CC-PVTZ AUX)
    Blend: AUG-CC-PVTZ-JKFIT
	 Reference Energy          =    -438.7819568458879758 [Eh]
	 Singles Energy            =      -0.0000000000000000 [Eh]
	 Same-Spin Energy          =      -0.4737789468477768 [Eh]
	 Opposite-Spin Energy      =      -1.4987948828294515 [Eh]
	 Correlation Energy        =      -1.9725738296772284 [Eh]
	 Total Energy              =    -440.7545306755652064 [Eh]

	 ================> DF-SCS-MP2 Energies <==================
	-----------------------------------------------------------
	 SCS Same-Spin Scale       =       0.3333333333333333 [-]
	 SCS Opposite-Spin Scale   =       1.2000000000000000 [-]
	 SCS Same-Spin Energy      =      -0.1579263156159256 [Eh]
	 SCS Opposite-Spin Energy  =      -1.7985538593953418 [Eh]
	 SCS Correlation Energy    =      -1.9564801750112675 [Eh]
	 SCS Total Energy          =    -440.7384370208992550 [Eh]
	-----------------------------------------------------------

  Dipole Moment: [D]
     X:     0.3020      Y:     0.0355      Z:     0.5259     Total:     0.6075

*** Psi4 exiting successfully. Buy a developer a beer!
