                               Psi4 1.4a3.dev225

  ==> Input File <==

--------------------------------------------------------------------------
#psi4
#
memory 32 gb

molecule  {
0 1
  O       -1.2556513    -1.9832935    -0.2965941
  N       -1.5914490     0.7494560    -0.4145900
  C       -0.3130270     0.2119120    -0.1595780
  C        0.8301940     1.0305910    -0.0518670
  C       -0.1431580    -1.1878580    -0.1217090
  C        2.0898390     0.4471990     0.1357390
  C        0.6950280     2.5311170    -0.1166830
  C        1.1116310    -1.7522480     0.0999640
  C        2.2372160    -0.9348950     0.2090400
  C       -2.6427770     0.4546790     0.5677560
  H        2.9635850     1.0904280     0.2186520
  H       -1.5238420     1.7535930    -0.5485080
  H        0.3450640     2.8711750    -1.0989170
  H       -0.0074210     2.9084320     0.6355410
  H        1.6619860     3.0062270     0.0664270
  H        1.2125710    -2.8369000     0.1368280
  H        3.2163680    -1.3783700     0.3701280
  H       -2.3586210     0.7219050     1.5961240
  H       -2.8840400    -0.6056810     0.5350110
  H       -3.5330900     1.0242430     0.2900250
  H       -0.9887950    -2.8960920    -0.2836830
units angstrom
no_reorient  #important for SAPT in psi4, default
symmetry c1  #important for SAPT in psi4, default
}

set PROPERTIES_ORIGIN ["COM"]
properties('MP2/aug-cc-pvtz', properties = ['dipole'])
--------------------------------------------------------------------------

    Molecular point group: c1
  Charge       = 0
  Multiplicity = 1
  Basis Set: AUG-CC-PVTZ
    Blend: AUG-CC-PVTZ
  Basis Set: (AUG-CC-PVTZ AUX)
    Blend: AUG-CC-PVTZ-JKFIT

    Orbital Energies [Eh]
    ---------------------

    Doubly Occupied:

       1A    -20.584087     2A    -15.554140     3A    -11.295222
       4A    -11.263730     5A    -11.240779     6A    -11.240203
       7A    -11.231312     8A    -11.229974     9A    -11.229560
      10A    -11.223933    11A     -1.400202    12A     -1.224420
      13A     -1.131255    14A     -1.041035    15A     -0.995097
      16A     -0.937863    17A     -0.901252    18A     -0.824661
      19A     -0.801732    20A     -0.709317    21A     -0.695180
      22A     -0.671389    23A     -0.618215    24A     -0.607779
      25A     -0.598511    26A     -0.587569    27A     -0.575540
      28A     -0.570144    29A     -0.559964    30A     -0.536318
      31A     -0.528623    32A     -0.505373    33A     -0.484564
      34A     -0.470396    35A     -0.413254    36A     -0.317949
      37A     -0.290799

  @DF-RHF Final Energy:  -438.80238781710204

   => Energetics <=

    Nuclear Repulsion Energy =            524.0414641003341103
    One-Electron Energy =               -1635.5050284634412492
    Two-Electron Energy =                 672.6611765460052084
    Total Energy =                       -438.8023878171020442
  Basis Set: (AUG-CC-PVTZ AUX)
    Blend: AUG-CC-PVTZ-RI
    Molecular point group: c1

    Geometry (in Angstrom), charge = 0, multiplicity = 1:

       Center              X                  Y                   Z               Mass
    ------------   -----------------  -----------------  -----------------  -----------------
         O           -1.270963549888    -1.940117680355    -0.282989642978    15.994914619570
         N           -1.606761249888     0.792631819645    -0.400985542978    14.003074004430
         C           -0.328339249888     0.255087819645    -0.145973542978    12.000000000000
         C            0.814881750112     1.073766819645    -0.038262542978    12.000000000000
         C           -0.158470249888    -1.144682180355    -0.108104542978    12.000000000000
         C            2.074526750112     0.490374819645     0.149343457022    12.000000000000
         C            0.679715750112     2.574292819645    -0.103078542978    12.000000000000
         C            1.096318750112    -1.709072180355     0.113568457022    12.000000000000
         C            2.221903750112    -0.891719180355     0.222644457022    12.000000000000
         C           -2.658089249888     0.497854819645     0.581360457022    12.000000000000
         H            2.948272750112     1.133603819645     0.232256457022     1.007825032230
         H           -1.539154249888     1.796768819645    -0.534903542978     1.007825032230
         H            0.329751750112     2.914350819645    -1.085312542978     1.007825032230
         H           -0.022733249888     2.951607819645     0.649145457022     1.007825032230
         H            1.646673750112     3.049402819645     0.080031457022     1.007825032230
         H            1.197258750112    -2.793724180355     0.150432457022     1.007825032230
         H            3.201055750112    -1.335194180355     0.383732457022     1.007825032230
         H           -2.373933249888     0.765080819645     1.609728457022     1.007825032230
         H           -2.899352249888    -0.562505180355     0.548615457022     1.007825032230
         H           -3.548402249888     1.067418819645     0.303629457022     1.007825032230
         H           -1.004107249888    -2.852916180355    -0.270078542978     1.007825032230

  Basis Set: AUG-CC-PVTZ
    Blend: AUG-CC-PVTZ
  Basis Set: (AUG-CC-PVTZ AUX)
    Blend: AUG-CC-PVTZ-JKFIT
	 Reference Energy          =    -438.8023878171020442 [Eh]
	 Singles Energy            =      -0.0000000000000000 [Eh]
	 Same-Spin Energy          =      -0.4732784686284577 [Eh]
	 Opposite-Spin Energy      =      -1.4962830639437854 [Eh]
	 Correlation Energy        =      -1.9695615325722431 [Eh]
	 Total Energy              =    -440.7719493496742871 [Eh]

	 ================> DF-SCS-MP2 Energies <==================
	-----------------------------------------------------------
	 SCS Same-Spin Scale       =       0.3333333333333333 [-]
	 SCS Opposite-Spin Scale   =       1.2000000000000000 [-]
	 SCS Same-Spin Energy      =      -0.1577594895428192 [Eh]
	 SCS Opposite-Spin Energy  =      -1.7955396767325424 [Eh]
	 SCS Correlation Energy    =      -1.9532991662753616 [Eh]
	 SCS Total Energy          =    -440.7556869833774158 [Eh]
	-----------------------------------------------------------

  Dipole Moment: [D]
     X:     0.1854      Y:     0.1295      Z:     0.7793     Total:     0.8114

*** Psi4 exiting successfully. Buy a developer a beer!
