                               Psi4 1.4a3.dev225

  ==> Input File <==

--------------------------------------------------------------------------
#psi4
#
memory 32 gb

molecule  {
0 1
  O       -1.2691620    -1.9635190    -0.2989340
  N       -1.5914490     0.7494560    -0.4145900
  C       -0.3130270     0.2119120    -0.1595780
  C        0.8044824     1.0282843    -0.0569944
  C       -0.1431580    -1.1878580    -0.1217090
  C        2.0898390     0.4471990     0.1357390
  C        0.6950280     2.5311170    -0.1166830
  C        1.1116310    -1.7522480     0.0999640
  C        2.2372160    -0.9348950     0.2090400
  C       -2.6427770     0.4546790     0.5677560
  H        2.9635850     1.0904280     0.2186520
  H       -1.5238420     1.7535930    -0.5485080
  H        0.3450640     2.8711750    -1.0989170
  H       -0.0074210     2.9084320     0.6355410
  H        1.6619860     3.0062270     0.0664270
  H        1.2125710    -2.8369000     0.1368280
  H        3.2163680    -1.3783700     0.3701280
  H       -2.3586210     0.7219050     1.5961240
  H       -2.8840400    -0.6056810     0.5350110
  H       -3.5330900     1.0242430     0.2900250
  H       -0.9887950    -2.8960920    -0.2836830
units angstrom
no_reorient  #important for SAPT in psi4, default
symmetry c1  #important for SAPT in psi4, default
}

set PROPERTIES_ORIGIN ["COM"]
properties('MP2/aug-cc-pvtz', properties = ['dipole'])
--------------------------------------------------------------------------

    Molecular point group: c1
  Charge       = 0
  Multiplicity = 1
  Basis Set: AUG-CC-PVTZ
    Blend: AUG-CC-PVTZ
  Basis Set: (AUG-CC-PVTZ AUX)
    Blend: AUG-CC-PVTZ-JKFIT

    Orbital Energies [Eh]
    ---------------------

    Doubly Occupied:

       1A    -20.587628     2A    -15.553123     3A    -11.296161
       4A    -11.261102     5A    -11.240190     6A    -11.239556
       7A    -11.231451     8A    -11.229885     9A    -11.229441
      10A    -11.225737    11A     -1.397231    12A     -1.224783
      13A     -1.130029    14A     -1.040679    15A     -0.994701
      16A     -0.937404    17A     -0.900236    18A     -0.824801
      19A     -0.800523    20A     -0.705865    21A     -0.693167
      22A     -0.671777    23A     -0.617358    24A     -0.607980
      25A     -0.598716    26A     -0.587755    27A     -0.575514
      28A     -0.569753    29A     -0.559643    30A     -0.537770
      31A     -0.526879    32A     -0.508471    33A     -0.481557
      34A     -0.469968    35A     -0.413062    36A     -0.316164
      37A     -0.292529

  @DF-RHF Final Energy:  -438.80047298322449

   => Energetics <=

    Nuclear Repulsion Energy =            524.3023822200134418
    One-Electron Energy =               -1636.0485358587136488
    Two-Electron Energy =                 672.9456806554757122
    Total Energy =                       -438.8004729832244948
  Basis Set: (AUG-CC-PVTZ AUX)
    Blend: AUG-CC-PVTZ-RI
    Molecular point group: c1

    Geometry (in Angstrom), charge = 0, multiplicity = 1:

       Center              X                  Y                   Z               Mass
    ------------   -----------------  -----------------  -----------------  -----------------
         O           -1.280647096842    -1.922448538416    -0.284607684450    15.994914619570
         N           -1.602934096842     0.790526461584    -0.400263684450    14.003074004430
         C           -0.324512096842     0.252982461584    -0.145251684450    12.000000000000
         C            0.792997303158     1.069354761584    -0.042668084450    12.000000000000
         C           -0.154643096842    -1.146787538416    -0.107382684450    12.000000000000
         C            2.078353903158     0.488269461584     0.150065315550    12.000000000000
         C            0.683542903158     2.572187461584    -0.102356684450    12.000000000000
         C            1.100145903158    -1.711177538416     0.114290315550    12.000000000000
         C            2.225730903158    -0.893824538416     0.223366315550    12.000000000000
         C           -2.654262096842     0.495749461584     0.582082315550    12.000000000000
         H            2.952099903158     1.131498461584     0.232978315550     1.007825032230
         H           -1.535327096842     1.794663461584    -0.534181684450     1.007825032230
         H            0.333578903158     2.912245461584    -1.084590684450     1.007825032230
         H           -0.018906096842     2.949502461584     0.649867315550     1.007825032230
         H            1.650500903158     3.047297461584     0.080753315550     1.007825032230
         H            1.201085903158    -2.795829538416     0.151154315550     1.007825032230
         H            3.204882903158    -1.337299538416     0.384454315550     1.007825032230
         H           -2.370106096842     0.762975461584     1.610450315550     1.007825032230
         H           -2.895525096842    -0.564610538416     0.549337315550     1.007825032230
         H           -3.544575096842     1.065313461584     0.304351315550     1.007825032230
         H           -1.000280096842    -2.855021538416    -0.269356684450     1.007825032230

  Basis Set: AUG-CC-PVTZ
    Blend: AUG-CC-PVTZ
  Basis Set: (AUG-CC-PVTZ AUX)
    Blend: AUG-CC-PVTZ-JKFIT
	 Reference Energy          =    -438.8004729832244948 [Eh]
	 Singles Energy            =      -0.0000000000000000 [Eh]
	 Same-Spin Energy          =      -0.4735851785992956 [Eh]
	 Opposite-Spin Energy      =      -1.4971802449394456 [Eh]
	 Correlation Energy        =      -1.9707654235387411 [Eh]
	 Total Energy              =    -440.7712384067632456 [Eh]

	 ================> DF-SCS-MP2 Energies <==================
	-----------------------------------------------------------
	 SCS Same-Spin Scale       =       0.3333333333333333 [-]
	 SCS Opposite-Spin Scale   =       1.2000000000000000 [-]
	 SCS Same-Spin Energy      =      -0.1578617261997652 [Eh]
	 SCS Opposite-Spin Energy  =      -1.7966162939273347 [Eh]
	 SCS Correlation Energy    =      -1.9544780201270999 [Eh]
	 SCS Total Energy          =    -440.7549510033516071 [Eh]
	-----------------------------------------------------------

  Dipole Moment: [D]
     X:     0.2031      Y:     0.0849      Z:     0.7803     Total:     0.8108

*** Psi4 exiting successfully. Buy a developer a beer!
