                               Psi4 1.4a3.dev225

  ==> Input File <==

--------------------------------------------------------------------------
#psi4
#
memory 32 gb

molecule  {
0 1
  O       -1.2691620    -1.9635190    -0.2989340
  N       -1.5914490     0.7494560    -0.4145900
  C       -0.3130270     0.2119120    -0.1595780
  C        0.8301940     1.0305910    -0.0518670
  C       -0.1431580    -1.1878580    -0.1217090
  C        2.0898390     0.4471990     0.1357390
  C        0.6950280     2.5311170    -0.1166830
  C        1.1116310    -1.7522480     0.0999640
  C        2.2372160    -0.9348950     0.2090400
  C       -2.6427770     0.4546790     0.5677560
  H        2.9635850     1.0904280     0.2186520
  H       -1.5238420     1.7535930    -0.5485080
  H        0.3450640     2.8711750    -1.0989170
  H       -0.0074210     2.9084320     0.6355410
  H        1.6619860     3.0062270     0.0664270
  H        1.2125710    -2.8369000     0.1368280
  H        3.2163680    -1.3783700     0.3701280
  H       -2.4102922     0.6733123     1.4091244
  H       -2.8840400    -0.6056810     0.5350110
  H       -3.5330900     1.0242430     0.2900250
  H       -0.9887950    -2.8960920    -0.2836830
units angstrom
no_reorient  #important for SAPT in psi4, default
symmetry c1  #important for SAPT in psi4, default
}

set PROPERTIES_ORIGIN ["COM"]
properties('MP2/aug-cc-pvtz', properties = ['dipole'])
--------------------------------------------------------------------------

    Molecular point group: c1
  Charge       = 0
  Multiplicity = 1
  Basis Set: AUG-CC-PVTZ
    Blend: AUG-CC-PVTZ
  Basis Set: (AUG-CC-PVTZ AUX)
    Blend: AUG-CC-PVTZ-JKFIT

    Orbital Energies [Eh]
    ---------------------

    Doubly Occupied:

       1A    -20.586236     2A    -15.551176     3A    -11.293990
       4A    -11.262569     5A    -11.239584     6A    -11.230916
       7A    -11.229713     8A    -11.228989     9A    -11.223427
      10A    -11.214614    11A     -1.395904    12A     -1.223953
      13A     -1.131140    14A     -1.040737    15A     -0.997558
      16A     -0.940398    17A     -0.918623    18A     -0.822418
      19A     -0.803010    20A     -0.705754    21A     -0.691836
      22A     -0.678310    23A     -0.625268    24A     -0.611046
      25A     -0.605034    26A     -0.595792    27A     -0.575245
      28A     -0.569815    29A     -0.559902    30A     -0.536102
      31A     -0.527970    32A     -0.505160    33A     -0.483601
      34A     -0.470469    35A     -0.417779    36A     -0.317587
      37A     -0.289421

  @DF-RHF Final Energy:  -438.76883052500335

   => Energetics <=

    Nuclear Repulsion Energy =            525.1045901582917850
    One-Electron Energy =               -1637.5447566749708130
    Two-Electron Energy =                 673.6713359916756190
    Total Energy =                       -438.7688305250034091
  Basis Set: (AUG-CC-PVTZ AUX)
    Blend: AUG-CC-PVTZ-RI
    Molecular point group: c1

    Geometry (in Angstrom), charge = 0, multiplicity = 1:

       Center              X                  Y                   Z               Mass
    ------------   -----------------  -----------------  -----------------  -----------------
         O           -1.282517946478    -1.922293213728    -0.283681726507    15.994914619570
         N           -1.604804946478     0.790681786272    -0.399337726507    14.003074004430
         C           -0.326382946478     0.253137786272    -0.144325726507    12.000000000000
         C            0.816838053522     1.071816786272    -0.036614726507    12.000000000000
         C           -0.156513946478    -1.146632213728    -0.106456726507    12.000000000000
         C            2.076483053522     0.488424786272     0.150991273493    12.000000000000
         C            0.681672053522     2.572342786272    -0.101430726507    12.000000000000
         C            1.098275053522    -1.711022213728     0.115216273493    12.000000000000
         C            2.223860053522    -0.893669213728     0.224292273493    12.000000000000
         C           -2.656132946478     0.495904786272     0.583008273493    12.000000000000
         H            2.950229053522     1.131653786272     0.233904273493     1.007825032230
         H           -1.537197946478     1.794818786272    -0.533255726507     1.007825032230
         H            0.331708053522     2.912400786272    -1.083664726507     1.007825032230
         H           -0.020776946478     2.949657786272     0.650793273493     1.007825032230
         H            1.648630053522     3.047452786272     0.081679273493     1.007825032230
         H            1.199215053522    -2.795674213728     0.152080273493     1.007825032230
         H            3.203012053522    -1.337144213728     0.385380273493     1.007825032230
         H           -2.423648146478     0.714538086272     1.424376673493     1.007825032230
         H           -2.897395946478    -0.564455213728     0.550263273493     1.007825032230
         H           -3.546445946478     1.065468786272     0.305277273493     1.007825032230
         H           -1.002150946478    -2.854866213728    -0.268430726507     1.007825032230

  Basis Set: AUG-CC-PVTZ
    Blend: AUG-CC-PVTZ
  Basis Set: (AUG-CC-PVTZ AUX)
    Blend: AUG-CC-PVTZ-JKFIT
	 Reference Energy          =    -438.7688305250033522 [Eh]
	 Singles Energy            =      -0.0000000000000000 [Eh]
	 Same-Spin Energy          =      -0.4738265327178613 [Eh]
	 Opposite-Spin Energy      =      -1.4966530084889174 [Eh]
	 Correlation Energy        =      -1.9704795412067786 [Eh]
	 Total Energy              =    -440.7393100662101233 [Eh]

	 ================> DF-SCS-MP2 Energies <==================
	-----------------------------------------------------------
	 SCS Same-Spin Scale       =       0.3333333333333333 [-]
	 SCS Opposite-Spin Scale   =       1.2000000000000000 [-]
	 SCS Same-Spin Energy      =      -0.1579421775726204 [Eh]
	 SCS Opposite-Spin Energy  =      -1.7959836101867008 [Eh]
	 SCS Correlation Energy    =      -1.9539257877593212 [Eh]
	 SCS Total Energy          =    -440.7227563127626695 [Eh]
	-----------------------------------------------------------

  Dipole Moment: [D]
     X:     0.1039      Y:     0.1338      Z:     0.9234     Total:     0.9388

*** Psi4 exiting successfully. Buy a developer a beer!
