                               Psi4 1.4a3.dev225

  ==> Input File <==

--------------------------------------------------------------------------
#psi4
#
memory 32 gb

molecule  {
0 1
  O       -1.2691620    -1.9635190    -0.2989340
  N       -1.5914490     0.7494560    -0.4145900
  C       -0.3130270     0.2119120    -0.1595780
  C        0.8301940     1.0305910    -0.0518670
  C       -0.1431580    -1.1878580    -0.1217090
  C        2.0898390     0.4471990     0.1357390
  C        0.6950280     2.5311170    -0.1166830
  C        1.1116310    -1.7522480     0.0999640
  C        2.2160390    -0.7362984     0.1985072
  C       -2.6427770     0.4546790     0.5677560
  H        2.9635850     1.0904280     0.2186520
  H       -1.5238420     1.7535930    -0.5485080
  H        0.3450640     2.8711750    -1.0989170
  H       -0.0074210     2.9084320     0.6355410
  H        1.6619860     3.0062270     0.0664270
  H        1.2125710    -2.8369000     0.1368280
  H        3.2163680    -1.3783700     0.3701280
  H       -2.3586210     0.7219050     1.5961240
  H       -2.8840400    -0.6056810     0.5350110
  H       -3.5330900     1.0242430     0.2900250
  H       -0.9887950    -2.8960920    -0.2836830
units angstrom
no_reorient  #important for SAPT in psi4, default
symmetry c1  #important for SAPT in psi4, default
}

set PROPERTIES_ORIGIN ["COM"]
properties('MP2/aug-cc-pvtz', properties = ['dipole'])
--------------------------------------------------------------------------

    Molecular point group: c1
  Charge       = 0
  Multiplicity = 1
  Basis Set: AUG-CC-PVTZ
    Blend: AUG-CC-PVTZ
  Basis Set: (AUG-CC-PVTZ AUX)
    Blend: AUG-CC-PVTZ-JKFIT

    Orbital Energies [Eh]
    ---------------------

    Doubly Occupied:

       1A    -20.586836     2A    -15.554564     3A    -11.297613
       4A    -11.264027     5A    -11.240255     6A    -11.238863
       7A    -11.233490     8A    -11.229052     9A    -11.224120
      10A    -11.198689    11A     -1.397042    12A     -1.225326
      13A     -1.150296    14A     -1.031486    15A     -1.019663
      16A     -0.939041    17A     -0.895410    18A     -0.831193
      19A     -0.785165    20A     -0.706794    21A     -0.692989
      22A     -0.673686    23A     -0.625563    24A     -0.605130
      25A     -0.598171    26A     -0.587452    27A     -0.578682
      28A     -0.569463    29A     -0.560637    30A     -0.536530
      31A     -0.522648    32A     -0.505623    33A     -0.485334
      34A     -0.452710    35A     -0.417776    36A     -0.324025
      37A     -0.293949

  @DF-RHF Final Energy:  -438.73820648042653

   => Energetics <=

    Nuclear Repulsion Energy =            526.4962132866958200
    One-Electron Energy =               -1640.3102534532627033
    Two-Electron Energy =                 675.0758336861404132
    Total Energy =                       -438.7382064804264701
  Basis Set: (AUG-CC-PVTZ AUX)
    Blend: AUG-CC-PVTZ-RI
    Molecular point group: c1

    Geometry (in Angstrom), charge = 0, multiplicity = 1:

       Center              X                  Y                   Z               Mass
    ------------   -----------------  -----------------  -----------------  -----------------
         O           -1.281044044514    -1.940035116534    -0.284134509099    15.994914619570
         N           -1.603331044514     0.772939883466    -0.399790509099    14.003074004430
         C           -0.324909044514     0.235395883466    -0.144778509099    12.000000000000
         C            0.818311955486     1.054074883466    -0.037067509099    12.000000000000
         C           -0.155040044514    -1.164374116534    -0.106909509099    12.000000000000
         C            2.077956955486     0.470682883466     0.150538490901    12.000000000000
         C            0.683145955486     2.554600883466    -0.101883509099    12.000000000000
         C            1.099748955486    -1.728764116534     0.114763490901    12.000000000000
         C            2.204156955486    -0.712814516534     0.213306690901    12.000000000000
         C           -2.654659044514     0.478162883466     0.582555490901    12.000000000000
         H            2.951702955486     1.113911883466     0.233451490901     1.007825032230
         H           -1.535724044514     1.777076883466    -0.533708509099     1.007825032230
         H            0.333181955486     2.894658883466    -1.084117509099     1.007825032230
         H           -0.019303044514     2.931915883466     0.650340490901     1.007825032230
         H            1.650103955486     3.029710883466     0.081226490901     1.007825032230
         H            1.200688955486    -2.813416116534     0.151627490901     1.007825032230
         H            3.204485955486    -1.354886116534     0.384927490901     1.007825032230
         H           -2.370503044514     0.745388883466     1.610923490901     1.007825032230
         H           -2.895922044514    -0.582197116534     0.549810490901     1.007825032230
         H           -3.544972044514     1.047726883466     0.304824490901     1.007825032230
         H           -1.000677044514    -2.872608116534    -0.268883509099     1.007825032230

  Basis Set: AUG-CC-PVTZ
    Blend: AUG-CC-PVTZ
  Basis Set: (AUG-CC-PVTZ AUX)
    Blend: AUG-CC-PVTZ-JKFIT
	 Reference Energy          =    -438.7382064804265269 [Eh]
	 Singles Energy            =      -0.0000000000000000 [Eh]
	 Same-Spin Energy          =      -0.4729646774802489 [Eh]
	 Opposite-Spin Energy      =      -1.4984402316672618 [Eh]
	 Correlation Energy        =      -1.9714049091475108 [Eh]
	 Total Energy              =    -440.7096113895740359 [Eh]

	 ================> DF-SCS-MP2 Energies <==================
	-----------------------------------------------------------
	 SCS Same-Spin Scale       =       0.3333333333333333 [-]
	 SCS Opposite-Spin Scale   =       1.2000000000000000 [-]
	 SCS Same-Spin Energy      =      -0.1576548924934163 [Eh]
	 SCS Opposite-Spin Energy  =      -1.7981282780007142 [Eh]
	 SCS Correlation Energy    =      -1.9557831704941304 [Eh]
	 SCS Total Energy          =    -440.6939896509206847 [Eh]
	-----------------------------------------------------------

  Dipole Moment: [D]
     X:     0.1288      Y:     0.1391      Z:     0.7645     Total:     0.7877

*** Psi4 exiting successfully. Buy a developer a beer!
