                               Psi4 1.4a3.dev225

  ==> Input File <==

--------------------------------------------------------------------------
#psi4
#
memory 32 gb

molecule  {
0 1
  O       -1.2691620    -1.9635190    -0.2989340
  N       -1.5914490     0.7494560    -0.4145900
  C       -0.3130270     0.2119120    -0.1595780
  C        0.8301940     1.0305910    -0.0518670
  C       -0.1431580    -1.1878580    -0.1217090
  C        2.0898390     0.4471990     0.1357390
  C        0.6950280     2.5311170    -0.1166830
  C        1.1116310    -1.7522480     0.0999640
  C        2.2372160    -0.9348950     0.2090400
  C       -2.6427770     0.4546790     0.5677560
  H        2.9635850     1.0904280     0.2186520
  H       -1.5238420     1.7535930    -0.5485080
  H        0.3450640     2.8711750    -1.0989170
  H       -0.0074210     2.9084320     0.6355410
  H        1.6619860     3.0062270     0.0664270
  H        1.2125710    -2.8369000     0.1368280
  H        3.3965408    -1.4599734     0.3997697
  H       -2.3586210     0.7219050     1.5961240
  H       -2.8840400    -0.6056810     0.5350110
  H       -3.5330900     1.0242430     0.2900250
  H       -0.9887950    -2.8960920    -0.2836830
units angstrom
no_reorient  #important for SAPT in psi4, default
symmetry c1  #important for SAPT in psi4, default
}

set PROPERTIES_ORIGIN ["COM"]
properties('MP2/aug-cc-pvtz', properties = ['dipole'])
--------------------------------------------------------------------------

    Molecular point group: c1
  Charge       = 0
  Multiplicity = 1
  Basis Set: AUG-CC-PVTZ
    Blend: AUG-CC-PVTZ
  Basis Set: (AUG-CC-PVTZ AUX)
    Blend: AUG-CC-PVTZ-JKFIT

    Orbital Energies [Eh]
    ---------------------

    Doubly Occupied:

       1A    -20.588146     2A    -15.554722     3A    -11.296508
       4A    -11.264147     5A    -11.252871     6A    -11.242165
       7A    -11.240431     8A    -11.233172     9A    -11.230395
      10A    -11.226265    11A     -1.397744    12A     -1.224784
      13A     -1.131638    14A     -1.041186    15A     -0.992299
      16A     -0.939160    17A     -0.899563    18A     -0.821555
      19A     -0.794873    20A     -0.706514    21A     -0.693258
      22A     -0.667709    23A     -0.613445    24A     -0.599291
      25A     -0.594211    26A     -0.587867    27A     -0.575445
      28A     -0.571376    29A     -0.560529    30A     -0.535910
      31A     -0.521204    32A     -0.505807    33A     -0.474414
      34A     -0.471759    35A     -0.414052    36A     -0.319556
      37A     -0.291753

  @DF-RHF Final Energy:  -438.77889388417788

   => Energetics <=

    Nuclear Repulsion Energy =            523.1917207971965809
    One-Electron Energy =               -1633.7897820739431154
    Two-Electron Energy =                 671.8191673925688292
    Total Energy =                       -438.7788938841778190
  Basis Set: (AUG-CC-PVTZ AUX)
    Blend: AUG-CC-PVTZ-RI
    Molecular point group: c1

    Geometry (in Angstrom), charge = 0, multiplicity = 1:

       Center              X                  Y                   Z               Mass
    ------------   -----------------  -----------------  -----------------  -----------------
         O           -1.284222434805    -1.922050523157    -0.285274446469    15.994914619570
         N           -1.606509434805     0.790924476843    -0.400930446469    14.003074004430
         C           -0.328087434805     0.253380476843    -0.145918446469    12.000000000000
         C            0.815133565195     1.072059476843    -0.038207446469    12.000000000000
         C           -0.158218434805    -1.146389523157    -0.108049446469    12.000000000000
         C            2.074778565195     0.488667476843     0.149398553531    12.000000000000
         C            0.679967565195     2.572585476843    -0.103023446469    12.000000000000
         C            1.096570565195    -1.710779523157     0.113623553531    12.000000000000
         C            2.222155565195    -0.893426523157     0.222699553531    12.000000000000
         C           -2.657837434805     0.496147476843     0.581415553531    12.000000000000
         H            2.948524565195     1.131896476843     0.232311553531     1.007825032230
         H           -1.538902434805     1.795061476843    -0.534848446469     1.007825032230
         H            0.330003565195     2.912643476843    -1.085257446469     1.007825032230
         H           -0.022481434805     2.949900476843     0.649200553531     1.007825032230
         H            1.646925565195     3.047695476843     0.080086553531     1.007825032230
         H            1.197510565195    -2.795431523157     0.150487553531     1.007825032230
         H            3.381480365195    -1.418504923157     0.413429253531     1.007825032230
         H           -2.373681434805     0.763373476843     1.609783553531     1.007825032230
         H           -2.899100434805    -0.564212523157     0.548670553531     1.007825032230
         H           -3.548150434805     1.065711476843     0.303684553531     1.007825032230
         H           -1.003855434805    -2.854623523157    -0.270023446469     1.007825032230

  Basis Set: AUG-CC-PVTZ
    Blend: AUG-CC-PVTZ
  Basis Set: (AUG-CC-PVTZ AUX)
    Blend: AUG-CC-PVTZ-JKFIT
	 Reference Energy          =    -438.7788938841778759 [Eh]
	 Singles Energy            =      -0.0000000000000000 [Eh]
	 Same-Spin Energy          =      -0.4741886682101735 [Eh]
	 Opposite-Spin Energy      =      -1.4995178597979810 [Eh]
	 Correlation Energy        =      -1.9737065280081545 [Eh]
	 Total Energy              =    -440.7526004121860410 [Eh]

	 ================> DF-SCS-MP2 Energies <==================
	-----------------------------------------------------------
	 SCS Same-Spin Scale       =       0.3333333333333333 [-]
	 SCS Opposite-Spin Scale   =       1.2000000000000000 [-]
	 SCS Same-Spin Energy      =      -0.1580628894033912 [Eh]
	 SCS Opposite-Spin Energy  =      -1.7994214317575772 [Eh]
	 SCS Correlation Energy    =      -1.9574843211609683 [Eh]
	 SCS Total Energy          =    -440.7363782053388377 [Eh]
	-----------------------------------------------------------

  Dipole Moment: [D]
     X:     0.0746      Y:     0.1532      Z:     0.7621     Total:     0.7809

*** Psi4 exiting successfully. Buy a developer a beer!
