                               Psi4 1.4a3.dev225

  ==> Input File <==

--------------------------------------------------------------------------
#psi4
#
memory 32 gb

molecule  {
0 1
  O       -1.2691620    -1.9635190    -0.2989340
  N       -1.5914490     0.7494560    -0.4145900
  C       -0.3130270     0.2119120    -0.1595780
  C        0.8301940     1.0305910    -0.0518670
  C       -0.1431580    -1.1878580    -0.1217090
  C        2.0898390     0.4471990     0.1357390
  C        0.6950280     2.5311170    -0.1166830
  C        1.1116310    -1.7522480     0.0999640
  C        2.2372160    -0.9348950     0.2090400
  C       -2.6427770     0.4546790     0.5677560
  H        2.9635850     1.0904280     0.2186520
  H       -1.5171831     1.8524954    -0.5616982
  H        0.3450640     2.8711750    -1.0989170
  H       -0.0074210     2.9084320     0.6355410
  H        1.6619860     3.0062270     0.0664270
  H        1.2125710    -2.8369000     0.1368280
  H        3.2163680    -1.3783700     0.3701280
  H       -2.3586210     0.7219050     1.5961240
  H       -2.8840400    -0.6056810     0.5350110
  H       -3.5330900     1.0242430     0.2900250
  H       -0.9887950    -2.8960920    -0.2836830
units angstrom
no_reorient  #important for SAPT in psi4, default
symmetry c1  #important for SAPT in psi4, default
}

set PROPERTIES_ORIGIN ["COM"]
properties('MP2/aug-cc-pvtz', properties = ['dipole'])
--------------------------------------------------------------------------

    Molecular point group: c1
  Charge       = 0
  Multiplicity = 1
  Basis Set: AUG-CC-PVTZ
    Blend: AUG-CC-PVTZ
  Basis Set: (AUG-CC-PVTZ AUX)
    Blend: AUG-CC-PVTZ-JKFIT

    Orbital Energies [Eh]
    ---------------------

    Doubly Occupied:

       1A    -20.586922     2A    -15.563430     3A    -11.295027
       4A    -11.263401     5A    -11.240304     6A    -11.239846
       7A    -11.231503     8A    -11.230300     9A    -11.229477
      10A    -11.223822    11A     -1.396603    12A     -1.215473
      13A     -1.129239    14A     -1.040750    15A     -0.993463
      16A     -0.937934    17A     -0.895377    18A     -0.822046
      19A     -0.797169    20A     -0.705953    21A     -0.684307
      22A     -0.671228    23A     -0.616234    24A     -0.606598
      25A     -0.595716    26A     -0.587002    27A     -0.574501
      28A     -0.570302    29A     -0.558899    30A     -0.535715
      31A     -0.525256    32A     -0.505072    33A     -0.481709
      34A     -0.469533    35A     -0.411315    36A     -0.318011
      37A     -0.290119

  @DF-RHF Final Energy:  -438.79045736966754

   => Energetics <=

    Nuclear Repulsion Energy =            523.6143332598618372
    One-Electron Energy =               -1634.7304707922896796
    Two-Electron Energy =                 672.3256801627601362
    Total Energy =                       -438.7904573696675925
  Basis Set: (AUG-CC-PVTZ AUX)
    Blend: AUG-CC-PVTZ-RI
    Molecular point group: c1

    Geometry (in Angstrom), charge = 0, multiplicity = 1:

       Center              X                  Y                   Z               Mass
    ------------   -----------------  -----------------  -----------------  -----------------
         O           -1.282946782137    -1.923377579405    -0.284959551653    15.994914619570
         N           -1.605233782137     0.789597420595    -0.400615551653    14.003074004430
         C           -0.326811782137     0.252053420595    -0.145603551653    12.000000000000
         C            0.816409217863     1.070732420595    -0.037892551653    12.000000000000
         C           -0.156942782137    -1.147716579405    -0.107734551653    12.000000000000
         C            2.076054217863     0.487340420595     0.149713448347    12.000000000000
         C            0.681243217863     2.571258420595    -0.102708551653    12.000000000000
         C            1.097846217863    -1.712106579405     0.113938448347    12.000000000000
         C            2.223431217863    -0.894753579405     0.223014448347    12.000000000000
         C           -2.656561782137     0.494820420595     0.581730448347    12.000000000000
         H            2.949800217863     1.130569420595     0.232626448347     1.007825032230
         H           -1.530967882137     1.892636820595    -0.547723751653     1.007825032230
         H            0.331279217863     2.911316420595    -1.084942551653     1.007825032230
         H           -0.021205782137     2.948573420595     0.649515448347     1.007825032230
         H            1.648201217863     3.046368420595     0.080401448347     1.007825032230
         H            1.198786217863    -2.796758579405     0.150802448347     1.007825032230
         H            3.202583217863    -1.338228579405     0.384102448347     1.007825032230
         H           -2.372405782137     0.762046420595     1.610098448347     1.007825032230
         H           -2.897824782137    -0.565539579405     0.548985448347     1.007825032230
         H           -3.546874782137     1.064384420595     0.303999448347     1.007825032230
         H           -1.002579782137    -2.855950579405    -0.269708551653     1.007825032230

  Basis Set: AUG-CC-PVTZ
    Blend: AUG-CC-PVTZ
  Basis Set: (AUG-CC-PVTZ AUX)
    Blend: AUG-CC-PVTZ-JKFIT
	 Reference Energy          =    -438.7904573696675357 [Eh]
	 Singles Energy            =      -0.0000000000000000 [Eh]
	 Same-Spin Energy          =      -0.4745876279504131 [Eh]
	 Opposite-Spin Energy      =      -1.4995106111950229 [Eh]
	 Correlation Energy        =      -1.9740982391454360 [Eh]
	 Total Energy              =    -440.7645556088129979 [Eh]

	 ================> DF-SCS-MP2 Energies <==================
	-----------------------------------------------------------
	 SCS Same-Spin Scale       =       0.3333333333333333 [-]
	 SCS Opposite-Spin Scale   =       1.2000000000000000 [-]
	 SCS Same-Spin Energy      =      -0.1581958759834710 [Eh]
	 SCS Opposite-Spin Energy  =      -1.7994127334340275 [Eh]
	 SCS Correlation Energy    =      -1.9576086094174985 [Eh]
	 SCS Total Energy          =    -440.7480659790850268 [Eh]
	-----------------------------------------------------------

  Dipole Moment: [D]
     X:     0.1892      Y:     0.1350      Z:     0.7750     Total:     0.8091

*** Psi4 exiting successfully. Buy a developer a beer!
