                               Psi4 1.4a3.dev225

  ==> Input File <==

--------------------------------------------------------------------------
#psi4
#
memory 32 gb

molecule  {
0 1
  O       -1.2691620    -1.9635190    -0.2989340
  N       -1.5914490     0.7494560    -0.4145900
  C       -0.3130270     0.2119120    -0.1595780
  C        0.8301940     1.0305910    -0.0518670
  C       -0.1431580    -1.1878580    -0.1217090
  C        2.0421497     0.4408989     0.1289337
  C        0.6950280     2.5311170    -0.1166830
  C        1.1116310    -1.7522480     0.0999640
  C        2.2372160    -0.9348950     0.2090400
  C       -2.6427770     0.4546790     0.5677560
  H        2.9635850     1.0904280     0.2186520
  H       -1.5238420     1.7535930    -0.5485080
  H        0.3450640     2.8711750    -1.0989170
  H       -0.0074210     2.9084320     0.6355410
  H        1.6619860     3.0062270     0.0664270
  H        1.2125710    -2.8369000     0.1368280
  H        3.2163680    -1.3783700     0.3701280
  H       -2.3586210     0.7219050     1.5961240
  H       -2.8840400    -0.6056810     0.5350110
  H       -3.5330900     1.0242430     0.2900250
  H       -0.9887950    -2.8960920    -0.2836830
units angstrom
no_reorient  #important for SAPT in psi4, default
symmetry c1  #important for SAPT in psi4, default
}

set PROPERTIES_ORIGIN ["COM"]
properties('MP2/aug-cc-pvtz', properties = ['dipole'])
--------------------------------------------------------------------------

    Molecular point group: c1
  Charge       = 0
  Multiplicity = 1
  Basis Set: AUG-CC-PVTZ
    Blend: AUG-CC-PVTZ
  Basis Set: (AUG-CC-PVTZ AUX)
    Blend: AUG-CC-PVTZ-JKFIT

    Orbital Energies [Eh]
    ---------------------

    Doubly Occupied:

       1A    -20.585856     2A    -15.554027     3A    -11.292860
       4A    -11.263164     5A    -11.239829     6A    -11.236059
       7A    -11.231771     8A    -11.230290     9A    -11.229728
      10A    -11.223383    11A     -1.395613    12A     -1.224409
      13A     -1.135596    14A     -1.043271    15A     -0.992817
      16A     -0.938993    17A     -0.901789    18A     -0.823534
      19A     -0.800095    20A     -0.708145    21A     -0.691089
      22A     -0.670899    23A     -0.618091    24A     -0.606634
      25A     -0.595930    26A     -0.587690    27A     -0.576042
      28A     -0.571125    29A     -0.559415    30A     -0.535098
      31A     -0.532081    32A     -0.495835    33A     -0.487389
      34A     -0.472508    35A     -0.412743    36A     -0.322631
      37A     -0.288878

  @DF-RHF Final Energy:  -438.79824520929060

   => Energetics <=

    Nuclear Repulsion Energy =            525.0657166016230804
    One-Electron Energy =               -1637.5773090876955393
    Two-Electron Energy =                 673.7133472767818603
    Total Energy =                       -438.7982452092905987
  Basis Set: (AUG-CC-PVTZ AUX)
    Blend: AUG-CC-PVTZ-RI
    Molecular point group: c1

    Geometry (in Angstrom), charge = 0, multiplicity = 1:

       Center              X                  Y                   Z               Mass
    ------------   -----------------  -----------------  -----------------  -----------------
         O           -1.278723223327    -1.922098966054    -0.284460805233    15.994914619570
         N           -1.601010223327     0.790876033946    -0.400116805233    14.003074004430
         C           -0.322588223327     0.253332033946    -0.145104805233    12.000000000000
         C            0.820632776673     1.072011033946    -0.037393805233    12.000000000000
         C           -0.152719223327    -1.146437966054    -0.107235805233    12.000000000000
         C            2.032588476673     0.482318933946     0.143406894767    12.000000000000
         C            0.685466776673     2.572537033946    -0.102209805233    12.000000000000
         C            1.102069776673    -1.710827966054     0.114437194767    12.000000000000
         C            2.227654776673    -0.893474966054     0.223513194767    12.000000000000
         C           -2.652338223327     0.496099033946     0.582229194767    12.000000000000
         H            2.954023776673     1.131848033946     0.233125194767     1.007825032230
         H           -1.533403223327     1.795013033946    -0.534034805233     1.007825032230
         H            0.335502776673     2.912595033946    -1.084443805233     1.007825032230
         H           -0.016982223327     2.949852033946     0.650014194767     1.007825032230
         H            1.652424776673     3.047647033946     0.080900194767     1.007825032230
         H            1.203009776673    -2.795479966054     0.151301194767     1.007825032230
         H            3.206806776673    -1.336949966054     0.384601194767     1.007825032230
         H           -2.368182223327     0.763325033946     1.610597194767     1.007825032230
         H           -2.893601223327    -0.564260966054     0.549484194767     1.007825032230
         H           -3.542651223327     1.065663033946     0.304498194767     1.007825032230
         H           -0.998356223327    -2.854671966054    -0.269209805233     1.007825032230

  Basis Set: AUG-CC-PVTZ
    Blend: AUG-CC-PVTZ
  Basis Set: (AUG-CC-PVTZ AUX)
    Blend: AUG-CC-PVTZ-JKFIT
	 Reference Energy          =    -438.7982452092905987 [Eh]
	 Singles Energy            =      -0.0000000000000000 [Eh]
	 Same-Spin Energy          =      -0.4738907570971680 [Eh]
	 Opposite-Spin Energy      =      -1.4973638950531822 [Eh]
	 Correlation Energy        =      -1.9712546521503502 [Eh]
	 Total Energy              =    -440.7694998614409769 [Eh]

	 ================> DF-SCS-MP2 Energies <==================
	-----------------------------------------------------------
	 SCS Same-Spin Scale       =       0.3333333333333333 [-]
	 SCS Opposite-Spin Scale   =       1.2000000000000000 [-]
	 SCS Same-Spin Energy      =      -0.1579635856990560 [Eh]
	 SCS Opposite-Spin Energy  =      -1.7968366740638186 [Eh]
	 SCS Correlation Energy    =      -1.9548002597628746 [Eh]
	 SCS Total Energy          =    -440.7530454690534611 [Eh]
	-----------------------------------------------------------

  Dipole Moment: [D]
     X:     0.1874      Y:     0.0974      Z:     0.7788     Total:     0.8069

*** Psi4 exiting successfully. Buy a developer a beer!
