                               Psi4 1.4a3.dev225

  ==> Input File <==

--------------------------------------------------------------------------
#psi4
#
memory 32 gb

molecule  {
0 1
  O       -1.2691620    -1.9635190    -0.2989340
  N       -1.5914490     0.7494560    -0.4145900
  C       -0.2611965     0.3495495    -0.1719987
  C        0.8301940     1.0305910    -0.0518670
  C       -0.1431580    -1.1878580    -0.1217090
  C        2.0898390     0.4471990     0.1357390
  C        0.6950280     2.5311170    -0.1166830
  C        1.1116310    -1.7522480     0.0999640
  C        2.2372160    -0.9348950     0.2090400
  C       -2.6427770     0.4546790     0.5677560
  H        2.9635850     1.0904280     0.2186520
  H       -1.5238420     1.7535930    -0.5485080
  H        0.3450640     2.8711750    -1.0989170
  H       -0.0074210     2.9084320     0.6355410
  H        1.6619860     3.0062270     0.0664270
  H        1.2125710    -2.8369000     0.1368280
  H        3.2163680    -1.3783700     0.3701280
  H       -2.3586210     0.7219050     1.5961240
  H       -2.8840400    -0.6056810     0.5350110
  H       -3.5330900     1.0242430     0.2900250
  H       -0.9887950    -2.8960920    -0.2836830
units angstrom
no_reorient  #important for SAPT in psi4, default
symmetry c1  #important for SAPT in psi4, default
}

set PROPERTIES_ORIGIN ["COM"]
properties('MP2/aug-cc-pvtz', properties = ['dipole'])
--------------------------------------------------------------------------

    Molecular point group: c1
  Charge       = 0
  Multiplicity = 1
  Basis Set: AUG-CC-PVTZ
    Blend: AUG-CC-PVTZ
  Basis Set: (AUG-CC-PVTZ AUX)
    Blend: AUG-CC-PVTZ-JKFIT

    Orbital Energies [Eh]
    ---------------------

    Doubly Occupied:

       1A    -20.592769     2A    -15.555946     3A    -11.307917
       4A    -11.263764     5A    -11.243472     6A    -11.231231
       7A    -11.225918     8A    -11.225581     9A    -11.223756
      10A    -11.222356    11A     -1.398620    12A     -1.228275
      13A     -1.134348    14A     -1.048740    15A     -0.982636
      16A     -0.937158    17A     -0.902780    18A     -0.828391
      19A     -0.800765    20A     -0.703507    21A     -0.694944
      22A     -0.674650    23A     -0.611364    24A     -0.608357
      25A     -0.595316    26A     -0.590263    27A     -0.577601
      28A     -0.570573    29A     -0.562261    30A     -0.533616
      31A     -0.529733    32A     -0.510547    33A     -0.474277
      34A     -0.461393    35A     -0.418299    36A     -0.328350
      37A     -0.284650

  @DF-RHF Final Energy:  -438.77411649243209

   => Energetics <=

    Nuclear Repulsion Energy =            523.9321719880305182
    One-Electron Energy =               -1635.2443364544244560
    Two-Electron Energy =                 672.5380479739617385
    Total Energy =                       -438.7741164924320856
  Basis Set: (AUG-CC-PVTZ AUX)
    Blend: AUG-CC-PVTZ-RI
    Molecular point group: c1

    Geometry (in Angstrom), charge = 0, multiplicity = 1:

       Center              X                  Y                   Z               Mass
    ------------   -----------------  -----------------  -----------------  -----------------
         O           -1.287434940542    -1.934698907651    -0.283969247001    15.994914619570
         N           -1.609721940542     0.778276092349    -0.399625247001    14.003074004430
         C           -0.279469440542     0.378369592349    -0.157033947001    12.000000000000
         C            0.811921059458     1.059411092349    -0.036902247001    12.000000000000
         C           -0.161430940542    -1.159037907651    -0.106744247001    12.000000000000
         C            2.071566059458     0.476019092349     0.150703752999    12.000000000000
         C            0.676755059458     2.559937092349    -0.101718247001    12.000000000000
         C            1.093358059458    -1.723427907651     0.114928752999    12.000000000000
         C            2.218943059458    -0.906074907651     0.224004752999    12.000000000000
         C           -2.661049940542     0.483499092349     0.582720752999    12.000000000000
         H            2.945312059458     1.119248092349     0.233616752999     1.007825032230
         H           -1.542114940542     1.782413092349    -0.533543247001     1.007825032230
         H            0.326791059458     2.899995092349    -1.083952247001     1.007825032230
         H           -0.025693940542     2.937252092349     0.650505752999     1.007825032230
         H            1.643713059458     3.035047092349     0.081391752999     1.007825032230
         H            1.194298059458    -2.808079907651     0.151792752999     1.007825032230
         H            3.198095059458    -1.349549907651     0.385092752999     1.007825032230
         H           -2.376893940542     0.750725092349     1.611088752999     1.007825032230
         H           -2.902312940542    -0.576860907651     0.549975752999     1.007825032230
         H           -3.551362940542     1.053063092349     0.304989752999     1.007825032230
         H           -1.007067940542    -2.867271907651    -0.268718247001     1.007825032230

  Basis Set: AUG-CC-PVTZ
    Blend: AUG-CC-PVTZ
  Basis Set: (AUG-CC-PVTZ AUX)
    Blend: AUG-CC-PVTZ-JKFIT
	 Reference Energy          =    -438.7741164924320856 [Eh]
	 Singles Energy            =      -0.0000000000000000 [Eh]
	 Same-Spin Energy          =      -0.4730719506462363 [Eh]
	 Opposite-Spin Energy      =      -1.4981827479930052 [Eh]
	 Correlation Energy        =      -1.9712546986392416 [Eh]
	 Total Energy              =    -440.7453711910713423 [Eh]

	 ================> DF-SCS-MP2 Energies <==================
	-----------------------------------------------------------
	 SCS Same-Spin Scale       =       0.3333333333333333 [-]
	 SCS Opposite-Spin Scale   =       1.2000000000000000 [-]
	 SCS Same-Spin Energy      =      -0.1576906502154121 [Eh]
	 SCS Opposite-Spin Energy  =      -1.7978192975916063 [Eh]
	 SCS Correlation Energy    =      -1.9555099478070184 [Eh]
	 SCS Total Energy          =    -440.7296264402390875 [Eh]
	-----------------------------------------------------------

  Dipole Moment: [D]
     X:     0.0157      Y:     0.0312      Z:     0.8055     Total:     0.8062

*** Psi4 exiting successfully. Buy a developer a beer!
