                               Psi4 1.4a3.dev225

  ==> Input File <==

--------------------------------------------------------------------------
#psi4
#
memory 32 gb

molecule  {
0 1
  O       -1.2691620    -1.9635190    -0.2989340
  N       -1.5914490     0.7494560    -0.4145900
  C       -0.3130270     0.2119120    -0.1595780
  C        0.8301940     1.0305910    -0.0518670
  C       -0.1224295    -1.1438516    -0.1216640
  C        2.0898390     0.4471990     0.1357390
  C        0.6950280     2.5311170    -0.1166830
  C        1.1116310    -1.7522480     0.0999640
  C        2.2372160    -0.9348950     0.2090400
  C       -2.6427770     0.4546790     0.5677560
  H        2.9635850     1.0904280     0.2186520
  H       -1.5238420     1.7535930    -0.5485080
  H        0.3450640     2.8711750    -1.0989170
  H       -0.0074210     2.9084320     0.6355410
  H        1.6619860     3.0062270     0.0664270
  H        1.2125710    -2.8369000     0.1368280
  H        3.2163680    -1.3783700     0.3701280
  H       -2.3586210     0.7219050     1.5961240
  H       -2.8840400    -0.6056810     0.5350110
  H       -3.5330900     1.0242430     0.2900250
  H       -0.9887950    -2.8960920    -0.2836830
units angstrom
no_reorient  #important for SAPT in psi4, default
symmetry c1  #important for SAPT in psi4, default
}

set PROPERTIES_ORIGIN ["COM"]
properties('MP2/aug-cc-pvtz', properties = ['dipole'])
--------------------------------------------------------------------------

    Molecular point group: c1
  Charge       = 0
  Multiplicity = 1
  Basis Set: AUG-CC-PVTZ
    Blend: AUG-CC-PVTZ
  Basis Set: (AUG-CC-PVTZ AUX)
    Blend: AUG-CC-PVTZ-JKFIT

    Orbital Energies [Eh]
    ---------------------

    Doubly Occupied:

       1A    -20.578337     2A    -15.554410     3A    -11.291223
       4A    -11.260686     5A    -11.243000     6A    -11.239292
       7A    -11.233618     8A    -11.232285     9A    -11.230606
      10A    -11.225723    11A     -1.375389    12A     -1.225648
      13A     -1.135279    14A     -1.042315    15A     -1.000572
      16A     -0.939446    17A     -0.901690    18A     -0.821780
      19A     -0.799974    20A     -0.706188    21A     -0.685285
      22A     -0.669204    23A     -0.622693    24A     -0.606111
      25A     -0.597063    26A     -0.585915    27A     -0.573484
      28A     -0.568851    29A     -0.555745    30A     -0.536431
      31A     -0.528611    32A     -0.503165    33A     -0.487646
      34A     -0.471560    35A     -0.413719    36A     -0.319154
      37A     -0.297279

  @DF-RHF Final Energy:  -438.79833831678502

   => Energetics <=

    Nuclear Repulsion Energy =            524.4952294982134617
    One-Electron Energy =               -1636.4683834570155341
    Two-Electron Energy =                 673.1748156420169380
    Total Energy =                       -438.7983383167850207
  Basis Set: (AUG-CC-PVTZ AUX)
    Blend: AUG-CC-PVTZ-RI
    Molecular point group: c1

    Geometry (in Angstrom), charge = 0, multiplicity = 1:

       Center              X                  Y                   Z               Mass
    ------------   -----------------  -----------------  -----------------  -----------------
         O           -1.284712348366    -1.926502672674    -0.285060463556    15.994914619570
         N           -1.606999348366     0.786472327326    -0.400716463556    14.003074004430
         C           -0.328577348366     0.248928327326    -0.145704463556    12.000000000000
         C            0.814643651634     1.067607327326    -0.037993463556    12.000000000000
         C           -0.137979848366    -1.106835272674    -0.107790463556    12.000000000000
         C            2.074288651634     0.484215327326     0.149612536444    12.000000000000
         C            0.679477651634     2.568133327326    -0.102809463556    12.000000000000
         C            1.096080651634    -1.715231672674     0.113837536444    12.000000000000
         C            2.221665651634    -0.897878672674     0.222913536444    12.000000000000
         C           -2.658327348366     0.491695327326     0.581629536444    12.000000000000
         H            2.948034651634     1.127444327326     0.232525536444     1.007825032230
         H           -1.539392348366     1.790609327326    -0.534634463556     1.007825032230
         H            0.329513651634     2.908191327326    -1.085043463556     1.007825032230
         H           -0.022971348366     2.945448327326     0.649414536444     1.007825032230
         H            1.646435651634     3.043243327326     0.080300536444     1.007825032230
         H            1.197020651634    -2.799883672674     0.150701536444     1.007825032230
         H            3.200817651634    -1.341353672674     0.384001536444     1.007825032230
         H           -2.374171348366     0.758921327326     1.609997536444     1.007825032230
         H           -2.899590348366    -0.568664672674     0.548884536444     1.007825032230
         H           -3.548640348366     1.061259327326     0.303898536444     1.007825032230
         H           -1.004345348366    -2.859075672674    -0.269809463556     1.007825032230

  Basis Set: AUG-CC-PVTZ
    Blend: AUG-CC-PVTZ
  Basis Set: (AUG-CC-PVTZ AUX)
    Blend: AUG-CC-PVTZ-JKFIT
	 Reference Energy          =    -438.7983383167850207 [Eh]
	 Singles Energy            =      -0.0000000000000000 [Eh]
	 Same-Spin Energy          =      -0.4735760607712931 [Eh]
	 Opposite-Spin Energy      =      -1.4974496586979473 [Eh]
	 Correlation Energy        =      -1.9710257194692404 [Eh]
	 Total Energy              =    -440.7693640362542737 [Eh]

	 ================> DF-SCS-MP2 Energies <==================
	-----------------------------------------------------------
	 SCS Same-Spin Scale       =       0.3333333333333333 [-]
	 SCS Opposite-Spin Scale   =       1.2000000000000000 [-]
	 SCS Same-Spin Energy      =      -0.1578586869237644 [Eh]
	 SCS Opposite-Spin Energy  =      -1.7969395904375367 [Eh]
	 SCS Correlation Energy    =      -1.9547982773613011 [Eh]
	 SCS Total Energy          =    -440.7531365941463264 [Eh]
	-----------------------------------------------------------

  Dipole Moment: [D]
     X:     0.4173      Y:     0.2642      Z:     0.8181     Total:     0.9556

*** Psi4 exiting successfully. Buy a developer a beer!
