                               Psi4 1.3.2 release

  ==> Input File <==

--------------------------------------------------------------------------
#psi4
#
memory 32 gb

molecule  {
0 1
  O        0.0000000     1.3710840     0.0001610
  N        1.1567260    -0.6015950    -0.0003660
  N       -1.1567372    -0.6015754    -0.1000840
  C       -0.0000010     0.1421750     0.0000460
  H        1.1829190    -1.6081880     0.0006500
  H        2.0253400    -0.0915110     0.0004520
  H       -2.0253400    -0.0915110     0.0003950
  H       -1.1829200    -1.6081890     0.0000880
units angstrom
no_reorient  #important for SAPT in psi4, default
symmetry c1  #important for SAPT in psi4, default
}

set PROPERTIES_ORIGIN ["COM"]
properties('MP2/aug-cc-pvtz', properties = ['dipole'])
--------------------------------------------------------------------------

    Molecular point group: c1
  Charge       = 0
  Multiplicity = 1
  Basis Set: AUG-CC-PVTZ
    Blend: AUG-CC-PVTZ
  Basis Set: (AUG-CC-PVTZ AUX)
    Blend: AUG-CC-PVTZ-JKFIT

    Orbital Energies [Eh]
    ---------------------

    Doubly Occupied:

       1A    -20.507187     2A    -15.585217     3A    -15.584707
       4A    -11.382579     5A     -1.381371     6A     -1.228816
       7A     -1.176059     8A     -0.832227     9A     -0.743688
      10A     -0.730757    11A     -0.644535    12A     -0.603600
      13A     -0.595709    14A     -0.439134    15A     -0.426770
      16A     -0.414637

  @DF-RHF Final Energy:  -224.08063196441975

   => Energetics <=

    Nuclear Repulsion Energy =            123.3474794029671102
    One-Electron Energy =                -550.3022361561231719
    Two-Electron Energy =                 202.8741247887363102
    Total Energy =                       -224.0806319644197515
  Basis Set: (AUG-CC-PVTZ AUX)
    Blend: AUG-CC-PVTZ-RI
    Molecular point group: c1

    Geometry (in Angstrom), charge = 0, multiplicity = 1:

       Center              X                  Y                   Z               Mass
    ------------   -----------------  -----------------  -----------------  -----------------
         O            0.000002829178     1.315074411106     0.023513141002    15.994914619570
         N            1.156728829178    -0.657604588894     0.022986141002    14.003074004430
         N           -1.156734370822    -0.657584988894    -0.076731858998    14.003074004430
         C            0.000001829178     0.086165411106     0.023398141002    12.000000000000
         H            1.182921829178    -1.664197588894     0.024002141002     1.007825032230
         H            2.025342829178    -0.147520588894     0.023804141002     1.007825032230
         H           -2.025337170822    -0.147520588894     0.023747141002     1.007825032230
         H           -1.182917170822    -1.664198588894     0.023440141002     1.007825032230

  Basis Set: AUG-CC-PVTZ
    Blend: AUG-CC-PVTZ
  Basis Set: (AUG-CC-PVTZ AUX)
    Blend: AUG-CC-PVTZ-JKFIT
	 Reference Energy          =    -224.0806319644197515 [Eh]
	 Singles Energy            =      -0.0000000000000000 [Eh]
	 Same-Spin Energy          =      -0.2208448519096263 [Eh]
	 Opposite-Spin Energy      =      -0.6734538605151374 [Eh]
	 Correlation Energy        =      -0.8942987124247638 [Eh]
	 Total Energy              =    -224.9749306768445081 [Eh]

	 ================> DF-SCS-MP2 Energies <==================
	-----------------------------------------------------------
	 SCS Same-Spin Scale       =       0.3333333333333333 [-]
	 SCS Opposite-Spin Scale   =       1.2000000000000000 [-]
	 SCS Same-Spin Energy      =      -0.0736149506365421 [Eh]
	 SCS Opposite-Spin Energy  =      -0.8081446326181649 [Eh]
	 SCS Correlation Energy    =      -0.8817595832547070 [Eh]
	 SCS Total Energy          =    -224.9623915476744571 [Eh]
	-----------------------------------------------------------

  Dipole Moment: [D]
     X:     0.0319      Y:    -4.2848      Z:     0.2778     Total:     4.2939

*** Psi4 exiting successfully. Buy a developer a beer!
