                               Psi4 1.3.2 release

  ==> Input File <==

--------------------------------------------------------------------------
#psi4
#
memory 32 gb

molecule  {
0 1
  O        0.0000000     1.3710840     0.0001610
  N        1.1567260    -0.6015950    -0.0003660
  N       -1.1567616    -0.6015363    -0.3000840
  C       -0.0000010     0.1421750     0.0000460
  H        1.1829190    -1.6081880     0.0006500
  H        2.0253400    -0.0915110     0.0004520
  H       -2.0253400    -0.0915110     0.0003950
  H       -1.1829200    -1.6081890     0.0000880
units angstrom
no_reorient  #important for SAPT in psi4, default
symmetry c1  #important for SAPT in psi4, default
}

set PROPERTIES_ORIGIN ["COM"]
properties('MP2/aug-cc-pvtz', properties = ['dipole'])
--------------------------------------------------------------------------

    Molecular point group: c1
  Charge       = 0
  Multiplicity = 1
  Basis Set: AUG-CC-PVTZ
    Blend: AUG-CC-PVTZ
  Basis Set: (AUG-CC-PVTZ AUX)
    Blend: AUG-CC-PVTZ-JKFIT

    Orbital Energies [Eh]
    ---------------------

    Doubly Occupied:

       1A    -20.514358     2A    -15.593889     3A    -15.588179
       4A    -11.385613     5A     -1.383866     6A     -1.226680
       7A     -1.169961     8A     -0.824128     9A     -0.737958
      10A     -0.715069    11A     -0.633971    12A     -0.606231
      13A     -0.589103    14A     -0.447215    15A     -0.431617
      16A     -0.418468

  @DF-RHF Final Energy:  -224.07234626513545

   => Energetics <=

    Nuclear Repulsion Energy =            122.5543178020230926
    One-Electron Energy =                -548.7207211131948270
    Two-Electron Energy =                 202.0940570460362835
    Total Energy =                       -224.0723462651354509
  Basis Set: (AUG-CC-PVTZ AUX)
    Blend: AUG-CC-PVTZ-RI
    Molecular point group: c1

    Geometry (in Angstrom), charge = 0, multiplicity = 1:

       Center              X                  Y                   Z               Mass
    ------------   -----------------  -----------------  -----------------  -----------------
         O            0.000008520692     1.315065290689     0.070164891363    15.994914619570
         N            1.156734520692    -0.657613709311     0.069637891363    14.003074004430
         N           -1.156753079308    -0.657555009311    -0.230080108637    14.003074004430
         C            0.000007520692     0.086156290689     0.070049891363    12.000000000000
         H            1.182927520692    -1.664206709311     0.070653891363     1.007825032230
         H            2.025348520692    -0.147529709311     0.070455891363     1.007825032230
         H           -2.025331479308    -0.147529709311     0.070398891363     1.007825032230
         H           -1.182911479308    -1.664207709311     0.070091891363     1.007825032230

  Basis Set: AUG-CC-PVTZ
    Blend: AUG-CC-PVTZ
  Basis Set: (AUG-CC-PVTZ AUX)
    Blend: AUG-CC-PVTZ-JKFIT
	 Reference Energy          =    -224.0723462651354509 [Eh]
	 Singles Energy            =      -0.0000000000000000 [Eh]
	 Same-Spin Energy          =      -0.2213707574720676 [Eh]
	 Opposite-Spin Energy      =      -0.6760218400500781 [Eh]
	 Correlation Energy        =      -0.8973925975221457 [Eh]
	 Total Energy              =    -224.9697388626576071 [Eh]

	 ================> DF-SCS-MP2 Energies <==================
	-----------------------------------------------------------
	 SCS Same-Spin Scale       =       0.3333333333333333 [-]
	 SCS Opposite-Spin Scale   =       1.2000000000000000 [-]
	 SCS Same-Spin Energy      =      -0.0737902524906892 [Eh]
	 SCS Opposite-Spin Energy  =      -0.8112262080600937 [Eh]
	 SCS Correlation Energy    =      -0.8850164605507829 [Eh]
	 SCS Total Energy          =    -224.9573627256862380 [Eh]
	-----------------------------------------------------------

  Dipole Moment: [D]
     X:     0.2603      Y:    -4.1031      Z:     0.7810     Total:     4.1849

*** Psi4 exiting successfully. Buy a developer a beer!
