                               Psi4 1.3.2 release

  ==> Input File <==

--------------------------------------------------------------------------
#psi4
#
memory 32 gb

molecule  {
0 1
  O        0.0000000     1.3710840     0.0001610
  N        1.1567260    -0.6015950    -0.0003660
  N       -1.1567250    -0.6015950    -0.0000840
  C       -0.0000010     0.1421750     0.0000460
  H        1.1829190    -1.6081880     0.0006500
  H        2.0253226    -0.0914883     0.1004520
  H       -2.0253400    -0.0915110     0.0003950
  H       -1.1829200    -1.6081890     0.0000880
units angstrom
no_reorient  #important for SAPT in psi4, default
symmetry c1  #important for SAPT in psi4, default
}

set PROPERTIES_ORIGIN ["COM"]
properties('MP2/aug-cc-pvtz', properties = ['dipole'])
--------------------------------------------------------------------------

    Molecular point group: c1
  Charge       = 0
  Multiplicity = 1
  Basis Set: AUG-CC-PVTZ
    Blend: AUG-CC-PVTZ
  Basis Set: (AUG-CC-PVTZ AUX)
    Blend: AUG-CC-PVTZ-JKFIT

    Orbital Energies [Eh]
    ---------------------

    Doubly Occupied:

       1A    -20.506240     2A    -15.584570     3A    -15.584257
       4A    -11.382164     5A     -1.381008     6A     -1.229008
       7A     -1.176260     8A     -0.833034     9A     -0.745056
      10A     -0.731825    11A     -0.645201    12A     -0.602605
      13A     -0.596590    14A     -0.438165    15A     -0.426159
      16A     -0.414021

  @DF-RHF Final Energy:  -224.08094616227243

   => Energetics <=

    Nuclear Repulsion Energy =            123.4282660587184779
    One-Electron Energy =                -550.4661018659290903
    Two-Electron Energy =                 202.9568896449382009
    Total Energy =                       -224.0809461622724257
  Basis Set: (AUG-CC-PVTZ AUX)
    Blend: AUG-CC-PVTZ-RI
    Molecular point group: c1

    Geometry (in Angstrom), charge = 0, multiplicity = 1:

       Center              X                  Y                   Z               Mass
    ------------   -----------------  -----------------  -----------------  -----------------
         O            0.000000275533     1.315078601889    -0.001491537053    15.994914619570
         N            1.156726275533    -0.657600398111    -0.002018537053    14.003074004430
         N           -1.156724724467    -0.657600398111    -0.001736537053    14.003074004430
         C           -0.000000724467     0.086169601889    -0.001606537053    12.000000000000
         H            1.182919275533    -1.664193398111    -0.001002537053     1.007825032230
         H            2.025322875533    -0.147493698111     0.098799462947     1.007825032230
         H           -2.025339724467    -0.147516398111    -0.001257537053     1.007825032230
         H           -1.182919724467    -1.664194398111    -0.001564537053     1.007825032230

  Basis Set: AUG-CC-PVTZ
    Blend: AUG-CC-PVTZ
  Basis Set: (AUG-CC-PVTZ AUX)
    Blend: AUG-CC-PVTZ-JKFIT
	 Reference Energy          =    -224.0809461622724257 [Eh]
	 Singles Energy            =      -0.0000000000000000 [Eh]
	 Same-Spin Energy          =      -0.2208200705417678 [Eh]
	 Opposite-Spin Energy      =      -0.6732419808550167 [Eh]
	 Correlation Energy        =      -0.8940620513967845 [Eh]
	 Total Energy              =    -224.9750082136692129 [Eh]

	 ================> DF-SCS-MP2 Energies <==================
	-----------------------------------------------------------
	 SCS Same-Spin Scale       =       0.3333333333333333 [-]
	 SCS Opposite-Spin Scale   =       1.2000000000000000 [-]
	 SCS Same-Spin Energy      =      -0.0736066901805893 [Eh]
	 SCS Opposite-Spin Energy  =      -0.8078903770260201 [Eh]
	 SCS Correlation Energy    =      -0.8814970672066094 [Eh]
	 SCS Total Energy          =    -224.9624432294790211 [Eh]
	-----------------------------------------------------------

  Dipole Moment: [D]
     X:    -0.0064      Y:    -4.3088      Z:     0.1523     Total:     4.3115

*** Psi4 exiting successfully. Buy a developer a beer!
