                               Psi4 1.3.2 release

  ==> Input File <==

--------------------------------------------------------------------------
#psi4
#
memory 32 gb

molecule  {
0 1
  O        0.0000000     1.3710840     0.0001610
  N        1.1567260    -0.6015950    -0.0003660
  N       -1.1567494    -0.6015559    -0.2000840
  C       -0.0000010     0.1421750     0.0000460
  H        1.1829190    -1.6081880     0.0006500
  H        2.0253400    -0.0915110     0.0004520
  H       -2.0253400    -0.0915110     0.0003950
  H       -1.1829200    -1.6081890     0.0000880
units angstrom
no_reorient  #important for SAPT in psi4, default
symmetry c1  #important for SAPT in psi4, default
}

set PROPERTIES_ORIGIN ["COM"]
properties('MP2/aug-cc-pvtz', properties = ['dipole'])
--------------------------------------------------------------------------

    Molecular point group: c1
  Charge       = 0
  Multiplicity = 1
  Basis Set: AUG-CC-PVTZ
    Blend: AUG-CC-PVTZ
  Basis Set: (AUG-CC-PVTZ AUX)
    Blend: AUG-CC-PVTZ-JKFIT

    Orbital Energies [Eh]
    ---------------------

    Doubly Occupied:

       1A    -20.510063     2A    -15.588352     3A    -15.586107
       4A    -11.383758     5A     -1.382373     6A     -1.227910
       7A     -1.173986     8A     -0.828765     9A     -0.740780
      10A     -0.724912    11A     -0.640528    12A     -0.605511
      13A     -0.592813    14A     -0.442142    15A     -0.428733
      16A     -0.416316

  @DF-RHF Final Energy:  -224.07821142270257

   => Energetics <=

    Nuclear Repulsion Energy =            123.0434487199223952
    One-Electron Energy =                -549.6972208808442701
    Two-Electron Energy =                 202.5755607382193375
    Total Energy =                       -224.0782114227025659
  Basis Set: (AUG-CC-PVTZ AUX)
    Blend: AUG-CC-PVTZ-RI
    Molecular point group: c1

    Geometry (in Angstrom), charge = 0, multiplicity = 1:

       Center              X                  Y                   Z               Mass
    ------------   -----------------  -----------------  -----------------  -----------------
         O            0.000005674935     1.315069862560     0.046839016182    15.994914619570
         N            1.156731674935    -0.657609137440     0.046312016182    14.003074004430
         N           -1.156743725065    -0.657570037440    -0.153405983818    14.003074004430
         C            0.000004674935     0.086160862560     0.046724016182    12.000000000000
         H            1.182924674935    -1.664202137440     0.047328016182     1.007825032230
         H            2.025345674935    -0.147525137440     0.047130016182     1.007825032230
         H           -2.025334325065    -0.147525137440     0.047073016182     1.007825032230
         H           -1.182914325065    -1.664203137440     0.046766016182     1.007825032230

  Basis Set: AUG-CC-PVTZ
    Blend: AUG-CC-PVTZ
  Basis Set: (AUG-CC-PVTZ AUX)
    Blend: AUG-CC-PVTZ-JKFIT
	 Reference Energy          =    -224.0782114227025659 [Eh]
	 Singles Energy            =      -0.0000000000000000 [Eh]
	 Same-Spin Energy          =      -0.2210234928486838 [Eh]
	 Opposite-Spin Energy      =      -0.6743799095615369 [Eh]
	 Correlation Energy        =      -0.8954034024102207 [Eh]
	 Total Energy              =    -224.9736148251127759 [Eh]

	 ================> DF-SCS-MP2 Energies <==================
	-----------------------------------------------------------
	 SCS Same-Spin Scale       =       0.3333333333333333 [-]
	 SCS Opposite-Spin Scale   =       1.2000000000000000 [-]
	 SCS Same-Spin Energy      =      -0.0736744976162279 [Eh]
	 SCS Opposite-Spin Energy  =      -0.8092558914738442 [Eh]
	 SCS Correlation Energy    =      -0.8829303890900722 [Eh]
	 SCS Total Energy          =    -224.9611418117926291 [Eh]
	-----------------------------------------------------------

  Dipole Moment: [D]
     X:     0.1228      Y:    -4.2129      Z:     0.5406     Total:     4.2492

*** Psi4 exiting successfully. Buy a developer a beer!
