                               Psi4 1.3.2 release

  ==> Input File <==

--------------------------------------------------------------------------
#psi4
#
memory 32 gb

molecule  {
0 1
  O        0.0000000     1.3710840     0.0001610
  N        1.1567260    -0.6015950    -0.0003660
  N       -1.1567433    -0.6015656    -0.1500840
  C       -0.0000010     0.1421750     0.0000460
  H        1.1829190    -1.6081880     0.0006500
  H        2.0253400    -0.0915110     0.0004520
  H       -2.0253400    -0.0915110     0.0003950
  H       -1.1829200    -1.6081890     0.0000880
units angstrom
no_reorient  #important for SAPT in psi4, default
symmetry c1  #important for SAPT in psi4, default
}

set PROPERTIES_ORIGIN ["COM"]
properties('MP2/aug-cc-pvtz', properties = ['dipole'])
--------------------------------------------------------------------------

    Molecular point group: c1
  Charge       = 0
  Multiplicity = 1
  Basis Set: AUG-CC-PVTZ
    Blend: AUG-CC-PVTZ
  Basis Set: (AUG-CC-PVTZ AUX)
    Blend: AUG-CC-PVTZ-JKFIT

    Orbital Energies [Eh]
    ---------------------

    Doubly Occupied:

       1A    -20.508415     2A    -15.586502     3A    -15.585306
       4A    -11.383077     5A     -1.381799     6A     -1.228423
       7A     -1.175229     8A     -0.830716     9A     -0.742281
      10A     -0.728402    11A     -0.642884    12A     -0.604584
      13A     -0.594374    14A     -0.440386    15A     -0.427601
      16A     -0.415381

  @DF-RHF Final Energy:  -224.07973350201166

   => Energetics <=

    Nuclear Repulsion Energy =            123.2197809573312384
    One-Electron Energy =                -550.0483065366800020
    Two-Electron Energy =                 202.7487920773371002
    Total Energy =                       -224.0797335020116634
  Basis Set: (AUG-CC-PVTZ AUX)
    Blend: AUG-CC-PVTZ-RI
    Molecular point group: c1

    Geometry (in Angstrom), charge = 0, multiplicity = 1:

       Center              X                  Y                   Z               Mass
    ------------   -----------------  -----------------  -----------------  -----------------
         O            0.000004252057     1.315072125170     0.035176078592    15.994914619570
         N            1.156730252057    -0.657606874830     0.034649078592    14.003074004430
         N           -1.156739047943    -0.657577474830    -0.115068921408    14.003074004430
         C            0.000003252057     0.086163125170     0.035061078592    12.000000000000
         H            1.182923252057    -1.664199874830     0.035665078592     1.007825032230
         H            2.025344252057    -0.147522874830     0.035467078592     1.007825032230
         H           -2.025335747943    -0.147522874830     0.035410078592     1.007825032230
         H           -1.182915747943    -1.664200874830     0.035103078592     1.007825032230

  Basis Set: AUG-CC-PVTZ
    Blend: AUG-CC-PVTZ
  Basis Set: (AUG-CC-PVTZ AUX)
    Blend: AUG-CC-PVTZ-JKFIT
	 Reference Energy          =    -224.0797335020116634 [Eh]
	 Singles Energy            =      -0.0000000000000000 [Eh]
	 Same-Spin Energy          =      -0.2209166453686380 [Eh]
	 Opposite-Spin Energy      =      -0.6738333997112445 [Eh]
	 Correlation Energy        =      -0.8947500450798824 [Eh]
	 Total Energy              =    -224.9744835470915518 [Eh]

	 ================> DF-SCS-MP2 Energies <==================
	-----------------------------------------------------------
	 SCS Same-Spin Scale       =       0.3333333333333333 [-]
	 SCS Opposite-Spin Scale   =       1.2000000000000000 [-]
	 SCS Same-Spin Energy      =      -0.0736388817895460 [Eh]
	 SCS Opposite-Spin Energy  =      -0.8086000796534933 [Eh]
	 SCS Correlation Energy    =      -0.8822389614430394 [Eh]
	 SCS Total Energy          =    -224.9619724634547140 [Eh]
	-----------------------------------------------------------

  Dipole Moment: [D]
     X:     0.0706      Y:    -4.2542      Z:     0.4113     Total:     4.2747

*** Psi4 exiting successfully. Buy a developer a beer!
