                               Psi4 1.3.2 release

  ==> Input File <==

--------------------------------------------------------------------------
#psi4
#
memory 32 gb

molecule  {
0 1
  O        0.0000000     1.3710840     0.0001610
  N        1.1567260    -0.6015950    -0.0003660
  N       -1.1567250    -0.6015950    -0.0000840
  C       -0.0000010     0.1421750     0.0000460
  H        1.1829190    -1.6081880     0.0006500
  H        2.0253052    -0.0914655     0.2004520
  H       -2.0253400    -0.0915110     0.0003950
  H       -1.1829200    -1.6081890     0.0000880
units angstrom
no_reorient  #important for SAPT in psi4, default
symmetry c1  #important for SAPT in psi4, default
}

set PROPERTIES_ORIGIN ["COM"]
properties('MP2/aug-cc-pvtz', properties = ['dipole'])
--------------------------------------------------------------------------

    Molecular point group: c1
  Charge       = 0
  Multiplicity = 1
  Basis Set: AUG-CC-PVTZ
    Blend: AUG-CC-PVTZ
  Basis Set: (AUG-CC-PVTZ AUX)
    Blend: AUG-CC-PVTZ-JKFIT

    Orbital Energies [Eh]
    ---------------------

    Doubly Occupied:

       1A    -20.506432     2A    -15.585615     3A    -15.584395
       4A    -11.382141     5A     -1.380981     6A     -1.228620
       7A     -1.175021     8A     -0.831696     9A     -0.744930
      10A     -0.729940    11A     -0.643316    12A     -0.603022
      13A     -0.595121    14A     -0.438269    15A     -0.426319
      16A     -0.414110

  @DF-RHF Final Energy:  -224.07987130676142

   => Energetics <=

    Nuclear Repulsion Energy =            123.3625299016201353
    One-Electron Energy =                -550.3449484602961093
    Two-Electron Energy =                 202.9025472519145694
    Total Energy =                       -224.0798713067614187
  Basis Set: (AUG-CC-PVTZ AUX)
    Blend: AUG-CC-PVTZ-RI
    Molecular point group: c1

    Geometry (in Angstrom), charge = 0, multiplicity = 1:

       Center              X                  Y                   Z               Mass
    ------------   -----------------  -----------------  -----------------  -----------------
         O            0.000000567645     1.315078219122    -0.003170339929    15.994914619570
         N            1.156726567645    -0.657600780878    -0.003697339929    14.003074004430
         N           -1.156724432355    -0.657600780878    -0.003415339929    14.003074004430
         C           -0.000000432355     0.086169219122    -0.003285339929    12.000000000000
         H            1.182919567645    -1.664193780878    -0.002681339929     1.007825032230
         H            2.025305767645    -0.147471280878     0.197120660071     1.007825032230
         H           -2.025339432355    -0.147516780878    -0.002936339929     1.007825032230
         H           -1.182919432355    -1.664194780878    -0.003243339929     1.007825032230

  Basis Set: AUG-CC-PVTZ
    Blend: AUG-CC-PVTZ
  Basis Set: (AUG-CC-PVTZ AUX)
    Blend: AUG-CC-PVTZ-JKFIT
	 Reference Energy          =    -224.0798713067614187 [Eh]
	 Singles Energy            =      -0.0000000000000000 [Eh]
	 Same-Spin Energy          =      -0.2209090707469842 [Eh]
	 Opposite-Spin Energy      =      -0.6734961994259117 [Eh]
	 Correlation Energy        =      -0.8944052701728959 [Eh]
	 Total Energy              =    -224.9742765769343009 [Eh]

	 ================> DF-SCS-MP2 Energies <==================
	-----------------------------------------------------------
	 SCS Same-Spin Scale       =       0.3333333333333333 [-]
	 SCS Opposite-Spin Scale   =       1.2000000000000000 [-]
	 SCS Same-Spin Energy      =      -0.0736363569156614 [Eh]
	 SCS Opposite-Spin Energy  =      -0.8081954393110939 [Eh]
	 SCS Correlation Energy    =      -0.8818317962267553 [Eh]
	 SCS Total Energy          =    -224.9617031029881673 [Eh]
	-----------------------------------------------------------

  Dipole Moment: [D]
     X:    -0.0247      Y:    -4.3058      Z:     0.2988     Total:     4.3162

*** Psi4 exiting successfully. Buy a developer a beer!
