                               Psi4 1.3.2 release

  ==> Input File <==

--------------------------------------------------------------------------
#psi4
#
memory 32 gb

molecule  {
0 1
  O        0.0000000     1.3710840     0.0001610
  N        1.1567260    -0.6015950    -0.0003660
  N       -1.1567311    -0.6015852    -0.0500840
  C       -0.0000010     0.1421750     0.0000460
  H        1.1829190    -1.6081880     0.0006500
  H        2.0253400    -0.0915110     0.0004520
  H       -2.0253400    -0.0915110     0.0003950
  H       -1.1829200    -1.6081890     0.0000880
units angstrom
no_reorient  #important for SAPT in psi4, default
symmetry c1  #important for SAPT in psi4, default
}

set PROPERTIES_ORIGIN ["COM"]
properties('MP2/aug-cc-pvtz', properties = ['dipole'])
--------------------------------------------------------------------------

    Molecular point group: c1
  Charge       = 0
  Multiplicity = 1
  Basis Set: AUG-CC-PVTZ
    Blend: AUG-CC-PVTZ
  Basis Set: (AUG-CC-PVTZ AUX)
    Blend: AUG-CC-PVTZ-JKFIT

    Orbital Energies [Eh]
    ---------------------

    Doubly Occupied:

       1A    -20.506429     2A    -15.584462     3A    -15.584335
       4A    -11.382274     5A     -1.381106     6A     -1.229063
       7A     -1.176532     8A     -0.833184     9A     -0.744721
      10A     -0.732067    11A     -0.645507    12A     -0.602778
      13A     -0.596706    14A     -0.438381    15A     -0.426267
      16A     -0.414155

  @DF-RHF Final Energy:  -224.08109179773334

   => Energetics <=

    Nuclear Repulsion Energy =            123.4248678851687799
    One-Electron Energy =                -550.4559853559569547
    Two-Electron Energy =                 202.9500256730548244
    Total Energy =                       -224.0810917977333361
  Basis Set: (AUG-CC-PVTZ AUX)
    Blend: AUG-CC-PVTZ-RI
    Molecular point group: c1

    Geometry (in Angstrom), charge = 0, multiplicity = 1:

       Center              X                  Y                   Z               Mass
    ------------   -----------------  -----------------  -----------------  -----------------
         O            0.000001406300     1.315076697042     0.011850203412    15.994914619570
         N            1.156727406300    -0.657602302958     0.011323203412    14.003074004430
         N           -1.156729693700    -0.657592502958    -0.038394796588    14.003074004430
         C            0.000000406300     0.086167697042     0.011735203412    12.000000000000
         H            1.182920406300    -1.664195302958     0.012339203412     1.007825032230
         H            2.025341406300    -0.147518302958     0.012141203412     1.007825032230
         H           -2.025338593700    -0.147518302958     0.012084203412     1.007825032230
         H           -1.182918593700    -1.664196302958     0.011777203412     1.007825032230

  Basis Set: AUG-CC-PVTZ
    Blend: AUG-CC-PVTZ
  Basis Set: (AUG-CC-PVTZ AUX)
    Blend: AUG-CC-PVTZ-JKFIT
	 Reference Energy          =    -224.0810917977333361 [Eh]
	 Singles Energy            =      -0.0000000000000000 [Eh]
	 Same-Spin Energy          =      -0.2208035337780552 [Eh]
	 Opposite-Spin Energy      =      -0.6732314001415640 [Eh]
	 Correlation Energy        =      -0.8940349339196192 [Eh]
	 Total Energy              =    -224.9751267316529493 [Eh]

	 ================> DF-SCS-MP2 Energies <==================
	-----------------------------------------------------------
	 SCS Same-Spin Scale       =       0.3333333333333333 [-]
	 SCS Opposite-Spin Scale   =       1.2000000000000000 [-]
	 SCS Same-Spin Energy      =      -0.0736011779260184 [Eh]
	 SCS Opposite-Spin Energy  =      -0.8078776801698768 [Eh]
	 SCS Correlation Energy    =      -0.8814788580958952 [Eh]
	 SCS Total Energy          =    -224.9625706558292393 [Eh]
	-----------------------------------------------------------

  Dipole Moment: [D]
     X:     0.0081      Y:    -4.3036      Z:     0.1413     Total:     4.3059

*** Psi4 exiting successfully. Buy a developer a beer!
