                               Psi4 1.3.2 release

  ==> Input File <==

--------------------------------------------------------------------------
#psi4
#
memory 32 gb

molecule  {
0 1
  O        0.0000000     1.3710840     0.0001610
  N        1.1567260    -0.6015950    -0.0003660
  N       -1.1567250    -0.6015950    -0.0000840
  C       -0.0000010     0.1421750     0.0000460
  H        1.1829190    -1.6081880     0.0006500
  H        2.0253313    -0.0914996     0.0504520
  H       -2.0253400    -0.0915110     0.0003950
  H       -1.1829200    -1.6081890     0.0000880
units angstrom
no_reorient  #important for SAPT in psi4, default
symmetry c1  #important for SAPT in psi4, default
}

set PROPERTIES_ORIGIN ["COM"]
properties('MP2/aug-cc-pvtz', properties = ['dipole'])
--------------------------------------------------------------------------

    Molecular point group: c1
  Charge       = 0
  Multiplicity = 1
  Basis Set: AUG-CC-PVTZ
    Blend: AUG-CC-PVTZ
  Basis Set: (AUG-CC-PVTZ AUX)
    Blend: AUG-CC-PVTZ-JKFIT

    Orbital Energies [Eh]
    ---------------------

    Doubly Occupied:

       1A    -20.506189     2A    -15.584304     3A    -15.584220
       4A    -11.382169     5A     -1.381014     6A     -1.229113
       7A     -1.176578     8A     -0.833390     9A     -0.745092
      10A     -0.732316    11A     -0.645669    12A     -0.602473
      13A     -0.596979    14A     -0.438137    15A     -0.426117
      16A     -0.413996

  @DF-RHF Final Energy:  -224.08116411816297

   => Energetics <=

    Nuclear Repulsion Energy =            123.4451514985188965
    One-Electron Energy =                -550.4971180969440638
    Two-Electron Energy =                 202.9708024802621935
    Total Energy =                       -224.0811641181629739
  Basis Set: (AUG-CC-PVTZ AUX)
    Blend: AUG-CC-PVTZ-RI
    Molecular point group: c1

    Geometry (in Angstrom), charge = 0, multiplicity = 1:

       Center              X                  Y                   Z               Mass
    ------------   -----------------  -----------------  -----------------  -----------------
         O            0.000000129477     1.315078791594    -0.000652135615    15.994914619570
         N            1.156726129477    -0.657600208406    -0.001179135615    14.003074004430
         N           -1.156724870523    -0.657600208406    -0.000897135615    14.003074004430
         C           -0.000000870523     0.086169791594    -0.000767135615    12.000000000000
         H            1.182919129477    -1.664193208406    -0.000163135615     1.007825032230
         H            2.025331429477    -0.147504808406     0.049638864385     1.007825032230
         H           -2.025339870523    -0.147516208406    -0.000418135615     1.007825032230
         H           -1.182919870523    -1.664194208406    -0.000725135615     1.007825032230

  Basis Set: AUG-CC-PVTZ
    Blend: AUG-CC-PVTZ
  Basis Set: (AUG-CC-PVTZ AUX)
    Blend: AUG-CC-PVTZ-JKFIT
	 Reference Energy          =    -224.0811641181629739 [Eh]
	 Singles Energy            =      -0.0000000000000000 [Eh]
	 Same-Spin Energy          =      -0.2207975769531478 [Eh]
	 Opposite-Spin Energy      =      -0.6731790918770546 [Eh]
	 Correlation Energy        =      -0.8939766688302024 [Eh]
	 Total Energy              =    -224.9751407869931654 [Eh]

	 ================> DF-SCS-MP2 Energies <==================
	-----------------------------------------------------------
	 SCS Same-Spin Scale       =       0.3333333333333333 [-]
	 SCS Opposite-Spin Scale   =       1.2000000000000000 [-]
	 SCS Same-Spin Energy      =      -0.0735991923177159 [Eh]
	 SCS Opposite-Spin Energy  =      -0.8078149102524655 [Eh]
	 SCS Correlation Energy    =      -0.8814141025701815 [Eh]
	 SCS Total Energy          =    -224.9625782207331497 [Eh]
	-----------------------------------------------------------

  Dipole Moment: [D]
     X:    -0.0017      Y:    -4.3096      Z:     0.0780     Total:     4.3103

*** Psi4 exiting successfully. Buy a developer a beer!
