                               Psi4 1.3.2 release

  ==> Input File <==

--------------------------------------------------------------------------
#psi4
#
memory 32 gb

molecule  {
0 1
  O        0.0000000     1.3710840     0.0001610
  N        1.1567260    -0.6015950    -0.0003660
  N       -1.1567555    -0.6015461    -0.2500840
  C       -0.0000010     0.1421750     0.0000460
  H        1.1829190    -1.6081880     0.0006500
  H        2.0253400    -0.0915110     0.0004520
  H       -2.0253400    -0.0915110     0.0003950
  H       -1.1829200    -1.6081890     0.0000880
units angstrom
no_reorient  #important for SAPT in psi4, default
symmetry c1  #important for SAPT in psi4, default
}

set PROPERTIES_ORIGIN ["COM"]
properties('MP2/aug-cc-pvtz', properties = ['dipole'])
--------------------------------------------------------------------------

    Molecular point group: c1
  Charge       = 0
  Multiplicity = 1
  Basis Set: AUG-CC-PVTZ
    Blend: AUG-CC-PVTZ
  Basis Set: (AUG-CC-PVTZ AUX)
    Blend: AUG-CC-PVTZ-JKFIT

    Orbital Energies [Eh]
    ---------------------

    Doubly Occupied:

       1A    -20.512067     2A    -15.590803     3A    -15.587077
       4A    -11.384607     5A     -1.383070     6A     -1.227315
       7A     -1.172256     8A     -0.826518     9A     -0.739332
      10A     -0.720384    11A     -0.637500    12A     -0.606164
      13A     -0.591059    14A     -0.444414    15A     -0.430104
      16A     -0.417366

  @DF-RHF Final Energy:  -224.07583413196446

   => Energetics <=

    Nuclear Repulsion Energy =            122.8207247793458237
    One-Electron Energy =                -549.2530461628316516
    Two-Electron Energy =                 202.3564872515213722
    Total Energy =                       -224.0758341319644558
  Basis Set: (AUG-CC-PVTZ AUX)
    Blend: AUG-CC-PVTZ-RI
    Molecular point group: c1

    Geometry (in Angstrom), charge = 0, multiplicity = 1:

       Center              X                  Y                   Z               Mass
    ------------   -----------------  -----------------  -----------------  -----------------
         O            0.000007097813     1.315067576624     0.058501953772    15.994914619570
         N            1.156733097813    -0.657611423376     0.057974953772    14.003074004430
         N           -1.156748402187    -0.657562523376    -0.191743046228    14.003074004430
         C            0.000006097813     0.086158576624     0.058386953772    12.000000000000
         H            1.182926097813    -1.664204423376     0.058990953772     1.007825032230
         H            2.025347097813    -0.147527423376     0.058792953772     1.007825032230
         H           -2.025332902187    -0.147527423376     0.058735953772     1.007825032230
         H           -1.182912902187    -1.664205423376     0.058428953772     1.007825032230

  Basis Set: AUG-CC-PVTZ
    Blend: AUG-CC-PVTZ
  Basis Set: (AUG-CC-PVTZ AUX)
    Blend: AUG-CC-PVTZ-JKFIT
	 Reference Energy          =    -224.0758341319644558 [Eh]
	 Singles Energy            =      -0.0000000000000000 [Eh]
	 Same-Spin Energy          =      -0.2211719957620980 [Eh]
	 Opposite-Spin Energy      =      -0.6751048117187237 [Eh]
	 Correlation Energy        =      -0.8962768074808217 [Eh]
	 Total Energy              =    -224.9721109394452867 [Eh]

	 ================> DF-SCS-MP2 Energies <==================
	-----------------------------------------------------------
	 SCS Same-Spin Scale       =       0.3333333333333333 [-]
	 SCS Opposite-Spin Scale   =       1.2000000000000000 [-]
	 SCS Same-Spin Energy      =      -0.0737239985873660 [Eh]
	 SCS Opposite-Spin Energy  =      -0.8101257740624684 [Eh]
	 SCS Correlation Energy    =      -0.8838497726498344 [Eh]
	 SCS Total Energy          =    -224.9596839046142804 [Eh]
	-----------------------------------------------------------

  Dipole Moment: [D]
     X:     0.1867      Y:    -4.1620      Z:     0.6643     Total:     4.2188

*** Psi4 exiting successfully. Buy a developer a beer!
