                               Psi4 1.3.2 release

  ==> Input File <==

--------------------------------------------------------------------------
#psi4
#
memory 32 gb

molecule  {
0 1
  O        0.0000000     1.3710840     0.0001610
  N        1.1567260    -0.6015950    -0.0003660
  N       -1.1567250    -0.6015950    -0.0000840
  C       -0.0000010     0.1421750     0.0000460
  H        1.1829190    -1.6081880     0.0006500
  H        2.0253139    -0.0914769     0.1504520
  H       -2.0253400    -0.0915110     0.0003950
  H       -1.1829200    -1.6081890     0.0000880
units angstrom
no_reorient  #important for SAPT in psi4, default
symmetry c1  #important for SAPT in psi4, default
}

set PROPERTIES_ORIGIN ["COM"]
properties('MP2/aug-cc-pvtz', properties = ['dipole'])
--------------------------------------------------------------------------

    Molecular point group: c1
  Charge       = 0
  Multiplicity = 1
  Basis Set: AUG-CC-PVTZ
    Blend: AUG-CC-PVTZ
  Basis Set: (AUG-CC-PVTZ AUX)
    Blend: AUG-CC-PVTZ-JKFIT

    Orbital Energies [Eh]
    ---------------------

    Doubly Occupied:

       1A    -20.506323     2A    -15.585010     3A    -15.584315
       4A    -11.382154     5A     -1.380997     6A     -1.228841
       7A     -1.175737     8A     -0.832460     9A     -0.745000
      10A     -0.731025    11A     -0.644420    12A     -0.602797
      13A     -0.595963    14A     -0.438210    15A     -0.426226
      16A     -0.414060

  @DF-RHF Final Energy:  -224.08053659928586

   => Energetics <=

    Nuclear Repulsion Energy =            123.4005604092397306
    One-Electron Energy =                -550.4151206964951371
    Two-Electron Energy =                 202.9340236879695283
    Total Energy =                       -224.0805365992858640
  Basis Set: (AUG-CC-PVTZ AUX)
    Blend: AUG-CC-PVTZ-RI
    Molecular point group: c1

    Geometry (in Angstrom), charge = 0, multiplicity = 1:

       Center              X                  Y                   Z               Mass
    ------------   -----------------  -----------------  -----------------  -----------------
         O            0.000000421589     1.315078410506    -0.002330938491    15.994914619570
         N            1.156726421589    -0.657600589494    -0.002857938491    14.003074004430
         N           -1.156724578411    -0.657600589494    -0.002575938491    14.003074004430
         C           -0.000000578411     0.086169410506    -0.002445938491    12.000000000000
         H            1.182919421589    -1.664193589494    -0.001841938491     1.007825032230
         H            2.025314321589    -0.147482489494     0.147960061509     1.007825032230
         H           -2.025339578411    -0.147516589494    -0.002096938491     1.007825032230
         H           -1.182919578411    -1.664194589494    -0.002403938491     1.007825032230

  Basis Set: AUG-CC-PVTZ
    Blend: AUG-CC-PVTZ
  Basis Set: (AUG-CC-PVTZ AUX)
    Blend: AUG-CC-PVTZ-JKFIT
	 Reference Energy          =    -224.0805365992858640 [Eh]
	 Singles Energy            =      -0.0000000000000000 [Eh]
	 Same-Spin Energy          =      -0.2208573094942730 [Eh]
	 Opposite-Spin Energy      =      -0.6733473099647808 [Eh]
	 Correlation Energy        =      -0.8942046194590538 [Eh]
	 Total Energy              =    -224.9747412187449243 [Eh]

	 ================> DF-SCS-MP2 Energies <==================
	-----------------------------------------------------------
	 SCS Same-Spin Scale       =       0.3333333333333333 [-]
	 SCS Opposite-Spin Scale   =       1.2000000000000000 [-]
	 SCS Same-Spin Energy      =      -0.0736191031647577 [Eh]
	 SCS Opposite-Spin Energy  =      -0.8080167719577369 [Eh]
	 SCS Correlation Energy    =      -0.8816358751224946 [Eh]
	 SCS Total Energy          =    -224.9621724744083622 [Eh]
	-----------------------------------------------------------

  Dipole Moment: [D]
     X:    -0.0141      Y:    -4.3075      Z:     0.2260     Total:     4.3135

*** Psi4 exiting successfully. Buy a developer a beer!
