                               Psi4 1.3.2 release

  ==> Input File <==

--------------------------------------------------------------------------
#psi4
#
memory 32 gb

molecule  {
0 1
  O        0.0000000     1.3710840     0.0001610
  N        1.1567260    -0.6015950    -0.0003660
  N       -1.1567250    -0.6015950    -0.0000840
  C       -0.0000010     0.1421750     0.0000460
  H        1.1829190    -1.6081880     0.0006500
  H        2.0252877    -0.0914428     0.3004520
  H       -2.0253400    -0.0915110     0.0003950
  H       -1.1829200    -1.6081890     0.0000880
units angstrom
no_reorient  #important for SAPT in psi4, default
symmetry c1  #important for SAPT in psi4, default
}

set PROPERTIES_ORIGIN ["COM"]
properties('MP2/aug-cc-pvtz', properties = ['dipole'])
--------------------------------------------------------------------------

    Molecular point group: c1
  Charge       = 0
  Multiplicity = 1
  Basis Set: AUG-CC-PVTZ
    Blend: AUG-CC-PVTZ
  Basis Set: (AUG-CC-PVTZ AUX)
    Blend: AUG-CC-PVTZ-JKFIT

    Orbital Energies [Eh]
    ---------------------

    Doubly Occupied:

       1A    -20.506719     2A    -15.587283     3A    -15.584613
       4A    -11.382109     5A     -1.380935     6A     -1.228062
       7A     -1.173071     8A     -0.829732     9A     -0.744768
      10A     -0.727063    11A     -0.640105    12A     -0.603496
      13A     -0.592809    14A     -0.438423    15A     -0.426577
      16A     -0.414239

  @DF-RHF Final Energy:  -224.07745075986770

   => Energetics <=

    Nuclear Repulsion Energy =            123.2582312254253907
    One-Electron Energy =                -550.1513549811195389
    Two-Electron Energy =                 202.8156729958264464
    Total Energy =                       -224.0774507598677019
  Basis Set: (AUG-CC-PVTZ AUX)
    Blend: AUG-CC-PVTZ-RI
    Molecular point group: c1

    Geometry (in Angstrom), charge = 0, multiplicity = 1:

       Center              X                  Y                   Z               Mass
    ------------   -----------------  -----------------  -----------------  -----------------
         O            0.000000861435     1.315077838034    -0.004849142804    15.994914619570
         N            1.156726861435    -0.657601161966    -0.005376142804    14.003074004430
         N           -1.156724138565    -0.657601161966    -0.005094142804    14.003074004430
         C           -0.000000138565     0.086168838034    -0.004964142804    12.000000000000
         H            1.182919861435    -1.664194161966    -0.004360142804     1.007825032230
         H            2.025288561435    -0.147448961966     0.295441857196     1.007825032230
         H           -2.025339138565    -0.147517161966    -0.004615142804     1.007825032230
         H           -1.182919138565    -1.664195161966    -0.004922142804     1.007825032230

  Basis Set: AUG-CC-PVTZ
    Blend: AUG-CC-PVTZ
  Basis Set: (AUG-CC-PVTZ AUX)
    Blend: AUG-CC-PVTZ-JKFIT
	 Reference Energy          =    -224.0774507598677019 [Eh]
	 Singles Energy            =      -0.0000000000000000 [Eh]
	 Same-Spin Energy          =      -0.2210546620209313 [Eh]
	 Opposite-Spin Energy      =      -0.6739290174773568 [Eh]
	 Correlation Energy        =      -0.8949836794982881 [Eh]
	 Total Energy              =    -224.9724344393659976 [Eh]

	 ================> DF-SCS-MP2 Energies <==================
	-----------------------------------------------------------
	 SCS Same-Spin Scale       =       0.3333333333333333 [-]
	 SCS Opposite-Spin Scale   =       1.2000000000000000 [-]
	 SCS Same-Spin Energy      =      -0.0736848873403104 [Eh]
	 SCS Opposite-Spin Energy  =      -0.8087148209728281 [Eh]
	 SCS Correlation Energy    =      -0.8823997083131385 [Eh]
	 SCS Total Energy          =    -224.9598504681808322 [Eh]
	-----------------------------------------------------------

  Dipole Moment: [D]
     X:    -0.0536      Y:    -4.3012      Z:     0.4412     Total:     4.3241

*** Psi4 exiting successfully. Buy a developer a beer!
