                               Psi4 1.3.2 release

  ==> Input File <==

--------------------------------------------------------------------------
#psi4
#
memory 32 gb

molecule  {
0 1
  O        0.0000000     1.3710840     0.0001610
  N        1.1567260    -0.6015950    -0.0003660
  N       -1.1567250    -0.6015950    -0.0000840
  C       -0.0000010     0.1421750     0.0000460
  H        1.1829190    -1.6081880     0.0006500
  H        2.0252964    -0.0914542     0.2504520
  H       -2.0253400    -0.0915110     0.0003950
  H       -1.1829200    -1.6081890     0.0000880
units angstrom
no_reorient  #important for SAPT in psi4, default
symmetry c1  #important for SAPT in psi4, default
}

set PROPERTIES_ORIGIN ["COM"]
properties('MP2/aug-cc-pvtz', properties = ['dipole'])
--------------------------------------------------------------------------

    Molecular point group: c1
  Charge       = 0
  Multiplicity = 1
  Basis Set: AUG-CC-PVTZ
    Blend: AUG-CC-PVTZ
  Basis Set: (AUG-CC-PVTZ AUX)
    Blend: AUG-CC-PVTZ-JKFIT

    Orbital Energies [Eh]
    ---------------------

    Doubly Occupied:

       1A    -20.506566     2A    -15.586376     3A    -15.584495
       4A    -11.382126     5A     -1.380960     6A     -1.228356
       7A     -1.174126     8A     -0.830774     9A     -0.744851
      10A     -0.728605    11A     -0.641880    12A     -0.603259
      13A     -0.594070    14A     -0.438341    15A     -0.426436
      16A     -0.414171

  @DF-RHF Final Energy:  -224.07887121432745

   => Energetics <=

    Nuclear Repulsion Energy =            123.3148281837800084
    One-Electron Energy =                -550.2566149674373719
    Two-Electron Energy =                 202.8629155693298856
    Total Energy =                       -224.0788712143274495
  Basis Set: (AUG-CC-PVTZ AUX)
    Blend: AUG-CC-PVTZ-RI
    Molecular point group: c1

    Geometry (in Angstrom), charge = 0, multiplicity = 1:

       Center              X                  Y                   Z               Mass
    ------------   -----------------  -----------------  -----------------  -----------------
         O            0.000000715380     1.315078029417    -0.004009741367    15.994914619570
         N            1.156726715380    -0.657600970583    -0.004536741367    14.003074004430
         N           -1.156724284620    -0.657600970583    -0.004254741367    14.003074004430
         C           -0.000000284620     0.086169029417    -0.004124741367    12.000000000000
         H            1.182919715380    -1.664193970583    -0.003520741367     1.007825032230
         H            2.025297115380    -0.147460170583     0.246281258633     1.007825032230
         H           -2.025339284620    -0.147516970583    -0.003775741367     1.007825032230
         H           -1.182919284620    -1.664194970583    -0.004082741367     1.007825032230

  Basis Set: AUG-CC-PVTZ
    Blend: AUG-CC-PVTZ
  Basis Set: (AUG-CC-PVTZ AUX)
    Blend: AUG-CC-PVTZ-JKFIT
	 Reference Energy          =    -224.0788712143274495 [Eh]
	 Singles Energy            =      -0.0000000000000000 [Eh]
	 Same-Spin Energy          =      -0.2209750144933577 [Eh]
	 Opposite-Spin Energy      =      -0.6736897886817933 [Eh]
	 Correlation Energy        =      -0.8946648031751510 [Eh]
	 Total Energy              =    -224.9735360175025960 [Eh]

	 ================> DF-SCS-MP2 Energies <==================
	-----------------------------------------------------------
	 SCS Same-Spin Scale       =       0.3333333333333333 [-]
	 SCS Opposite-Spin Scale   =       1.2000000000000000 [-]
	 SCS Same-Spin Energy      =      -0.0736583381644526 [Eh]
	 SCS Opposite-Spin Energy  =      -0.8084277464181520 [Eh]
	 SCS Correlation Energy    =      -0.8820860845826045 [Eh]
	 SCS Total Energy          =    -224.9609572989100457 [Eh]
	-----------------------------------------------------------

  Dipole Moment: [D]
     X:    -0.0379      Y:    -4.3036      Z:     0.3706     Total:     4.3197

*** Psi4 exiting successfully. Buy a developer a beer!
