                               Psi4 1.3.2 release

  ==> Input File <==

--------------------------------------------------------------------------
#psi4
#
memory 32 gb

molecule  {
0 1
  S       -0.9837490    -1.1570500    -0.0000620
  O        1.9818930    -1.3277110    -0.0003480
  C        0.1471630     0.1465200    -0.0000040
  C       -0.4985190     1.3749350     0.0002250
  C        1.5865110    -0.1585480    -0.0001750
  C       -1.9046620     1.2489520     0.0003500
  C        2.5479920     1.0088850    -0.0001140
  C       -2.3081880    -0.0718450     0.0002130
  H        0.0283220     2.3240690     0.0003010
  H       -2.5968940     2.0844950     0.0005320
  H        2.3937560     1.6342750    -0.8845650
  H        3.5659410     0.6177950    -0.0003540
  H        2.3940470     1.6339130     0.8846460
  H       -3.3221070    -0.4534470     0.0002580
units angstrom
no_reorient  #important for SAPT in psi4, default
symmetry c1  #important for SAPT in psi4, default
}

set PROPERTIES_ORIGIN ["COM"]
properties('MP2/aug-cc-pvtz', properties = ['dipole'])
--------------------------------------------------------------------------

    Molecular point group: c1
  Charge       = 0
  Multiplicity = 1
  Basis Set: AUG-CC-PVTZ
    Blend: AUG-CC-PVTZ
  Basis Set: (AUG-CC-PVTZ AUX)
    Blend: AUG-CC-PVTZ-JKFIT

    Orbital Energies [Eh]
    ---------------------

    Doubly Occupied:

       1A    -91.997684     2A    -20.546742     3A    -11.345361
       4A    -11.284567     5A    -11.274535     6A    -11.267347
       7A    -11.252852     8A    -11.241018     9A     -8.997467
      10A     -6.678301    11A     -6.677722    12A     -6.677077
      13A     -1.377761    14A     -1.187897    15A     -1.044202
      16A     -1.004159    17A     -0.983324    18A     -0.840526
      19A     -0.773190    20A     -0.727650    21A     -0.694160
      22A     -0.623855    23A     -0.618316    24A     -0.610302
      25A     -0.575968    26A     -0.558084    27A     -0.541976
      28A     -0.530765    29A     -0.494085    30A     -0.489296
      31A     -0.426316    32A     -0.360067    33A     -0.338272

  @DF-RHF Final Energy:  -703.20493474607088

   => Energetics <=

    Nuclear Repulsion Energy =            412.2569758980441179
    One-Electron Energy =               -1782.8421386487559630
    Two-Electron Energy =                 667.3802280046409123
    Total Energy =                       -703.2049347460708759
  Basis Set: (AUG-CC-PVTZ AUX)
    Blend: AUG-CC-PVTZ-RI
    Molecular point group: c1

    Geometry (in Angstrom), charge = 0, multiplicity = 1:

       Center              X                  Y                   Z               Mass
    ------------   -----------------  -----------------  -----------------  -----------------
         S           -0.964494136293    -1.095622951349    -0.000055777690    31.972071174400
         O            2.001147863707    -1.266283951349    -0.000341777690    15.994914619570
         C            0.166417863707     0.207947048651     0.000002222310    12.000000000000
         C           -0.479264136293     1.436362048651     0.000231222310    12.000000000000
         C            1.605765863707    -0.097120951349    -0.000168777690    12.000000000000
         C           -1.885407136293     1.310379048651     0.000356222310    12.000000000000
         C            2.567246863707     1.070312048651    -0.000107777690    12.000000000000
         C           -2.288933136293    -0.010417951349     0.000219222310    12.000000000000
         H            0.047576863707     2.385496048651     0.000307222310     1.007825032230
         H           -2.577639136293     2.145922048651     0.000538222310     1.007825032230
         H            2.413010863707     1.695702048651    -0.884558777690     1.007825032230
         H            3.585195863707     0.679222048651    -0.000347777690     1.007825032230
         H            2.413301863707     1.695340048651     0.884652222310     1.007825032230
         H           -3.302852136293    -0.392019951349     0.000264222310     1.007825032230

  Basis Set: AUG-CC-PVTZ
    Blend: AUG-CC-PVTZ
  Basis Set: (AUG-CC-PVTZ AUX)
    Blend: AUG-CC-PVTZ-JKFIT
	 Reference Energy          =    -703.2049347460708759 [Eh]
	 Singles Energy            =      -0.0000000000000000 [Eh]
	 Same-Spin Energy          =      -0.3849207424050174 [Eh]
	 Opposite-Spin Energy      =      -1.1756113680816562 [Eh]
	 Correlation Energy        =      -1.5605321104866736 [Eh]
	 Total Energy              =    -704.7654668565575093 [Eh]

	 ================> DF-SCS-MP2 Energies <==================
	-----------------------------------------------------------
	 SCS Same-Spin Scale       =       0.3333333333333333 [-]
	 SCS Opposite-Spin Scale   =       1.2000000000000000 [-]
	 SCS Same-Spin Energy      =      -0.1283069141350058 [Eh]
	 SCS Opposite-Spin Energy  =      -1.4107336416979874 [Eh]
	 SCS Correlation Energy    =      -1.5390405558329932 [Eh]
	 SCS Total Energy          =    -704.7439753019039017 [Eh]
	-----------------------------------------------------------

  Dipole Moment: [D]
     X:    -1.6116      Y:     3.0487      Z:     0.0005     Total:     3.4485

*** Psi4 exiting successfully. Buy a developer a beer!
