                               Psi4 1.3.2 release

  ==> Input File <==

--------------------------------------------------------------------------
#psi4
#
memory 32 gb

molecule  {
0 1
  S       -0.9837490    -1.1570500    -0.0000620
  O        1.9818930    -1.3277110    -0.0003480
  C        0.1471630     0.1465200    -0.0000040
  C       -0.4985190     1.3749350     0.0002250
  C        1.5865110    -0.1585480    -0.0001750
  C       -1.9046620     1.2489520     0.0003500
  C        2.5479920     1.0088850    -0.0001140
  C       -2.3081880    -0.0718450     0.0002130
  H        0.0283020     2.3240959    -0.1996990
  H       -2.5968940     2.0844950     0.0005320
  H        2.3937560     1.6342750    -0.8845650
  H        3.5659410     0.6177950    -0.0003540
  H        2.3940470     1.6339130     0.8846460
  H       -3.3221070    -0.4534470     0.0002580
units angstrom
no_reorient  #important for SAPT in psi4, default
symmetry c1  #important for SAPT in psi4, default
}

set PROPERTIES_ORIGIN ["COM"]
properties('MP2/aug-cc-pvtz', properties = ['dipole'])
--------------------------------------------------------------------------

    Molecular point group: c1
  Charge       = 0
  Multiplicity = 1
  Basis Set: AUG-CC-PVTZ
    Blend: AUG-CC-PVTZ
  Basis Set: (AUG-CC-PVTZ AUX)
    Blend: AUG-CC-PVTZ-JKFIT

    Orbital Energies [Eh]
    ---------------------

    Doubly Occupied:

       1A    -91.997991     2A    -20.546939     3A    -11.345472
       4A    -11.284603     5A    -11.275036     6A    -11.268793
       7A    -11.253036     8A    -11.240940     9A     -8.997769
      10A     -6.678600    11A     -6.678022    12A     -6.677377
      13A     -1.377926    14A     -1.188008    15A     -1.044174
      16A     -1.003841    17A     -0.983136    18A     -0.840339
      19A     -0.772614    20A     -0.724853    21A     -0.694034
      22A     -0.623894    23A     -0.618407    24A     -0.610406
      25A     -0.574540    26A     -0.557971    27A     -0.541296
      28A     -0.530486    29A     -0.494385    30A     -0.488788
      31A     -0.426469    32A     -0.359952    33A     -0.338387

  @DF-RHF Final Energy:  -703.20241295708001

   => Energetics <=

    Nuclear Repulsion Energy =            412.1833001724713199
    One-Electron Energy =               -1782.6944554084686843
    Two-Electron Energy =                 667.3087422789174070
    Total Energy =                       -703.2024129570800142
  Basis Set: (AUG-CC-PVTZ AUX)
    Blend: AUG-CC-PVTZ-RI
    Molecular point group: c1

    Geometry (in Angstrom), charge = 0, multiplicity = 1:

       Center              X                  Y                   Z               Mass
    ------------   -----------------  -----------------  -----------------  -----------------
         S           -0.964493976339    -1.095623166488     0.001543767669    31.972071174400
         O            2.001148023661    -1.266284166488     0.001257767669    15.994914619570
         C            0.166418023661     0.207946833512     0.001601767669    12.000000000000
         C           -0.479263976339     1.436361833512     0.001830767669    12.000000000000
         C            1.605766023661    -0.097121166488     0.001430767669    12.000000000000
         C           -1.885406976339     1.310378833512     0.001955767669    12.000000000000
         C            2.567247023661     1.070311833512     0.001491767669    12.000000000000
         C           -2.288932976339    -0.010418166488     0.001818767669    12.000000000000
         H            0.047557023661     2.385522733512    -0.198093232331     1.007825032230
         H           -2.577638976339     2.145921833512     0.002137767669     1.007825032230
         H            2.413011023661     1.695701833512    -0.882959232331     1.007825032230
         H            3.585196023661     0.679221833512     0.001251767669     1.007825032230
         H            2.413302023661     1.695339833512     0.886251767669     1.007825032230
         H           -3.302851976339    -0.392020166488     0.001863767669     1.007825032230

  Basis Set: AUG-CC-PVTZ
    Blend: AUG-CC-PVTZ
  Basis Set: (AUG-CC-PVTZ AUX)
    Blend: AUG-CC-PVTZ-JKFIT
	 Reference Energy          =    -703.2024129570800142 [Eh]
	 Singles Energy            =      -0.0000000000000000 [Eh]
	 Same-Spin Energy          =      -0.3850919126309872 [Eh]
	 Opposite-Spin Energy      =      -1.1759349352420532 [Eh]
	 Correlation Energy        =      -1.5610268478730405 [Eh]
	 Total Energy              =    -704.7634398049530091 [Eh]

	 ================> DF-SCS-MP2 Energies <==================
	-----------------------------------------------------------
	 SCS Same-Spin Scale       =       0.3333333333333333 [-]
	 SCS Opposite-Spin Scale   =       1.2000000000000000 [-]
	 SCS Same-Spin Energy      =      -0.1283639708769957 [Eh]
	 SCS Opposite-Spin Energy  =      -1.4111219222904638 [Eh]
	 SCS Correlation Energy    =      -1.5394858931674595 [Eh]
	 SCS Total Energy          =    -704.7418988502474804 [Eh]
	-----------------------------------------------------------

  Dipole Moment: [D]
     X:    -1.6260      Y:     3.0218      Z:    -0.1491     Total:     3.4347

*** Psi4 exiting successfully. Buy a developer a beer!
