                               Psi4 1.3.2 release

  ==> Input File <==

--------------------------------------------------------------------------
#psi4
#
memory 32 gb

molecule  {
0 1
  S       -0.9837490    -1.1570500    -0.0000620
  O        1.9818930    -1.3277110    -0.0003480
  C        0.1471630     0.1465200    -0.0000040
  C       -0.4985190     1.3749350     0.0002250
  C        1.5865110    -0.1585480    -0.0001750
  C       -1.9046620     1.2489520     0.0003500
  C        2.5479920     1.0088850    -0.0001140
  C       -2.3081880    -0.0718450     0.0002130
  H        0.0283220     2.3240690     0.0003010
  H       -2.5968940     2.0844950     0.0005320
  H        2.3937560     1.6342750    -0.8845650
  H        3.5659410     0.6177950    -0.0003540
  H        2.3940470     1.6339130     0.8846460
  H       -3.3220925    -0.4534671     0.1502580
units angstrom
no_reorient  #important for SAPT in psi4, default
symmetry c1  #important for SAPT in psi4, default
}

set PROPERTIES_ORIGIN ["COM"]
properties('MP2/aug-cc-pvtz', properties = ['dipole'])
--------------------------------------------------------------------------

    Molecular point group: c1
  Charge       = 0
  Multiplicity = 1
  Basis Set: AUG-CC-PVTZ
    Blend: AUG-CC-PVTZ
  Basis Set: (AUG-CC-PVTZ AUX)
    Blend: AUG-CC-PVTZ-JKFIT

    Orbital Energies [Eh]
    ---------------------

    Doubly Occupied:

       1A    -91.997664     2A    -20.546909     3A    -11.345477
       4A    -11.285253     5A    -11.274774     6A    -11.267400
       7A    -11.253102     8A    -11.241110     9A     -8.997455
      10A     -6.678287    11A     -6.677704    12A     -6.677060
      13A     -1.377900    14A     -1.187938    15A     -1.044185
      16A     -1.004212    17A     -0.983099    18A     -0.840316
      19A     -0.771858    20A     -0.727562    21A     -0.693960
      22A     -0.623985    23A     -0.617778    24A     -0.610363
      25A     -0.575529    26A     -0.558192    27A     -0.542314
      28A     -0.529753    29A     -0.493954    30A     -0.489307
      31A     -0.426447    32A     -0.360100    33A     -0.338265

  @DF-RHF Final Energy:  -703.20365879249857

   => Energetics <=

    Nuclear Repulsion Energy =            412.2165008572287661
    One-Electron Energy =               -1782.7618921905534535
    Two-Electron Energy =                 667.3417325408261149
    Total Energy =                       -703.2036587924985724
  Basis Set: (AUG-CC-PVTZ AUX)
    Blend: AUG-CC-PVTZ-RI
    Molecular point group: c1

    Geometry (in Angstrom), charge = 0, multiplicity = 1:

       Center              X                  Y                   Z               Mass
    ------------   -----------------  -----------------  -----------------  -----------------
         S           -0.964494252260    -1.095622790595    -0.001255436709    31.972071174400
         O            2.001147747740    -1.266283790595    -0.001541436709    15.994914619570
         C            0.166417747740     0.207947209405    -0.001197436709    12.000000000000
         C           -0.479264252260     1.436362209405    -0.000968436709    12.000000000000
         C            1.605765747740    -0.097120790595    -0.001368436709    12.000000000000
         C           -1.885407252260     1.310379209405    -0.000843436709    12.000000000000
         C            2.567246747740     1.070312209405    -0.001307436709    12.000000000000
         C           -2.288933252260    -0.010417790595    -0.000980436709    12.000000000000
         H            0.047576747740     2.385496209405    -0.000892436709     1.007825032230
         H           -2.577639252260     2.145922209405    -0.000661436709     1.007825032230
         H            2.413010747740     1.695702209405    -0.885758436709     1.007825032230
         H            3.585195747740     0.679222209405    -0.001547436709     1.007825032230
         H            2.413301747740     1.695340209405     0.883452563291     1.007825032230
         H           -3.302837752260    -0.392039890595     0.149064563291     1.007825032230

  Basis Set: AUG-CC-PVTZ
    Blend: AUG-CC-PVTZ
  Basis Set: (AUG-CC-PVTZ AUX)
    Blend: AUG-CC-PVTZ-JKFIT
	 Reference Energy          =    -703.2036587924985724 [Eh]
	 Singles Energy            =      -0.0000000000000000 [Eh]
	 Same-Spin Energy          =      -0.3850198344510076 [Eh]
	 Opposite-Spin Energy      =      -1.1758202517385883 [Eh]
	 Correlation Energy        =      -1.5608400861895959 [Eh]
	 Total Energy              =    -704.7644988786881868 [Eh]

	 ================> DF-SCS-MP2 Energies <==================
	-----------------------------------------------------------
	 SCS Same-Spin Scale       =       0.3333333333333333 [-]
	 SCS Opposite-Spin Scale   =       1.2000000000000000 [-]
	 SCS Same-Spin Energy      =      -0.1283399448170025 [Eh]
	 SCS Opposite-Spin Energy  =      -1.4109843020863060 [Eh]
	 SCS Correlation Energy    =      -1.5393242469033086 [Eh]
	 SCS Total Energy          =    -704.7429830394019064 [Eh]
	-----------------------------------------------------------

  Dipole Moment: [D]
     X:    -1.5935      Y:     3.0557      Z:     0.1186     Total:     3.4482

*** Psi4 exiting successfully. Buy a developer a beer!
