                               Psi4 1.3.2 release

  ==> Input File <==

--------------------------------------------------------------------------
#psi4
#
memory 32 gb

molecule  {
0 1
  S       -0.9837490    -1.1570500    -0.0000620
  O        1.9818930    -1.3277110    -0.0003480
  C        0.1471630     0.1465200    -0.0000040
  C       -0.4985190     1.3749350     0.0002250
  C        1.5865110    -0.1585480    -0.0001750
  C       -1.9046620     1.2489520     0.0003500
  C        2.5479920     1.0088850    -0.0001140
  C       -2.3081880    -0.0718450     0.0002130
  H        0.0283220     2.3240690     0.0003010
  H       -2.5968940     2.0844950     0.0005320
  H        2.3937560     1.6342750    -0.8845650
  H        3.5659410     0.6177950    -0.0003540
  H        2.3940470     1.6339130     0.8846460
  H       -3.3220877    -0.4534739     0.2002580
units angstrom
no_reorient  #important for SAPT in psi4, default
symmetry c1  #important for SAPT in psi4, default
}

set PROPERTIES_ORIGIN ["COM"]
properties('MP2/aug-cc-pvtz', properties = ['dipole'])
--------------------------------------------------------------------------

    Molecular point group: c1
  Charge       = 0
  Multiplicity = 1
  Basis Set: AUG-CC-PVTZ
    Blend: AUG-CC-PVTZ
  Basis Set: (AUG-CC-PVTZ AUX)
    Blend: AUG-CC-PVTZ-JKFIT

    Orbital Energies [Eh]
    ---------------------

    Doubly Occupied:

       1A    -91.997652     2A    -20.547037     3A    -11.345567
       4A    -11.285779     5A    -11.274958     6A    -11.267443
       7A    -11.253294     8A    -11.241180     9A     -8.997449
      10A     -6.678280    11A     -6.677693    12A     -6.677051
      13A     -1.378007    14A     -1.187971    15A     -1.044176
      16A     -1.004255    17A     -0.982934    18A     -0.840169
      19A     -0.770868    20A     -0.727493    21A     -0.693806
      22A     -0.624087    23A     -0.617376    24A     -0.610408
      25A     -0.575178    26A     -0.558275    27A     -0.542546
      28A     -0.528998    29A     -0.493848    30A     -0.489316
      31A     -0.426548    32A     -0.360127    33A     -0.338262

  @DF-RHF Final Energy:  -703.20259836027958

   => Energetics <=

    Nuclear Repulsion Energy =            412.1856003458236728
    One-Electron Energy =               -1782.7003292277393030
    Two-Electron Energy =                 667.3121305216361634
    Total Energy =                       -703.2025983602795804
  Basis Set: (AUG-CC-PVTZ AUX)
    Blend: AUG-CC-PVTZ-RI
    Molecular point group: c1

    Geometry (in Angstrom), charge = 0, multiplicity = 1:

       Center              X                  Y                   Z               Mass
    ------------   -----------------  -----------------  -----------------  -----------------
         S           -0.964494290649    -1.095622736210    -0.001655323048    31.972071174400
         O            2.001147709351    -1.266283736210    -0.001941323048    15.994914619570
         C            0.166417709351     0.207947263790    -0.001597323048    12.000000000000
         C           -0.479264290649     1.436362263790    -0.001368323048    12.000000000000
         C            1.605765709351    -0.097120736210    -0.001768323048    12.000000000000
         C           -1.885407290649     1.310379263790    -0.001243323048    12.000000000000
         C            2.567246709351     1.070312263790    -0.001707323048    12.000000000000
         C           -2.288933290649    -0.010417736210    -0.001380323048    12.000000000000
         H            0.047576709351     2.385496263790    -0.001292323048     1.007825032230
         H           -2.577639290649     2.145922263790    -0.001061323048     1.007825032230
         H            2.413010709351     1.695702263790    -0.886158323048     1.007825032230
         H            3.585195709351     0.679222263790    -0.001947323048     1.007825032230
         H            2.413301709351     1.695340263790     0.883052676952     1.007825032230
         H           -3.302832990649    -0.392046636210     0.198664676952     1.007825032230

  Basis Set: AUG-CC-PVTZ
    Blend: AUG-CC-PVTZ
  Basis Set: (AUG-CC-PVTZ AUX)
    Blend: AUG-CC-PVTZ-JKFIT
	 Reference Energy          =    -703.2025983602795804 [Eh]
	 Singles Energy            =      -0.0000000000000000 [Eh]
	 Same-Spin Energy          =      -0.3850969265524541 [Eh]
	 Opposite-Spin Energy      =      -1.1759894977020595 [Eh]
	 Correlation Energy        =      -1.5610864242545137 [Eh]
	 Total Energy              =    -704.7636847845341208 [Eh]

	 ================> DF-SCS-MP2 Energies <==================
	-----------------------------------------------------------
	 SCS Same-Spin Scale       =       0.3333333333333333 [-]
	 SCS Opposite-Spin Scale   =       1.2000000000000000 [-]
	 SCS Same-Spin Energy      =      -0.1283656421841514 [Eh]
	 SCS Opposite-Spin Energy  =      -1.4111873972424713 [Eh]
	 SCS Correlation Energy    =      -1.5395530394266226 [Eh]
	 SCS Total Energy          =    -704.7421513997062448 [Eh]
	-----------------------------------------------------------

  Dipole Moment: [D]
     X:    -1.5796      Y:     3.0609      Z:     0.1573     Total:     3.4480

*** Psi4 exiting successfully. Buy a developer a beer!
