                               Psi4 1.3.2 release

  ==> Input File <==

--------------------------------------------------------------------------
#psi4
#
memory 32 gb

molecule  {
0 1
  S       -0.9837490    -1.1570500    -0.0000620
  O        1.9818930    -1.3277110    -0.0003480
  C        0.1471630     0.1465200    -0.0000040
  C       -0.4985190     1.3749350     0.0002250
  C        1.5865015    -0.1585348    -0.1001750
  C       -1.9046620     1.2489520     0.0003500
  C        2.5479920     1.0088850    -0.0001140
  C       -2.3081880    -0.0718450     0.0002130
  H        0.0283220     2.3240690     0.0003010
  H       -2.5968940     2.0844950     0.0005320
  H        2.3937560     1.6342750    -0.8845650
  H        3.5659410     0.6177950    -0.0003540
  H        2.3940470     1.6339130     0.8846460
  H       -3.3221070    -0.4534470     0.0002580
units angstrom
no_reorient  #important for SAPT in psi4, default
symmetry c1  #important for SAPT in psi4, default
}

set PROPERTIES_ORIGIN ["COM"]
properties('MP2/aug-cc-pvtz', properties = ['dipole'])
--------------------------------------------------------------------------

    Molecular point group: c1
  Charge       = 0
  Multiplicity = 1
  Basis Set: AUG-CC-PVTZ
    Blend: AUG-CC-PVTZ
  Basis Set: (AUG-CC-PVTZ AUX)
    Blend: AUG-CC-PVTZ-JKFIT

    Orbital Energies [Eh]
    ---------------------

    Doubly Occupied:

       1A    -91.997566     2A    -20.547769     3A    -11.346669
       4A    -11.284479     5A    -11.275004     6A    -11.267188
       7A    -11.252815     8A    -11.241430     9A     -8.997363
      10A     -6.678198    11A     -6.677617    12A     -6.676971
      13A     -1.375876    14A     -1.187759    15A     -1.043453
      16A     -1.004034    17A     -0.982927    18A     -0.839931
      19A     -0.773099    20A     -0.727640    21A     -0.693864
      22A     -0.623756    23A     -0.618434    24A     -0.608306
      25A     -0.575782    26A     -0.557806    27A     -0.542303
      28A     -0.529934    29A     -0.493020    30A     -0.489205
      31A     -0.425850    32A     -0.360026    33A     -0.337885

  @DF-RHF Final Energy:  -703.19987721320410

   => Energetics <=

    Nuclear Repulsion Energy =            412.1073671777577374
    One-Electron Energy =               -1782.5465763287979826
    Two-Electron Energy =                 667.2393319378362548
    Total Energy =                       -703.1998772132041040
  Basis Set: (AUG-CC-PVTZ AUX)
    Blend: AUG-CC-PVTZ-RI
    Molecular point group: c1

    Geometry (in Angstrom), charge = 0, multiplicity = 1:

       Center              X                  Y                   Z               Mass
    ------------   -----------------  -----------------  -----------------  -----------------
         S           -0.964493231631    -1.095624208353     0.009466978588    31.972071174400
         O            2.001148768369    -1.266285208353     0.009180978588    15.994914619570
         C            0.166418768369     0.207945791647     0.009524978588    12.000000000000
         C           -0.479263231631     1.436360791647     0.009753978588    12.000000000000
         C            1.605757268369    -0.097109008353    -0.090646021412    12.000000000000
         C           -1.885406231631     1.310377791647     0.009878978588    12.000000000000
         C            2.567247768369     1.070310791647     0.009414978588    12.000000000000
         C           -2.288932231631    -0.010419208353     0.009741978588    12.000000000000
         H            0.047577768369     2.385494791647     0.009829978588     1.007825032230
         H           -2.577638231631     2.145920791647     0.010060978588     1.007825032230
         H            2.413011768369     1.695700791647    -0.875036021412     1.007825032230
         H            3.585196768369     0.679220791647     0.009174978588     1.007825032230
         H            2.413302768369     1.695338791647     0.894174978588     1.007825032230
         H           -3.302851231631    -0.392021208353     0.009786978588     1.007825032230

  Basis Set: AUG-CC-PVTZ
    Blend: AUG-CC-PVTZ
  Basis Set: (AUG-CC-PVTZ AUX)
    Blend: AUG-CC-PVTZ-JKFIT
	 Reference Energy          =    -703.1998772132041040 [Eh]
	 Singles Energy            =      -0.0000000000000000 [Eh]
	 Same-Spin Energy          =      -0.3851845057777620 [Eh]
	 Opposite-Spin Energy      =      -1.1763434184288450 [Eh]
	 Correlation Energy        =      -1.5615279242066071 [Eh]
	 Total Energy              =    -704.7614051374107476 [Eh]

	 ================> DF-SCS-MP2 Energies <==================
	-----------------------------------------------------------
	 SCS Same-Spin Scale       =       0.3333333333333333 [-]
	 SCS Opposite-Spin Scale   =       1.2000000000000000 [-]
	 SCS Same-Spin Energy      =      -0.1283948352592540 [Eh]
	 SCS Opposite-Spin Energy  =      -1.4116121021146140 [Eh]
	 SCS Correlation Energy    =      -1.5400069373738678 [Eh]
	 SCS Total Energy          =    -704.7398841505779501 [Eh]
	-----------------------------------------------------------

  Dipole Moment: [D]
     X:    -1.6075      Y:     3.0347      Z:    -0.0639     Total:     3.4348

*** Psi4 exiting successfully. Buy a developer a beer!
