                               Psi4 1.3.2 release

  ==> Input File <==

--------------------------------------------------------------------------
#psi4
#
memory 32 gb

molecule  {
0 1
  S       -0.9837490    -1.1570500    -0.0000620
  O        1.9818930    -1.3277110    -0.0003480
  C        0.1471630     0.1465200    -0.0000040
  C       -0.4985190     1.3749350     0.0002250
  C        1.5865110    -0.1585480    -0.0001750
  C       -1.9046620     1.2489520     0.0003500
  C        2.5479920     1.0088850    -0.0001140
  C       -2.3081880    -0.0718450     0.0002130
  H        0.0283220     2.3240690     0.0003010
  H       -2.5968940     2.0844950     0.0005320
  H        2.3937560     1.6342750    -0.8845650
  H        3.5659410     0.6177950    -0.0003540
  H        2.3940470     1.6339130     0.8846460
  H       -3.3220974    -0.4534604     0.1002580
units angstrom
no_reorient  #important for SAPT in psi4, default
symmetry c1  #important for SAPT in psi4, default
}

set PROPERTIES_ORIGIN ["COM"]
properties('MP2/aug-cc-pvtz', properties = ['dipole'])
--------------------------------------------------------------------------

    Molecular point group: c1
  Charge       = 0
  Multiplicity = 1
  Basis Set: AUG-CC-PVTZ
    Blend: AUG-CC-PVTZ
  Basis Set: (AUG-CC-PVTZ AUX)
    Blend: AUG-CC-PVTZ-JKFIT

    Orbital Energies [Eh]
    ---------------------

    Doubly Occupied:

       1A    -91.997674     2A    -20.546817     3A    -11.345413
       4A    -11.284873     5A    -11.274641     6A    -11.267370
       7A    -11.252963     8A    -11.241059     9A     -8.997461
      10A     -6.678294    11A     -6.677713    12A     -6.677069
      13A     -1.377823    14A     -1.187915    15A     -1.044194
      16A     -1.004182    17A     -0.983222    18A     -0.840429
      19A     -0.772590    20A     -0.727611    21A     -0.694071
      22A     -0.623913    23A     -0.618074    24A     -0.610329
      25A     -0.575774    26A     -0.558132    27A     -0.542133
      28A     -0.530309    29A     -0.494027    30A     -0.489301
      31A     -0.426375    32A     -0.360081    33A     -0.338268

  @DF-RHF Final Energy:  -703.20438039043938

   => Energetics <=

    Nuclear Repulsion Energy =            412.2388810655257885
    One-Electron Energy =               -1782.8063199678226738
    Two-Electron Energy =                 667.3630585118576164
    Total Energy =                       -703.2043803904393826
  Basis Set: (AUG-CC-PVTZ AUX)
    Blend: AUG-CC-PVTZ-RI
    Molecular point group: c1

    Geometry (in Angstrom), charge = 0, multiplicity = 1:

       Center              X                  Y                   Z               Mass
    ------------   -----------------  -----------------  -----------------  -----------------
         S           -0.964494213071    -1.095622844180    -0.000855550369    31.972071174400
         O            2.001147786929    -1.266283844180    -0.001141550369    15.994914619570
         C            0.166417786929     0.207947155820    -0.000797550369    12.000000000000
         C           -0.479264213071     1.436362155820    -0.000568550369    12.000000000000
         C            1.605765786929    -0.097120844180    -0.000968550369    12.000000000000
         C           -1.885407213071     1.310379155820    -0.000443550369    12.000000000000
         C            2.567246786929     1.070312155820    -0.000907550369    12.000000000000
         C           -2.288933213071    -0.010417844180    -0.000580550369    12.000000000000
         H            0.047576786929     2.385496155820    -0.000492550369     1.007825032230
         H           -2.577639213071     2.145922155820    -0.000261550369     1.007825032230
         H            2.413010786929     1.695702155820    -0.885358550369     1.007825032230
         H            3.585195786929     0.679222155820    -0.001147550369     1.007825032230
         H            2.413301786929     1.695340155820     0.883852449631     1.007825032230
         H           -3.302842613071    -0.392033244180     0.099464449631     1.007825032230

  Basis Set: AUG-CC-PVTZ
    Blend: AUG-CC-PVTZ
  Basis Set: (AUG-CC-PVTZ AUX)
    Blend: AUG-CC-PVTZ-JKFIT
	 Reference Energy          =    -703.2043803904393826 [Eh]
	 Singles Energy            =      -0.0000000000000000 [Eh]
	 Same-Spin Energy          =      -0.3849647148969116 [Eh]
	 Opposite-Spin Energy      =      -1.1757026261379737 [Eh]
	 Correlation Energy        =      -1.5606673410348852 [Eh]
	 Total Energy              =    -704.7650477314742830 [Eh]

	 ================> DF-SCS-MP2 Energies <==================
	-----------------------------------------------------------
	 SCS Same-Spin Scale       =       0.3333333333333333 [-]
	 SCS Opposite-Spin Scale   =       1.2000000000000000 [-]
	 SCS Same-Spin Energy      =      -0.1283215716323039 [Eh]
	 SCS Opposite-Spin Energy  =      -1.4108431513655684 [Eh]
	 SCS Correlation Energy    =      -1.5391647229978722 [Eh]
	 SCS Total Energy          =    -704.7435451134372215 [Eh]
	-----------------------------------------------------------

  Dipole Moment: [D]
     X:    -1.6035      Y:     3.0518      Z:     0.0795     Total:     3.4484

*** Psi4 exiting successfully. Buy a developer a beer!
