                               Psi4 1.3.2 release

  ==> Input File <==

--------------------------------------------------------------------------
#psi4
#
memory 32 gb

molecule  {
0 1
  S       -0.9837490    -1.1570500    -0.0000620
  O        1.9818930    -1.3277110    -0.0003480
  C        0.1471630     0.1465200    -0.0000040
  C       -0.4985190     1.3749350     0.0002250
  C        1.5865110    -0.1585480    -0.0001750
  C       -1.9046620     1.2489520     0.0003500
  C        2.5479920     1.0088850    -0.0001140
  C       -2.3081880    -0.0718450     0.0002130
  H        0.0283170     2.3240757    -0.0496990
  H       -2.5968940     2.0844950     0.0005320
  H        2.3937560     1.6342750    -0.8845650
  H        3.5659410     0.6177950    -0.0003540
  H        2.3940470     1.6339130     0.8846460
  H       -3.3221070    -0.4534470     0.0002580
units angstrom
no_reorient  #important for SAPT in psi4, default
symmetry c1  #important for SAPT in psi4, default
}

set PROPERTIES_ORIGIN ["COM"]
properties('MP2/aug-cc-pvtz', properties = ['dipole'])
--------------------------------------------------------------------------

    Molecular point group: c1
  Charge       = 0
  Multiplicity = 1
  Basis Set: AUG-CC-PVTZ
    Blend: AUG-CC-PVTZ
  Basis Set: (AUG-CC-PVTZ AUX)
    Blend: AUG-CC-PVTZ-JKFIT

    Orbital Energies [Eh]
    ---------------------

    Doubly Occupied:

       1A    -91.997703     2A    -20.546755     3A    -11.345368
       4A    -11.284569     5A    -11.274566     6A    -11.267438
       7A    -11.252864     8A    -11.241013     9A     -8.997486
      10A     -6.678320    11A     -6.677741    12A     -6.677096
      13A     -1.377771    14A     -1.187904    15A     -1.044200
      16A     -1.004138    17A     -0.983311    18A     -0.840513
      19A     -0.773150    20A     -0.727471    21A     -0.694153
      22A     -0.623857    23A     -0.618321    24A     -0.610309
      25A     -0.575876    26A     -0.558077    27A     -0.541933
      28A     -0.530749    29A     -0.494105    30A     -0.489263
      31A     -0.426326    32A     -0.360059    33A     -0.338279

  @DF-RHF Final Energy:  -703.20478593471717

   => Energetics <=

    Nuclear Repulsion Energy =            412.2522928305039045
    One-Electron Energy =               -1782.8327913059861203
    Two-Electron Energy =                 667.3757125407651074
    Total Energy =                       -703.2047859347171652
  Basis Set: (AUG-CC-PVTZ AUX)
    Blend: AUG-CC-PVTZ-RI
    Molecular point group: c1

    Geometry (in Angstrom), charge = 0, multiplicity = 1:

       Center              X                  Y                   Z               Mass
    ------------   -----------------  -----------------  -----------------  -----------------
         S           -0.964494096304    -1.095623004934     0.000344108650    31.972071174400
         O            2.001147903696    -1.266284004934     0.000058108650    15.994914619570
         C            0.166417903696     0.207946995066     0.000402108650    12.000000000000
         C           -0.479264096304     1.436361995066     0.000631108650    12.000000000000
         C            1.605765903696    -0.097121004934     0.000231108650    12.000000000000
         C           -1.885407096304     1.310378995066     0.000756108650    12.000000000000
         C            2.567246903696     1.070311995066     0.000292108650    12.000000000000
         C           -2.288933096304    -0.010418004934     0.000619108650    12.000000000000
         H            0.047571903696     2.385502695066    -0.049292891350     1.007825032230
         H           -2.577639096304     2.145921995066     0.000938108650     1.007825032230
         H            2.413010903696     1.695701995066    -0.884158891350     1.007825032230
         H            3.585195903696     0.679221995066     0.000052108650     1.007825032230
         H            2.413301903696     1.695339995066     0.885052108650     1.007825032230
         H           -3.302852096304    -0.392020004934     0.000664108650     1.007825032230

  Basis Set: AUG-CC-PVTZ
    Blend: AUG-CC-PVTZ
  Basis Set: (AUG-CC-PVTZ AUX)
    Blend: AUG-CC-PVTZ-JKFIT
	 Reference Energy          =    -703.2047859347171652 [Eh]
	 Singles Energy            =      -0.0000000000000000 [Eh]
	 Same-Spin Energy          =      -0.3849315796516008 [Eh]
	 Opposite-Spin Energy      =      -1.1756303369417831 [Eh]
	 Correlation Energy        =      -1.5605619165933839 [Eh]
	 Total Energy              =    -704.7653478513105938 [Eh]

	 ================> DF-SCS-MP2 Energies <==================
	-----------------------------------------------------------
	 SCS Same-Spin Scale       =       0.3333333333333333 [-]
	 SCS Opposite-Spin Scale   =       1.2000000000000000 [-]
	 SCS Same-Spin Energy      =      -0.1283105265505336 [Eh]
	 SCS Opposite-Spin Energy  =      -1.4107564043301397 [Eh]
	 SCS Correlation Energy    =      -1.5390669308806733 [Eh]
	 SCS Total Energy          =    -704.7438528655978871 [Eh]
	-----------------------------------------------------------

  Dipole Moment: [D]
     X:    -1.6125      Y:     3.0470      Z:    -0.0372     Total:     3.4476

*** Psi4 exiting successfully. Buy a developer a beer!
