                               Psi4 1.3.2 release

  ==> Input File <==

--------------------------------------------------------------------------
#psi4
#
memory 32 gb

molecule  {
0 1
  S       -0.9837490    -1.1570500    -0.0000620
  O        1.9818930    -1.3277110    -0.0003480
  C        0.1471630     0.1465200    -0.0000040
  C       -0.4985190     1.3749350     0.0002250
  C        1.5864920    -0.1585217    -0.2001750
  C       -1.9046620     1.2489520     0.0003500
  C        2.5479920     1.0088850    -0.0001140
  C       -2.3081880    -0.0718450     0.0002130
  H        0.0283220     2.3240690     0.0003010
  H       -2.5968940     2.0844950     0.0005320
  H        2.3937560     1.6342750    -0.8845650
  H        3.5659410     0.6177950    -0.0003540
  H        2.3940470     1.6339130     0.8846460
  H       -3.3221070    -0.4534470     0.0002580
units angstrom
no_reorient  #important for SAPT in psi4, default
symmetry c1  #important for SAPT in psi4, default
}

set PROPERTIES_ORIGIN ["COM"]
properties('MP2/aug-cc-pvtz', properties = ['dipole'])
--------------------------------------------------------------------------

    Molecular point group: c1
  Charge       = 0
  Multiplicity = 1
  Basis Set: AUG-CC-PVTZ
    Blend: AUG-CC-PVTZ
  Basis Set: (AUG-CC-PVTZ AUX)
    Blend: AUG-CC-PVTZ-JKFIT

    Orbital Energies [Eh]
    ---------------------

    Doubly Occupied:

       1A    -91.997216     2A    -20.550875     3A    -11.350421
       4A    -11.284217     5A    -11.276365     6A    -11.266720
       7A    -11.252700     8A    -11.242639     9A     -8.997051
      10A     -6.677888    11A     -6.677302    12A     -6.676654
      13A     -1.370380    14A     -1.187350    15A     -1.041252
      16A     -1.003667    17A     -0.981753    18A     -0.838191
      19A     -0.772831    20A     -0.727612    21A     -0.692991
      22A     -0.623338    23A     -0.618063    24A     -0.603291
      25A     -0.575200    26A     -0.556918    27A     -0.543013
      28A     -0.527753    29A     -0.490300    30A     -0.488619
      31A     -0.424499    32A     -0.359899    33A     -0.336749

  @DF-RHF Final Energy:  -703.18468808249315

   => Energetics <=

    Nuclear Repulsion Energy =            411.6650120023352315
    One-Electron Energy =               -1781.6719675303022541
    Two-Electron Energy =                 666.8222674454738126
    Total Energy =                       -703.1846880824931532
  Basis Set: (AUG-CC-PVTZ AUX)
    Blend: AUG-CC-PVTZ-RI
    Molecular point group: c1

    Geometry (in Angstrom), charge = 0, multiplicity = 1:

       Center              X                  Y                   Z               Mass
    ------------   -----------------  -----------------  -----------------  -----------------
         S           -0.964492326969    -1.095625455834     0.018989734866    31.972071174400
         O            2.001149673031    -1.266286455834     0.018703734866    15.994914619570
         C            0.166419673031     0.207944544166     0.019047734866    12.000000000000
         C           -0.479262326969     1.436359544166     0.019276734866    12.000000000000
         C            1.605748673031    -0.097097155834    -0.181123265134    12.000000000000
         C           -1.885405326969     1.310376544166     0.019401734866    12.000000000000
         C            2.567248673031     1.070309544166     0.018937734866    12.000000000000
         C           -2.288931326969    -0.010420455834     0.019264734866    12.000000000000
         H            0.047578673031     2.385493544166     0.019352734866     1.007825032230
         H           -2.577637326969     2.145919544166     0.019583734866     1.007825032230
         H            2.413012673031     1.695699544166    -0.865513265134     1.007825032230
         H            3.585197673031     0.679219544166     0.018697734866     1.007825032230
         H            2.413303673031     1.695337544166     0.903697734866     1.007825032230
         H           -3.302850326969    -0.392022455834     0.019309734866     1.007825032230

  Basis Set: AUG-CC-PVTZ
    Blend: AUG-CC-PVTZ
  Basis Set: (AUG-CC-PVTZ AUX)
    Blend: AUG-CC-PVTZ-JKFIT
	 Reference Energy          =    -703.1846880824931532 [Eh]
	 Singles Energy            =      -0.0000000000000000 [Eh]
	 Same-Spin Energy          =      -0.3859826717932306 [Eh]
	 Opposite-Spin Energy      =      -1.1786433658781719 [Eh]
	 Correlation Energy        =      -1.5646260376714025 [Eh]
	 Total Energy              =    -704.7493141201645130 [Eh]

	 ================> DF-SCS-MP2 Energies <==================
	-----------------------------------------------------------
	 SCS Same-Spin Scale       =       0.3333333333333333 [-]
	 SCS Opposite-Spin Scale   =       1.2000000000000000 [-]
	 SCS Same-Spin Energy      =      -0.1286608905977435 [Eh]
	 SCS Opposite-Spin Energy  =      -1.4143720390538062 [Eh]
	 SCS Correlation Energy    =      -1.5430329296515497 [Eh]
	 SCS Total Energy          =    -704.7277210121446842 [Eh]
	-----------------------------------------------------------

  Dipole Moment: [D]
     X:    -1.5948      Y:     2.9924      Z:    -0.1249     Total:     3.3932

*** Psi4 exiting successfully. Buy a developer a beer!
