                               Psi4 1.3.2 release

  ==> Input File <==

--------------------------------------------------------------------------
#psi4
#
memory 32 gb

molecule  {
0 1
  S       -0.9837490    -1.1570500    -0.0000620
  O        1.9818930    -1.3277110    -0.0003480
  C        0.1471630     0.1465200    -0.0000040
  C       -0.4985190     1.3749350     0.0002250
  C        1.5865110    -0.1585480    -0.0001750
  C       -1.9046620     1.2489520     0.0003500
  C        2.5479920     1.0088850    -0.0001140
  C       -2.3081880    -0.0718450     0.0002130
  H        0.0283220     2.3240690     0.0003010
  H       -2.5968940     2.0844950     0.0005320
  H        2.3937560     1.6342750    -0.8845650
  H        3.5659410     0.6177950    -0.0003540
  H        2.3940470     1.6339130     0.8846460
  H       -3.3221022    -0.4534537     0.0502580
units angstrom
no_reorient  #important for SAPT in psi4, default
symmetry c1  #important for SAPT in psi4, default
}

set PROPERTIES_ORIGIN ["COM"]
properties('MP2/aug-cc-pvtz', properties = ['dipole'])
--------------------------------------------------------------------------

    Molecular point group: c1
  Charge       = 0
  Multiplicity = 1
  Basis Set: AUG-CC-PVTZ
    Blend: AUG-CC-PVTZ
  Basis Set: (AUG-CC-PVTZ AUX)
    Blend: AUG-CC-PVTZ-JKFIT

    Orbital Energies [Eh]
    ---------------------

    Doubly Occupied:

       1A    -91.997682     2A    -20.546761     3A    -11.345374
       4A    -11.284644     5A    -11.274561     6A    -11.267352
       7A    -11.252880     8A    -11.241028     9A     -8.997465
      10A     -6.678299    11A     -6.677720    12A     -6.677075
      13A     -1.377776    14A     -1.187902    15A     -1.044200
      16A     -1.004165    17A     -0.983298    18A     -0.840501
      19A     -0.773039    20A     -0.727640    21A     -0.694138
      22A     -0.623869    23A     -0.618255    24A     -0.610309
      25A     -0.575920    26A     -0.558096    27A     -0.542017
      28A     -0.530650    29A     -0.494071    30A     -0.489297
      31A     -0.426331    32A     -0.360070    33A     -0.338271

  @DF-RHF Final Energy:  -703.20479813198256

   => Energetics <=

    Nuclear Repulsion Energy =            412.2524361555226164
    One-Electron Energy =               -1782.8331610214638658
    Two-Electron Energy =                 667.3759267339586359
    Total Energy =                       -703.2047981319825567
  Basis Set: (AUG-CC-PVTZ AUX)
    Blend: AUG-CC-PVTZ-RI
    Molecular point group: c1

    Geometry (in Angstrom), charge = 0, multiplicity = 1:

       Center              X                  Y                   Z               Mass
    ------------   -----------------  -----------------  -----------------  -----------------
         S           -0.964494174682    -1.095622897764    -0.000455664029    31.972071174400
         O            2.001147825318    -1.266283897764    -0.000741664029    15.994914619570
         C            0.166417825318     0.207947102236    -0.000397664029    12.000000000000
         C           -0.479264174682     1.436362102236    -0.000168664029    12.000000000000
         C            1.605765825318    -0.097120897764    -0.000568664029    12.000000000000
         C           -1.885407174682     1.310379102236    -0.000043664029    12.000000000000
         C            2.567246825318     1.070312102236    -0.000507664029    12.000000000000
         C           -2.288933174682    -0.010417897764    -0.000180664029    12.000000000000
         H            0.047576825318     2.385496102236    -0.000092664029     1.007825032230
         H           -2.577639174682     2.145922102236     0.000138335971     1.007825032230
         H            2.413010825318     1.695702102236    -0.884958664029     1.007825032230
         H            3.585195825318     0.679222102236    -0.000747664029     1.007825032230
         H            2.413301825318     1.695340102236     0.884252335971     1.007825032230
         H           -3.302847374682    -0.392026597764     0.049864335971     1.007825032230

  Basis Set: AUG-CC-PVTZ
    Blend: AUG-CC-PVTZ
  Basis Set: (AUG-CC-PVTZ AUX)
    Blend: AUG-CC-PVTZ-JKFIT
	 Reference Energy          =    -703.2047981319825567 [Eh]
	 Singles Energy            =      -0.0000000000000000 [Eh]
	 Same-Spin Energy          =      -0.3849317149596186 [Eh]
	 Opposite-Spin Energy      =      -1.1756338926942531 [Eh]
	 Correlation Energy        =      -1.5605656076538716 [Eh]
	 Total Energy              =    -704.7653637396364275 [Eh]

	 ================> DF-SCS-MP2 Energies <==================
	-----------------------------------------------------------
	 SCS Same-Spin Scale       =       0.3333333333333333 [-]
	 SCS Opposite-Spin Scale   =       1.2000000000000000 [-]
	 SCS Same-Spin Energy      =      -0.1283105716532062 [Eh]
	 SCS Opposite-Spin Energy  =      -1.4107606712331038 [Eh]
	 SCS Correlation Energy    =      -1.5390712428863100 [Eh]
	 SCS Total Energy          =    -704.7438693748688365 [Eh]
	-----------------------------------------------------------

  Dipole Moment: [D]
     X:    -1.6096      Y:     3.0495      Z:     0.0401     Total:     3.4485

*** Psi4 exiting successfully. Buy a developer a beer!
