                               Psi4 1.3.2 release

  ==> Input File <==

--------------------------------------------------------------------------
#psi4
#
memory 32 gb

molecule  {
0 1
  S       -0.9837490    -1.1570500    -0.0000620
  O        1.9818930    -1.3277110    -0.0003480
  C        0.1471630     0.1465200    -0.0000040
  C       -0.4985190     1.3749350     0.0002250
  C        1.5865110    -0.1585480    -0.0001750
  C       -1.9046620     1.2489520     0.0003500
  C        2.5479920     1.0088850    -0.0001140
  C       -2.3081880    -0.0718450     0.0002130
  H        0.0283220     2.3240690     0.0003010
  H       -2.5969091     2.0845152    -0.1494680
  H        2.3937560     1.6342750    -0.8845650
  H        3.5659410     0.6177950    -0.0003540
  H        2.3940470     1.6339130     0.8846460
  H       -3.3221070    -0.4534470     0.0002580
units angstrom
no_reorient  #important for SAPT in psi4, default
symmetry c1  #important for SAPT in psi4, default
}

set PROPERTIES_ORIGIN ["COM"]
properties('MP2/aug-cc-pvtz', properties = ['dipole'])
--------------------------------------------------------------------------

    Molecular point group: c1
  Charge       = 0
  Multiplicity = 1
  Basis Set: AUG-CC-PVTZ
    Blend: AUG-CC-PVTZ
  Basis Set: (AUG-CC-PVTZ AUX)
    Blend: AUG-CC-PVTZ-JKFIT

    Orbital Energies [Eh]
    ---------------------

    Doubly Occupied:

       1A    -91.997855     2A    -20.546822     3A    -11.345428
       4A    -11.284864     5A    -11.274612     6A    -11.267456
       7A    -11.253682     8A    -11.241066     9A     -8.997639
      10A     -6.678472    11A     -6.677893    12A     -6.677247
      13A     -1.377839    14A     -1.187995    15A     -1.044234
      16A     -1.003964    17A     -0.983358    18A     -0.840457
      19A     -0.772426    20A     -0.727329    21A     -0.693759
      22A     -0.623223    23A     -0.618034    24A     -0.610318
      25A     -0.576062    26A     -0.558081    27A     -0.542190
      28A     -0.530012    29A     -0.494236    30A     -0.488997
      31A     -0.426370    32A     -0.360051    33A     -0.338328

  @DF-RHF Final Energy:  -703.20358688195370

   => Energetics <=

    Nuclear Repulsion Energy =            412.2181437767684429
    One-Electron Energy =               -1782.7628577614916594
    Two-Electron Energy =                 667.3411271027696330
    Total Energy =                       -703.2035868819536972
  Basis Set: (AUG-CC-PVTZ AUX)
    Blend: AUG-CC-PVTZ-RI
    Molecular point group: c1

    Geometry (in Angstrom), charge = 0, multiplicity = 1:

       Center              X                  Y                   Z               Mass
    ------------   -----------------  -----------------  -----------------  -----------------
         S           -0.964494015527    -1.095623112903     0.001143881329    31.972071174400
         O            2.001147984473    -1.266284112903     0.000857881329    15.994914619570
         C            0.166417984473     0.207946887097     0.001201881329    12.000000000000
         C           -0.479264015527     1.436361887097     0.001430881329    12.000000000000
         C            1.605765984473    -0.097121112903     0.001030881329    12.000000000000
         C           -1.885407015527     1.310378887097     0.001555881329    12.000000000000
         C            2.567246984473     1.070311887097     0.001091881329    12.000000000000
         C           -2.288933015527    -0.010418112903     0.001418881329    12.000000000000
         H            0.047576984473     2.385495887097     0.001506881329     1.007825032230
         H           -2.577654115527     2.145942087097    -0.148262118671     1.007825032230
         H            2.413010984473     1.695701887097    -0.883359118671     1.007825032230
         H            3.585195984473     0.679221887097     0.000851881329     1.007825032230
         H            2.413301984473     1.695339887097     0.885851881329     1.007825032230
         H           -3.302852015527    -0.392020112903     0.001463881329     1.007825032230

  Basis Set: AUG-CC-PVTZ
    Blend: AUG-CC-PVTZ
  Basis Set: (AUG-CC-PVTZ AUX)
    Blend: AUG-CC-PVTZ-JKFIT
	 Reference Energy          =    -703.2035868819536972 [Eh]
	 Singles Energy            =      -0.0000000000000000 [Eh]
	 Same-Spin Energy          =      -0.3849822324366339 [Eh]
	 Opposite-Spin Energy      =      -1.1757428117143984 [Eh]
	 Correlation Energy        =      -1.5607250441510323 [Eh]
	 Total Energy              =    -704.7643119261047104 [Eh]

	 ================> DF-SCS-MP2 Energies <==================
	-----------------------------------------------------------
	 SCS Same-Spin Scale       =       0.3333333333333333 [-]
	 SCS Opposite-Spin Scale   =       1.2000000000000000 [-]
	 SCS Same-Spin Energy      =      -0.1283274108122113 [Eh]
	 SCS Opposite-Spin Energy  =      -1.4108913740572782 [Eh]
	 SCS Correlation Energy    =      -1.5392187848694894 [Eh]
	 SCS Total Energy          =    -704.7428056668231875 [Eh]
	-----------------------------------------------------------

  Dipole Moment: [D]
     X:    -1.5971      Y:     3.0334      Z:    -0.1148     Total:     3.4301

*** Psi4 exiting successfully. Buy a developer a beer!
