                               Psi4 1.3.2 release

  ==> Input File <==

--------------------------------------------------------------------------
#psi4
#
memory 32 gb

molecule  {
0 1
  S       -0.9837490    -1.1570500    -0.0000620
  O        1.9818930    -1.3277110    -0.0003480
  C        0.1471630     0.1465200    -0.0000040
  C       -0.4985190     1.3749350     0.0002250
  C        1.5864872    -0.1585151    -0.2501750
  C       -1.9046620     1.2489520     0.0003500
  C        2.5479920     1.0088850    -0.0001140
  C       -2.3081880    -0.0718450     0.0002130
  H        0.0283220     2.3240690     0.0003010
  H       -2.5968940     2.0844950     0.0005320
  H        2.3937560     1.6342750    -0.8845650
  H        3.5659410     0.6177950    -0.0003540
  H        2.3940470     1.6339130     0.8846460
  H       -3.3221070    -0.4534470     0.0002580
units angstrom
no_reorient  #important for SAPT in psi4, default
symmetry c1  #important for SAPT in psi4, default
}

set PROPERTIES_ORIGIN ["COM"]
properties('MP2/aug-cc-pvtz', properties = ['dipole'])
--------------------------------------------------------------------------

    Molecular point group: c1
  Charge       = 0
  Multiplicity = 1
  Basis Set: AUG-CC-PVTZ
    Blend: AUG-CC-PVTZ
  Basis Set: (AUG-CC-PVTZ AUX)
    Blend: AUG-CC-PVTZ-JKFIT

    Orbital Energies [Eh]
    ---------------------

    Doubly Occupied:

       1A    -91.996955     2A    -20.553238     3A    -11.353070
       4A    -11.284022     5A    -11.277337     6A    -11.266373
       7A    -11.252611     8A    -11.243522     9A     -8.996816
      10A     -6.677655    11A     -6.677064    12A     -6.676417
      13A     -1.366413    14A     -1.187048    15A     -1.039649
      16A     -1.003398    17A     -0.980887    18A     -0.836929
      19A     -0.772631    20A     -0.727594    21A     -0.692350
      22A     -0.622921    23A     -0.617518    24A     -0.600035
      25A     -0.574735    26A     -0.556195    27A     -0.543375
      28A     -0.526323    29A     -0.489452    30A     -0.487143
      31A     -0.423528    32A     -0.359801    33A     -0.335920

  @DF-RHF Final Energy:  -703.17329668059256

   => Energetics <=

    Nuclear Repulsion Energy =            411.3393968535247609
    One-Electron Energy =               -1781.0275359131958339
    Two-Electron Energy =                 666.5148423790785728
    Total Energy =                       -703.1732966805925571
  Basis Set: (AUG-CC-PVTZ AUX)
    Blend: AUG-CC-PVTZ-RI
    Molecular point group: c1

    Geometry (in Angstrom), charge = 0, multiplicity = 1:

       Center              X                  Y                   Z               Mass
    ------------   -----------------  -----------------  -----------------  -----------------
         S           -0.964491869877    -1.095626084336     0.023751113005    31.972071174400
         O            2.001150130123    -1.266287084336     0.023465113005    15.994914619570
         C            0.166420130123     0.207943915664     0.023809113005    12.000000000000
         C           -0.479261869877     1.436358915664     0.024038113005    12.000000000000
         C            1.605744330123    -0.097091184336    -0.226361886995    12.000000000000
         C           -1.885404869877     1.310375915664     0.024163113005    12.000000000000
         C            2.567249130123     1.070308915664     0.023699113005    12.000000000000
         C           -2.288930869877    -0.010421084336     0.024026113005    12.000000000000
         H            0.047579130123     2.385492915664     0.024114113005     1.007825032230
         H           -2.577636869877     2.145918915664     0.024345113005     1.007825032230
         H            2.413013130123     1.695698915664    -0.860751886995     1.007825032230
         H            3.585198130123     0.679218915664     0.023459113005     1.007825032230
         H            2.413304130123     1.695336915664     0.908459113005     1.007825032230
         H           -3.302849869877    -0.392023084336     0.024071113005     1.007825032230

  Basis Set: AUG-CC-PVTZ
    Blend: AUG-CC-PVTZ
  Basis Set: (AUG-CC-PVTZ AUX)
    Blend: AUG-CC-PVTZ-JKFIT
	 Reference Energy          =    -703.1732966805925571 [Eh]
	 Singles Energy            =      -0.0000000000000000 [Eh]
	 Same-Spin Energy          =      -0.3865835301269841 [Eh]
	 Opposite-Spin Energy      =      -1.1804122039641833 [Eh]
	 Correlation Energy        =      -1.5669957340911673 [Eh]
	 Total Energy              =    -704.7402924146837222 [Eh]

	 ================> DF-SCS-MP2 Energies <==================
	-----------------------------------------------------------
	 SCS Same-Spin Scale       =       0.3333333333333333 [-]
	 SCS Opposite-Spin Scale   =       1.2000000000000000 [-]
	 SCS Same-Spin Energy      =      -0.1288611767089947 [Eh]
	 SCS Opposite-Spin Energy  =      -1.4164946447570199 [Eh]
	 SCS Correlation Energy    =      -1.5453558214660146 [Eh]
	 SCS Total Energy          =    -704.7186525020586032 [Eh]
	-----------------------------------------------------------

  Dipole Moment: [D]
     X:    -1.5848      Y:     2.9608      Z:    -0.1531     Total:     3.3618

*** Psi4 exiting successfully. Buy a developer a beer!
