                               Psi4 1.3.2 release

  ==> Input File <==

--------------------------------------------------------------------------
#psi4
#
memory 32 gb

molecule  {
0 1
  S       -0.9837490    -1.1570500    -0.0000620
  O        1.9818930    -1.3277110    -0.0003480
  C        0.1471630     0.1465200    -0.0000040
  C       -0.4985190     1.3749350     0.0002250
  C        1.5865110    -0.1585480    -0.0001750
  C       -1.9046620     1.2489520     0.0003500
  C        2.5479696     1.0089155    -0.2501140
  C       -2.3081880    -0.0718450     0.0002130
  H        0.0283220     2.3240690     0.0003010
  H       -2.5968940     2.0844950     0.0005320
  H        2.3937560     1.6342750    -0.8845650
  H        3.5659410     0.6177950    -0.0003540
  H        2.3940470     1.6339130     0.8846460
  H       -3.3221070    -0.4534470     0.0002580
units angstrom
no_reorient  #important for SAPT in psi4, default
symmetry c1  #important for SAPT in psi4, default
}

set PROPERTIES_ORIGIN ["COM"]
properties('MP2/aug-cc-pvtz', properties = ['dipole'])
--------------------------------------------------------------------------

    Molecular point group: c1
  Charge       = 0
  Multiplicity = 1
  Basis Set: AUG-CC-PVTZ
    Blend: AUG-CC-PVTZ
  Basis Set: (AUG-CC-PVTZ AUX)
    Blend: AUG-CC-PVTZ-JKFIT

    Orbital Energies [Eh]
    ---------------------

    Doubly Occupied:

       1A    -91.998045     2A    -20.548291     3A    -11.350859
       4A    -11.284679     5A    -11.275300     6A    -11.267277
       7A    -11.252979     8A    -11.249870     9A     -8.997822
      10A     -6.678656    11A     -6.678080    12A     -6.677430
      13A     -1.379208    14A     -1.188129    15A     -1.045515
      16A     -1.004421    17A     -0.986579    18A     -0.844342
      19A     -0.773433    20A     -0.730818    21A     -0.713829
      22A     -0.646640    23A     -0.616820    24A     -0.601756
      25A     -0.576051    26A     -0.563132    27A     -0.532161
      28A     -0.516655    29A     -0.489844    30A     -0.476631
      31A     -0.424963    32A     -0.360138    33A     -0.338403

  @DF-RHF Final Energy:  -703.14052432966741

   => Energetics <=

    Nuclear Repulsion Energy =            412.0046701706964996
    One-Electron Energy =               -1782.1528755521178482
    Two-Electron Energy =                 667.0076810517539343
    Total Energy =                       -703.1405243296674143
  Basis Set: (AUG-CC-PVTZ AUX)
    Blend: AUG-CC-PVTZ-RI
    Molecular point group: c1

    Geometry (in Angstrom), charge = 0, multiplicity = 1:

       Center              X                  Y                   Z               Mass
    ------------   -----------------  -----------------  -----------------  -----------------
         S           -0.964492003196    -1.095625855790     0.023751113005    31.972071174400
         O            2.001149996804    -1.266286855790     0.023465113005    15.994914619570
         C            0.166419996804     0.207944144210     0.023809113005    12.000000000000
         C           -0.479262003196     1.436359144210     0.024038113005    12.000000000000
         C            1.605767996804    -0.097123855790     0.023638113005    12.000000000000
         C           -1.885405003196     1.310376144210     0.024163113005    12.000000000000
         C            2.567226596804     1.070339644210    -0.226300886995    12.000000000000
         C           -2.288931003196    -0.010420855790     0.024026113005    12.000000000000
         H            0.047578996804     2.385493144210     0.024114113005     1.007825032230
         H           -2.577637003196     2.145919144210     0.024345113005     1.007825032230
         H            2.413012996804     1.695699144210    -0.860751886995     1.007825032230
         H            3.585197996804     0.679219144210     0.023459113005     1.007825032230
         H            2.413303996804     1.695337144210     0.908459113005     1.007825032230
         H           -3.302850003196    -0.392022855790     0.024071113005     1.007825032230

  Basis Set: AUG-CC-PVTZ
    Blend: AUG-CC-PVTZ
  Basis Set: (AUG-CC-PVTZ AUX)
    Blend: AUG-CC-PVTZ-JKFIT
	 Reference Energy          =    -703.1405243296674143 [Eh]
	 Singles Energy            =      -0.0000000000000000 [Eh]
	 Same-Spin Energy          =      -0.3857675598528830 [Eh]
	 Opposite-Spin Energy      =      -1.1784515346332032 [Eh]
	 Correlation Energy        =      -1.5642190944860861 [Eh]
	 Total Energy              =    -704.7047434241535484 [Eh]

	 ================> DF-SCS-MP2 Energies <==================
	-----------------------------------------------------------
	 SCS Same-Spin Scale       =       0.3333333333333333 [-]
	 SCS Opposite-Spin Scale   =       1.2000000000000000 [-]
	 SCS Same-Spin Energy      =      -0.1285891866176276 [Eh]
	 SCS Opposite-Spin Energy  =      -1.4141418415598437 [Eh]
	 SCS Correlation Energy    =      -1.5427310281774713 [Eh]
	 SCS Total Energy          =    -704.6832553578449279 [Eh]
	-----------------------------------------------------------

  Dipole Moment: [D]
     X:    -1.6261      Y:     2.9893      Z:    -0.0575     Total:     3.4034

*** Psi4 exiting successfully. Buy a developer a beer!
