                               Psi4 1.3.2 release

  ==> Input File <==

--------------------------------------------------------------------------
#psi4
#
memory 32 gb

molecule  {
0 1
  S       -0.9837490    -1.1570500    -0.0000620
  O        1.9818930    -1.3277110    -0.0003480
  C        0.1471630     0.1465200    -0.0000040
  C       -0.4985190     1.3749350     0.0002250
  C        1.5865062    -0.1585414    -0.0501750
  C       -1.9046620     1.2489520     0.0003500
  C        2.5479920     1.0088850    -0.0001140
  C       -2.3081880    -0.0718450     0.0002130
  H        0.0283220     2.3240690     0.0003010
  H       -2.5968940     2.0844950     0.0005320
  H        2.3937560     1.6342750    -0.8845650
  H        3.5659410     0.6177950    -0.0003540
  H        2.3940470     1.6339130     0.8846460
  H       -3.3221070    -0.4534470     0.0002580
units angstrom
no_reorient  #important for SAPT in psi4, default
symmetry c1  #important for SAPT in psi4, default
}

set PROPERTIES_ORIGIN ["COM"]
properties('MP2/aug-cc-pvtz', properties = ['dipole'])
--------------------------------------------------------------------------

    Molecular point group: c1
  Charge       = 0
  Multiplicity = 1
  Basis Set: AUG-CC-PVTZ
    Blend: AUG-CC-PVTZ
  Basis Set: (AUG-CC-PVTZ AUX)
    Blend: AUG-CC-PVTZ-JKFIT

    Orbital Energies [Eh]
    ---------------------

    Doubly Occupied:

       1A    -91.997654     2A    -20.546999     3A    -11.345691
       4A    -11.284545     5A    -11.274653     6A    -11.267307
       7A    -11.252843     8A    -11.241122     9A     -8.997441
      10A     -6.678275    11A     -6.677696    12A     -6.677050
      13A     -1.377287    14A     -1.187863    15A     -1.044014
      16A     -1.004127    17A     -0.983224    18A     -0.840376
      19A     -0.773167    20A     -0.727648    21A     -0.694086
      22A     -0.623832    23A     -0.618368    24A     -0.609776
      25A     -0.575922    26A     -0.558015    27A     -0.542064
      28A     -0.530551    29A     -0.493815    30A     -0.489275
      31A     -0.426199    32A     -0.360056    33A     -0.338174

  @DF-RHF Final Energy:  -703.20367071672297

   => Energetics <=

    Nuclear Repulsion Energy =            412.2194663127620515
    One-Electron Energy =               -1782.7680478930715253
    Two-Electron Energy =                 667.3449108635865059
    Total Energy =                       -703.2036707167229679
  Basis Set: (AUG-CC-PVTZ AUX)
    Blend: AUG-CC-PVTZ-RI
    Molecular point group: c1

    Geometry (in Angstrom), charge = 0, multiplicity = 1:

       Center              X                  Y                   Z               Mass
    ------------   -----------------  -----------------  -----------------  -----------------
         S           -0.964493679201    -1.095623579851     0.004705600449    31.972071174400
         O            2.001148320799    -1.266284579851     0.004419600449    15.994914619570
         C            0.166418320799     0.207946420149     0.004763600449    12.000000000000
         C           -0.479263679201     1.436361420149     0.004992600449    12.000000000000
         C            1.605761520799    -0.097114979851    -0.045407399551    12.000000000000
         C           -1.885406679201     1.310378420149     0.005117600449    12.000000000000
         C            2.567247320799     1.070311420149     0.004653600449    12.000000000000
         C           -2.288932679201    -0.010418579851     0.004980600449    12.000000000000
         H            0.047577320799     2.385495420149     0.005068600449     1.007825032230
         H           -2.577638679201     2.145921420149     0.005299600449     1.007825032230
         H            2.413011320799     1.695701420149    -0.879797399551     1.007825032230
         H            3.585196320799     0.679221420149     0.004413600449     1.007825032230
         H            2.413302320799     1.695339420149     0.889413600449     1.007825032230
         H           -3.302851679201    -0.392020579851     0.005025600449     1.007825032230

  Basis Set: AUG-CC-PVTZ
    Blend: AUG-CC-PVTZ
  Basis Set: (AUG-CC-PVTZ AUX)
    Blend: AUG-CC-PVTZ-JKFIT
	 Reference Energy          =    -703.2036707167229679 [Eh]
	 Singles Energy            =      -0.0000000000000000 [Eh]
	 Same-Spin Energy          =      -0.3849865067158909 [Eh]
	 Opposite-Spin Energy      =      -1.1757908741149681 [Eh]
	 Correlation Energy        =      -1.5607773808308589 [Eh]
	 Total Energy              =    -704.7644480975537817 [Eh]

	 ================> DF-SCS-MP2 Energies <==================
	-----------------------------------------------------------
	 SCS Same-Spin Scale       =       0.3333333333333333 [-]
	 SCS Opposite-Spin Scale   =       1.2000000000000000 [-]
	 SCS Same-Spin Energy      =      -0.1283288355719636 [Eh]
	 SCS Opposite-Spin Energy  =      -1.4109490489379617 [Eh]
	 SCS Correlation Energy    =      -1.5392778845099253 [Eh]
	 SCS Total Energy          =    -704.7429486012329107 [Eh]
	-----------------------------------------------------------

  Dipole Moment: [D]
     X:    -1.6106      Y:     3.0452      Z:    -0.0319     Total:     3.4451

*** Psi4 exiting successfully. Buy a developer a beer!
