                               Psi4 1.3.2 release

  ==> Input File <==

--------------------------------------------------------------------------
#psi4
#
memory 32 gb

molecule  {
0 1
  S       -0.9837490    -1.1570500    -0.0000620
  O        1.9818930    -1.3277110    -0.0003480
  C        0.1471630     0.1465200    -0.0000040
  C       -0.4985190     1.3749350     0.0002250
  C        1.5865110    -0.1585480    -0.0001750
  C       -1.9046620     1.2489520     0.0003500
  C        2.5479651     1.0089216    -0.3001140
  C       -2.3081880    -0.0718450     0.0002130
  H        0.0283220     2.3240690     0.0003010
  H       -2.5968940     2.0844950     0.0005320
  H        2.3937560     1.6342750    -0.8845650
  H        3.5659410     0.6177950    -0.0003540
  H        2.3940470     1.6339130     0.8846460
  H       -3.3221070    -0.4534470     0.0002580
units angstrom
no_reorient  #important for SAPT in psi4, default
symmetry c1  #important for SAPT in psi4, default
}

set PROPERTIES_ORIGIN ["COM"]
properties('MP2/aug-cc-pvtz', properties = ['dipole'])
--------------------------------------------------------------------------

    Molecular point group: c1
  Charge       = 0
  Multiplicity = 1
  Basis Set: AUG-CC-PVTZ
    Blend: AUG-CC-PVTZ
  Basis Set: (AUG-CC-PVTZ AUX)
    Blend: AUG-CC-PVTZ-JKFIT

    Orbital Energies [Eh]
    ---------------------

    Doubly Occupied:

       1A    -91.998206     2A    -20.548955     3A    -11.353185
       4A    -11.284732     5A    -11.275637     6A    -11.267260
       7A    -11.253716     8A    -11.253043     9A     -8.997982
      10A     -6.678815    11A     -6.678241    12A     -6.677588
      13A     -1.379820    14A     -1.188236    15A     -1.046241
      16A     -1.004552    17A     -0.988179    18A     -0.846205
      19A     -0.773575    20A     -0.734429    21A     -0.718672
      22A     -0.649589    23A     -0.615477    24A     -0.600805
      25A     -0.576102    26A     -0.563756    27A     -0.531602
      28A     -0.514138    29A     -0.489945    30A     -0.468611
      31A     -0.424170    32A     -0.360174    33A     -0.338453

  @DF-RHF Final Energy:  -703.11135644065871

   => Energetics <=

    Nuclear Repulsion Energy =            411.8954832083134647
    One-Electron Energy =               -1781.8534978212192073
    Two-Electron Energy =                 666.8466581722470892
    Total Energy =                       -703.1113564406587102
  Basis Set: (AUG-CC-PVTZ AUX)
    Blend: AUG-CC-PVTZ-RI
    Molecular point group: c1

    Geometry (in Angstrom), charge = 0, multiplicity = 1:

       Center              X                  Y                   Z               Mass
    ------------   -----------------  -----------------  -----------------  -----------------
         S           -0.964491574672    -1.095626436678     0.028512491143    31.972071174400
         O            2.001150425328    -1.266287436678     0.028226491143    15.994914619570
         C            0.166420425328     0.207943563322     0.028570491143    12.000000000000
         C           -0.479261574672     1.436358563322     0.028799491143    12.000000000000
         C            1.605768425328    -0.097124436678     0.028399491143    12.000000000000
         C           -1.885404574672     1.310375563322     0.028924491143    12.000000000000
         C            2.567222525328     1.070345163322    -0.271539508857    12.000000000000
         C           -2.288930574672    -0.010421436678     0.028787491143    12.000000000000
         H            0.047579425328     2.385492563322     0.028875491143     1.007825032230
         H           -2.577636574672     2.145918563322     0.029106491143     1.007825032230
         H            2.413013425328     1.695698563322    -0.855990508857     1.007825032230
         H            3.585198425328     0.679218563322     0.028220491143     1.007825032230
         H            2.413304425328     1.695336563322     0.913220491143     1.007825032230
         H           -3.302849574672    -0.392023436678     0.028832491143     1.007825032230

  Basis Set: AUG-CC-PVTZ
    Blend: AUG-CC-PVTZ
  Basis Set: (AUG-CC-PVTZ AUX)
    Blend: AUG-CC-PVTZ-JKFIT
	 Reference Energy          =    -703.1113564406587102 [Eh]
	 Singles Energy            =      -0.0000000000000000 [Eh]
	 Same-Spin Energy          =      -0.3861515611454918 [Eh]
	 Opposite-Spin Energy      =      -1.1797640670747598 [Eh]
	 Correlation Energy        =      -1.5659156282202515 [Eh]
	 Total Energy              =    -704.6772720688790059 [Eh]

	 ================> DF-SCS-MP2 Energies <==================
	-----------------------------------------------------------
	 SCS Same-Spin Scale       =       0.3333333333333333 [-]
	 SCS Opposite-Spin Scale   =       1.2000000000000000 [-]
	 SCS Same-Spin Energy      =      -0.1287171870484972 [Eh]
	 SCS Opposite-Spin Energy  =      -1.4157168804897118 [Eh]
	 SCS Correlation Energy    =      -1.5444340675382091 [Eh]
	 SCS Total Energy          =    -704.6557905081969011 [Eh]
	-----------------------------------------------------------

  Dipole Moment: [D]
     X:    -1.6344      Y:     2.9666      Z:    -0.0621     Total:     3.3876

*** Psi4 exiting successfully. Buy a developer a beer!
