                               Psi4 1.3.2 release

  ==> Input File <==

--------------------------------------------------------------------------
#psi4
#
memory 32 gb

molecule  {
0 1
  S       -0.9837490    -1.1570500    -0.0000620
  O        1.9818930    -1.3277110    -0.0003480
  C        0.1471630     0.1465200    -0.0000040
  C       -0.4985190     1.3749350     0.0002250
  C        1.5865110    -0.1585480    -0.0001750
  C       -1.9046620     1.2489520     0.0003500
  C        2.5479920     1.0088850    -0.0001140
  C       -2.3081880    -0.0718450     0.0002130
  H        0.0282969     2.3241026    -0.2496990
  H       -2.5968940     2.0844950     0.0005320
  H        2.3937560     1.6342750    -0.8845650
  H        3.5659410     0.6177950    -0.0003540
  H        2.3940470     1.6339130     0.8846460
  H       -3.3221070    -0.4534470     0.0002580
units angstrom
no_reorient  #important for SAPT in psi4, default
symmetry c1  #important for SAPT in psi4, default
}

set PROPERTIES_ORIGIN ["COM"]
properties('MP2/aug-cc-pvtz', properties = ['dipole'])
--------------------------------------------------------------------------

    Molecular point group: c1
  Charge       = 0
  Multiplicity = 1
  Basis Set: AUG-CC-PVTZ
    Blend: AUG-CC-PVTZ
  Basis Set: (AUG-CC-PVTZ AUX)
    Blend: AUG-CC-PVTZ-JKFIT

    Orbital Energies [Eh]
    ---------------------

    Doubly Occupied:

       1A    -91.998162     2A    -20.547049     3A    -11.345535
       4A    -11.284626     5A    -11.275316     6A    -11.269588
       7A    -11.253142     8A    -11.240896     9A     -8.997939
      10A     -6.678768    11A     -6.678191    12A     -6.677546
      13A     -1.378019    14A     -1.188074    15A     -1.044163
      16A     -1.003683    17A     -0.983034    18A     -0.840251
      19A     -0.772343    20A     -0.723349    21A     -0.693953
      22A     -0.623915    23A     -0.618460    24A     -0.610459
      25A     -0.573774    26A     -0.557894    27A     -0.540932
      28A     -0.530300    29A     -0.494539    30A     -0.488508
      31A     -0.426553    32A     -0.359893    33A     -0.338454

  @DF-RHF Final Energy:  -703.20087434712411

   => Energetics <=

    Nuclear Repulsion Energy =            412.1429891936655281
    One-Electron Energy =               -1782.6131145507254132
    Two-Electron Energy =                 667.2692510099358287
    Total Energy =                       -703.2008743471241132
  Basis Set: (AUG-CC-PVTZ AUX)
    Blend: AUG-CC-PVTZ-RI
    Molecular point group: c1

    Geometry (in Angstrom), charge = 0, multiplicity = 1:

       Center              X                  Y                   Z               Mass
    ------------   -----------------  -----------------  -----------------  -----------------
         S           -0.964493935550    -1.095623220073     0.001943654009    31.972071174400
         O            2.001148064450    -1.266284220073     0.001657654009    15.994914619570
         C            0.166418064450     0.207946779927     0.002001654009    12.000000000000
         C           -0.479263935550     1.436361779927     0.002230654009    12.000000000000
         C            1.605766064450    -0.097121220073     0.001830654009    12.000000000000
         C           -1.885406935550     1.310378779927     0.002355654009    12.000000000000
         C            2.567247064450     1.070311779927     0.001891654009    12.000000000000
         C           -2.288932935550    -0.010418220073     0.002218654009    12.000000000000
         H            0.047551964450     2.385529379927    -0.247693345991     1.007825032230
         H           -2.577638935550     2.145921779927     0.002537654009     1.007825032230
         H            2.413011064450     1.695701779927    -0.882559345991     1.007825032230
         H            3.585196064450     0.679221779927     0.001651654009     1.007825032230
         H            2.413302064450     1.695339779927     0.886651654009     1.007825032230
         H           -3.302851935550    -0.392020220073     0.002263654009     1.007825032230

  Basis Set: AUG-CC-PVTZ
    Blend: AUG-CC-PVTZ
  Basis Set: (AUG-CC-PVTZ AUX)
    Blend: AUG-CC-PVTZ-JKFIT
	 Reference Energy          =    -703.2008743471241132 [Eh]
	 Singles Energy            =      -0.0000000000000000 [Eh]
	 Same-Spin Energy          =      -0.3851859245529156 [Eh]
	 Opposite-Spin Energy      =      -1.1761293847912211 [Eh]
	 Correlation Energy        =      -1.5613153093441365 [Eh]
	 Total Energy              =    -704.7621896564681947 [Eh]

	 ================> DF-SCS-MP2 Energies <==================
	-----------------------------------------------------------
	 SCS Same-Spin Scale       =       0.3333333333333333 [-]
	 SCS Opposite-Spin Scale   =       1.2000000000000000 [-]
	 SCS Same-Spin Energy      =      -0.1283953081843052 [Eh]
	 SCS Opposite-Spin Energy  =      -1.4113552617494654 [Eh]
	 SCS Correlation Energy    =      -1.5397505699337706 [Eh]
	 SCS Total Energy          =    -704.7406249170578576 [Eh]
	-----------------------------------------------------------

  Dipole Moment: [D]
     X:    -1.6340      Y:     3.0070      Z:    -0.1854     Total:     3.4273

*** Psi4 exiting successfully. Buy a developer a beer!
