                               Psi4 1.3.2 release

  ==> Input File <==

--------------------------------------------------------------------------
#psi4
#
memory 32 gb

molecule  {
0 1
  S       -0.9837490    -1.1570500    -0.0000620
  O        1.9818930    -1.3277110    -0.0003480
  C        0.1471630     0.1465200    -0.0000040
  C       -0.4985190     1.3749350     0.0002250
  C        1.5865110    -0.1585480    -0.0001750
  C       -1.9046620     1.2489520     0.0003500
  C        2.5479920     1.0088850    -0.0001140
  C       -2.3081880    -0.0718450     0.0002130
  H        0.0282919     2.3241094    -0.2996990
  H       -2.5968940     2.0844950     0.0005320
  H        2.3937560     1.6342750    -0.8845650
  H        3.5659410     0.6177950    -0.0003540
  H        2.3940470     1.6339130     0.8846460
  H       -3.3221070    -0.4534470     0.0002580
units angstrom
no_reorient  #important for SAPT in psi4, default
symmetry c1  #important for SAPT in psi4, default
}

set PROPERTIES_ORIGIN ["COM"]
properties('MP2/aug-cc-pvtz', properties = ['dipole'])
--------------------------------------------------------------------------

    Molecular point group: c1
  Charge       = 0
  Multiplicity = 1
  Basis Set: AUG-CC-PVTZ
    Blend: AUG-CC-PVTZ
  Basis Set: (AUG-CC-PVTZ AUX)
    Blend: AUG-CC-PVTZ-JKFIT

    Orbital Energies [Eh]
    ---------------------

    Doubly Occupied:

       1A    -91.998370     2A    -20.547181     3A    -11.345611
       4A    -11.284657     5A    -11.275658     6A    -11.270542
       7A    -11.253273     8A    -11.240842     9A     -8.998145
      10A     -6.678972    11A     -6.678395    12A     -6.677750
      13A     -1.378130    14A     -1.188155    15A     -1.044154
      16A     -1.003508    17A     -0.982915    18A     -0.840157
      19A     -0.772056    20A     -0.721584    21A     -0.693841
      22A     -0.623940    23A     -0.618524    24A     -0.610518
      25A     -0.572877    26A     -0.557786    27A     -0.540507
      28A     -0.530041    29A     -0.494717    30A     -0.488164
      31A     -0.426654    32A     -0.359827    33A     -0.338537

  @DF-RHF Final Energy:  -703.19889217918137

   => Energetics <=

    Nuclear Repulsion Energy =            412.0947643400570541
    One-Electron Energy =               -1782.5153343022798254
    Two-Electron Energy =                 667.2216777830414003
    Total Energy =                       -703.1988921791813709
  Basis Set: (AUG-CC-PVTZ AUX)
    Blend: AUG-CC-PVTZ-RI
    Molecular point group: c1

    Geometry (in Angstrom), charge = 0, multiplicity = 1:

       Center              X                  Y                   Z               Mass
    ------------   -----------------  -----------------  -----------------  -----------------
         S           -0.964493895561    -1.095623274457     0.002343540349    31.972071174400
         O            2.001148104439    -1.266284274457     0.002057540349    15.994914619570
         C            0.166418104439     0.207946725543     0.002401540349    12.000000000000
         C           -0.479263895561     1.436361725543     0.002630540349    12.000000000000
         C            1.605766104439    -0.097121274457     0.002230540349    12.000000000000
         C           -1.885406895561     1.310378725543     0.002755540349    12.000000000000
         C            2.567247104439     1.070311725543     0.002291540349    12.000000000000
         C           -2.288932895561    -0.010418274457     0.002618540349    12.000000000000
         H            0.047547004439     2.385536125543    -0.297293459651     1.007825032230
         H           -2.577638895561     2.145921725543     0.002937540349     1.007825032230
         H            2.413011104439     1.695701725543    -0.882159459651     1.007825032230
         H            3.585196104439     0.679221725543     0.002051540349     1.007825032230
         H            2.413302104439     1.695339725543     0.887051540349     1.007825032230
         H           -3.302851895561    -0.392020274457     0.002663540349     1.007825032230

  Basis Set: AUG-CC-PVTZ
    Blend: AUG-CC-PVTZ
  Basis Set: (AUG-CC-PVTZ AUX)
    Blend: AUG-CC-PVTZ-JKFIT
	 Reference Energy          =    -703.1988921791813709 [Eh]
	 Singles Energy            =      -0.0000000000000000 [Eh]
	 Same-Spin Energy          =      -0.3852985866335069 [Eh]
	 Opposite-Spin Energy      =      -1.1763739842660161 [Eh]
	 Correlation Energy        =      -1.5616725708995229 [Eh]
	 Total Energy              =    -704.7605647500809027 [Eh]

	 ================> DF-SCS-MP2 Energies <==================
	-----------------------------------------------------------
	 SCS Same-Spin Scale       =       0.3333333333333333 [-]
	 SCS Opposite-Spin Scale   =       1.2000000000000000 [-]
	 SCS Same-Spin Energy      =      -0.1284328622111690 [Eh]
	 SCS Opposite-Spin Energy  =      -1.4116487811192193 [Eh]
	 SCS Correlation Energy    =      -1.5400816433303883 [Eh]
	 SCS Total Energy          =    -704.7389738225117526 [Eh]
	-----------------------------------------------------------

  Dipole Moment: [D]
     X:    -1.6436      Y:     2.9892      Z:    -0.2211     Total:     3.4184

*** Psi4 exiting successfully. Buy a developer a beer!
