                               Psi4 1.3.2 release

  ==> Input File <==

--------------------------------------------------------------------------
#psi4
#
memory 32 gb

molecule  {
0 1
  S       -0.9837490    -1.1570500    -0.0000620
  O        1.9818930    -1.3277110    -0.0003480
  C        0.1471630     0.1465200    -0.0000040
  C       -0.4985190     1.3749350     0.0002250
  C        1.5865110    -0.1585480    -0.0001750
  C       -1.9046620     1.2489520     0.0003500
  C        2.5479920     1.0088850    -0.0001140
  C       -2.3081880    -0.0718450     0.0002130
  H        0.0283220     2.3240690     0.0003010
  H       -2.5969243     2.0845353    -0.2994680
  H        2.3937560     1.6342750    -0.8845650
  H        3.5659410     0.6177950    -0.0003540
  H        2.3940470     1.6339130     0.8846460
  H       -3.3221070    -0.4534470     0.0002580
units angstrom
no_reorient  #important for SAPT in psi4, default
symmetry c1  #important for SAPT in psi4, default
}

set PROPERTIES_ORIGIN ["COM"]
properties('MP2/aug-cc-pvtz', properties = ['dipole'])
--------------------------------------------------------------------------

    Molecular point group: c1
  Charge       = 0
  Multiplicity = 1
  Basis Set: AUG-CC-PVTZ
    Blend: AUG-CC-PVTZ
  Basis Set: (AUG-CC-PVTZ AUX)
    Blend: AUG-CC-PVTZ-JKFIT

    Orbital Energies [Eh]
    ---------------------

    Doubly Occupied:

       1A    -91.998366     2A    -20.547063     3A    -11.345635
       4A    -11.285745     5A    -11.274855     6A    -11.267798
       7A    -11.256106     8A    -11.241213     9A     -8.998155
      10A     -6.678983    11A     -6.678404    12A     -6.677759
      13A     -1.378074    14A     -1.188298    15A     -1.044350
      16A     -1.003463    17A     -0.983470    18A     -0.840323
      19A     -0.770470    20A     -0.726462    21A     -0.692618
      22A     -0.622015    23A     -0.616641    24A     -0.610320
      25A     -0.576357    26A     -0.558008    27A     -0.542744
      28A     -0.527856    29A     -0.494661    30A     -0.488082
      31A     -0.426528    32A     -0.360028    33A     -0.338503

  @DF-RHF Final Energy:  -703.19902427402133

   => Energetics <=

    Nuclear Repulsion Energy =            412.1064518609453557
    One-Electron Energy =               -1782.5322460261395463
    Two-Electron Energy =                 667.2267698911729212
    Total Energy =                       -703.1990242740213262
  Basis Set: (AUG-CC-PVTZ AUX)
    Blend: AUG-CC-PVTZ-RI
    Molecular point group: c1

    Geometry (in Angstrom), charge = 0, multiplicity = 1:

       Center              X                  Y                   Z               Mass
    ------------   -----------------  -----------------  -----------------  -----------------
         S           -0.964493893962    -1.095623273658     0.002343540349    31.972071174400
         O            2.001148106038    -1.266284273658     0.002057540349    15.994914619570
         C            0.166418106038     0.207946726342     0.002401540349    12.000000000000
         C           -0.479263893962     1.436361726342     0.002630540349    12.000000000000
         C            1.605766106038    -0.097121273658     0.002230540349    12.000000000000
         C           -1.885406893962     1.310378726342     0.002755540349    12.000000000000
         C            2.567247106038     1.070311726342     0.002291540349    12.000000000000
         C           -2.288932893962    -0.010418273658     0.002618540349    12.000000000000
         H            0.047577106038     2.385495726342     0.002706540349     1.007825032230
         H           -2.577669193962     2.145962026342    -0.297062459651     1.007825032230
         H            2.413011106038     1.695701726342    -0.882159459651     1.007825032230
         H            3.585196106038     0.679221726342     0.002051540349     1.007825032230
         H            2.413302106038     1.695339726342     0.887051540349     1.007825032230
         H           -3.302851893962    -0.392020273658     0.002663540349     1.007825032230

  Basis Set: AUG-CC-PVTZ
    Blend: AUG-CC-PVTZ
  Basis Set: (AUG-CC-PVTZ AUX)
    Blend: AUG-CC-PVTZ-JKFIT
	 Reference Energy          =    -703.1990242740213262 [Eh]
	 Singles Energy            =      -0.0000000000000000 [Eh]
	 Same-Spin Energy          =      -0.3851620157269722 [Eh]
	 Opposite-Spin Energy      =      -1.1762012544104943 [Eh]
	 Correlation Energy        =      -1.5613632701374665 [Eh]
	 Total Energy              =    -704.7603875441587888 [Eh]

	 ================> DF-SCS-MP2 Energies <==================
	-----------------------------------------------------------
	 SCS Same-Spin Scale       =       0.3333333333333333 [-]
	 SCS Opposite-Spin Scale   =       1.2000000000000000 [-]
	 SCS Same-Spin Energy      =      -0.1283873385756574 [Eh]
	 SCS Opposite-Spin Energy  =      -1.4114415052925930 [Eh]
	 SCS Correlation Energy    =      -1.5398288438682504 [Eh]
	 SCS Total Energy          =    -704.7388531178895619 [Eh]
	-----------------------------------------------------------

  Dipole Moment: [D]
     X:    -1.5546      Y:     2.9888      Z:    -0.2264     Total:     3.3765

*** Psi4 exiting successfully. Buy a developer a beer!
