                               Psi4 1.3.2 release

  ==> Input File <==

--------------------------------------------------------------------------
#psi4
#
memory 32 gb

molecule  {
0 1
  S       -0.9837490    -1.1570500    -0.0000620
  O        1.9818930    -1.3277110    -0.0003480
  C        0.1471630     0.1465200    -0.0000040
  C       -0.4985190     1.3749350     0.0002250
  C        1.5864825    -0.1585085    -0.3001750
  C       -1.9046620     1.2489520     0.0003500
  C        2.5479920     1.0088850    -0.0001140
  C       -2.3081880    -0.0718450     0.0002130
  H        0.0283220     2.3240690     0.0003010
  H       -2.5968940     2.0844950     0.0005320
  H        2.3937560     1.6342750    -0.8845650
  H        3.5659410     0.6177950    -0.0003540
  H        2.3940470     1.6339130     0.8846460
  H       -3.3221070    -0.4534470     0.0002580
units angstrom
no_reorient  #important for SAPT in psi4, default
symmetry c1  #important for SAPT in psi4, default
}

set PROPERTIES_ORIGIN ["COM"]
properties('MP2/aug-cc-pvtz', properties = ['dipole'])
--------------------------------------------------------------------------

    Molecular point group: c1
  Charge       = 0
  Multiplicity = 1
  Basis Set: AUG-CC-PVTZ
    Blend: AUG-CC-PVTZ
  Basis Set: (AUG-CC-PVTZ AUX)
    Blend: AUG-CC-PVTZ-JKFIT

    Orbital Energies [Eh]
    ---------------------

    Doubly Occupied:

       1A    -91.996637     2A    -20.556168     3A    -11.356122
       4A    -11.283784     5A    -11.278467     6A    -11.265953
       7A    -11.252497     8A    -11.244576     9A     -8.996528
      10A     -6.677368    11A     -6.676773    12A     -6.676126
      13A     -1.361743    14A     -1.186681    15A     -1.037744
      16A     -1.003075    17A     -0.979846    18A     -0.835435
      19A     -0.772388    20A     -0.727574    21A     -0.691586
      22A     -0.622324    23A     -0.616738    24A     -0.596437
      25A     -0.574130    26A     -0.555238    27A     -0.543689
      28A     -0.524744    29A     -0.489138    30A     -0.484791
      31A     -0.422384    32A     -0.359675    33A     -0.334932

  @DF-RHF Final Energy:  -703.15939894727728

   => Energetics <=

    Nuclear Repulsion Energy =            410.9483232125114114
    One-Electron Energy =               -1780.2528690319572888
    Two-Electron Energy =                 666.1451468721685387
    Total Energy =                       -703.1593989472772819
  Basis Set: (AUG-CC-PVTZ AUX)
    Blend: AUG-CC-PVTZ-RI
    Molecular point group: c1

    Geometry (in Angstrom), charge = 0, multiplicity = 1:

       Center              X                  Y                   Z               Mass
    ------------   -----------------  -----------------  -----------------  -----------------
         S           -0.964491422308    -1.095626712838     0.028512491143    31.972071174400
         O            2.001150577692    -1.266287712838     0.028226491143    15.994914619570
         C            0.166420577692     0.207943287162     0.028570491143    12.000000000000
         C           -0.479261422308     1.436358287162     0.028799491143    12.000000000000
         C            1.605740077692    -0.097085212838    -0.271600508857    12.000000000000
         C           -1.885404422308     1.310375287162     0.028924491143    12.000000000000
         C            2.567249577692     1.070308287162     0.028460491143    12.000000000000
         C           -2.288930422308    -0.010421712838     0.028787491143    12.000000000000
         H            0.047579577692     2.385492287162     0.028875491143     1.007825032230
         H           -2.577636422308     2.145918287162     0.029106491143     1.007825032230
         H            2.413013577692     1.695698287162    -0.855990508857     1.007825032230
         H            3.585198577692     0.679218287162     0.028220491143     1.007825032230
         H            2.413304577692     1.695336287162     0.913220491143     1.007825032230
         H           -3.302849422308    -0.392023712838     0.028832491143     1.007825032230

  Basis Set: AUG-CC-PVTZ
    Blend: AUG-CC-PVTZ
  Basis Set: (AUG-CC-PVTZ AUX)
    Blend: AUG-CC-PVTZ-JKFIT
	 Reference Energy          =    -703.1593989472772819 [Eh]
	 Singles Energy            =      -0.0000000000000000 [Eh]
	 Same-Spin Energy          =      -0.3873169001531535 [Eh]
	 Opposite-Spin Energy      =      -1.1826133591057346 [Eh]
	 Correlation Energy        =      -1.5699302592588880 [Eh]
	 Total Energy              =    -704.7293292065361356 [Eh]

	 ================> DF-SCS-MP2 Energies <==================
	-----------------------------------------------------------
	 SCS Same-Spin Scale       =       0.3333333333333333 [-]
	 SCS Opposite-Spin Scale   =       1.2000000000000000 [-]
	 SCS Same-Spin Energy      =      -0.1291056333843845 [Eh]
	 SCS Opposite-Spin Energy  =      -1.4191360309268815 [Eh]
	 SCS Correlation Energy    =      -1.5482416643112660 [Eh]
	 SCS Total Energy          =    -704.7076406115885447 [Eh]
	-----------------------------------------------------------

  Dipole Moment: [D]
     X:    -1.5723      Y:     2.9224      Z:    -0.1794     Total:     3.3234

*** Psi4 exiting successfully. Buy a developer a beer!
