                               Psi4 1.3.2 release

  ==> Input File <==

--------------------------------------------------------------------------
#psi4
#
memory 32 gb

molecule  {
0 1
  S       -0.9837490    -1.1570500    -0.0000620
  O        1.9818930    -1.3277110    -0.0003480
  C        0.1471630     0.1465200    -0.0000040
  C       -0.4985190     1.3749350     0.0002250
  C        1.5865110    -0.1585480    -0.0001750
  C       -1.9046620     1.2489520     0.0003500
  C        2.5479920     1.0088850    -0.0001140
  C       -2.3081880    -0.0718450     0.0002130
  H        0.0283220     2.3240690     0.0003010
  H       -2.5968940     2.0844950     0.0005320
  H        2.3937560     1.6342750    -0.8845650
  H        3.5659410     0.6177950    -0.0003540
  H        2.3940470     1.6339130     0.8846460
  H       -3.3220829    -0.4534806     0.2502580
units angstrom
no_reorient  #important for SAPT in psi4, default
symmetry c1  #important for SAPT in psi4, default
}

set PROPERTIES_ORIGIN ["COM"]
properties('MP2/aug-cc-pvtz', properties = ['dipole'])
--------------------------------------------------------------------------

    Molecular point group: c1
  Charge       = 0
  Multiplicity = 1
  Basis Set: AUG-CC-PVTZ
    Blend: AUG-CC-PVTZ
  Basis Set: (AUG-CC-PVTZ AUX)
    Blend: AUG-CC-PVTZ-JKFIT

    Orbital Energies [Eh]
    ---------------------

    Doubly Occupied:

       1A    -91.997643     2A    -20.547201     3A    -11.345682
       4A    -11.286446     5A    -11.275192     6A    -11.267499
       7A    -11.253538     8A    -11.241271     9A     -8.997445
      10A     -6.678275    11A     -6.677684    12A     -6.677044
      13A     -1.378144    14A     -1.188015    15A     -1.044169
      16A     -1.004312    17A     -0.982732    18A     -0.840001
      19A     -0.769650    20A     -0.727403    21A     -0.693611
      22A     -0.624215    23A     -0.616880    24A     -0.610463
      25A     -0.574717    26A     -0.558381    27A     -0.542812
      28A     -0.528057    29A     -0.493708    30A     -0.489326
      31A     -0.426677    32A     -0.360163    33A     -0.338261

  @DF-RHF Final Energy:  -703.20115565457377

   => Energetics <=

    Nuclear Repulsion Energy =            412.1465882939274934
    One-Electron Energy =               -1782.6222509806377730
    Two-Electron Energy =                 667.2745070321363983
    Total Energy =                       -703.2011556545737676
  Basis Set: (AUG-CC-PVTZ AUX)
    Blend: AUG-CC-PVTZ-RI
    Molecular point group: c1

    Geometry (in Angstrom), charge = 0, multiplicity = 1:

       Center              X                  Y                   Z               Mass
    ------------   -----------------  -----------------  -----------------  -----------------
         S           -0.964494329038    -1.095622682625    -0.002055209388    31.972071174400
         O            2.001147670962    -1.266283682625    -0.002341209388    15.994914619570
         C            0.166417670962     0.207947317375    -0.001997209388    12.000000000000
         C           -0.479264329038     1.436362317375    -0.001768209388    12.000000000000
         C            1.605765670962    -0.097120682625    -0.002168209388    12.000000000000
         C           -1.885407329038     1.310379317375    -0.001643209388    12.000000000000
         C            2.567246670962     1.070312317375    -0.002107209388    12.000000000000
         C           -2.288933329038    -0.010417682625    -0.001780209388    12.000000000000
         H            0.047576670962     2.385496317375    -0.001692209388     1.007825032230
         H           -2.577639329038     2.145922317375    -0.001461209388     1.007825032230
         H            2.413010670962     1.695702317375    -0.886558209388     1.007825032230
         H            3.585195670962     0.679222317375    -0.002347209388     1.007825032230
         H            2.413301670962     1.695340317375     0.882652790612     1.007825032230
         H           -3.302828229038    -0.392053282625     0.248264790612     1.007825032230

  Basis Set: AUG-CC-PVTZ
    Blend: AUG-CC-PVTZ
  Basis Set: (AUG-CC-PVTZ AUX)
    Blend: AUG-CC-PVTZ-JKFIT
	 Reference Energy          =    -703.2011556545737676 [Eh]
	 Singles Energy            =      -0.0000000000000000 [Eh]
	 Same-Spin Energy          =      -0.3851954661195718 [Eh]
	 Opposite-Spin Energy      =      -1.1762121449738867 [Eh]
	 Correlation Energy        =      -1.5614076110934585 [Eh]
	 Total Energy              =    -704.7625632656672678 [Eh]

	 ================> DF-SCS-MP2 Energies <==================
	-----------------------------------------------------------
	 SCS Same-Spin Scale       =       0.3333333333333333 [-]
	 SCS Opposite-Spin Scale   =       1.2000000000000000 [-]
	 SCS Same-Spin Energy      =      -0.1283984887065239 [Eh]
	 SCS Opposite-Spin Energy  =      -1.4114545739686639 [Eh]
	 SCS Correlation Energy    =      -1.5398530626751878 [Eh]
	 SCS Total Energy          =    -704.7410087172489739 [Eh]
	-----------------------------------------------------------

  Dipole Moment: [D]
     X:    -1.5620      Y:     3.0675      Z:     0.1955     Total:     3.4478

*** Psi4 exiting successfully. Buy a developer a beer!
