                               Psi4 1.3.2 release

  ==> Input File <==

--------------------------------------------------------------------------
#psi4
#
memory 32 gb

molecule  {
0 1
  S       -0.9837490    -1.1570500    -0.0000620
  O        1.9818930    -1.3277110    -0.0003480
  C        0.1471630     0.1465200    -0.0000040
  C       -0.4985190     1.3749350     0.0002250
  C        1.5865110    -0.1585480    -0.0001750
  C       -1.9046620     1.2489520     0.0003500
  C        2.5479786     1.0089033    -0.1501140
  C       -2.3081880    -0.0718450     0.0002130
  H        0.0283220     2.3240690     0.0003010
  H       -2.5968940     2.0844950     0.0005320
  H        2.3937560     1.6342750    -0.8845650
  H        3.5659410     0.6177950    -0.0003540
  H        2.3940470     1.6339130     0.8846460
  H       -3.3221070    -0.4534470     0.0002580
units angstrom
no_reorient  #important for SAPT in psi4, default
symmetry c1  #important for SAPT in psi4, default
}

set PROPERTIES_ORIGIN ["COM"]
properties('MP2/aug-cc-pvtz', properties = ['dipole'])
--------------------------------------------------------------------------

    Molecular point group: c1
  Charge       = 0
  Multiplicity = 1
  Basis Set: AUG-CC-PVTZ
    Blend: AUG-CC-PVTZ
  Basis Set: (AUG-CC-PVTZ AUX)
    Blend: AUG-CC-PVTZ-JKFIT

    Orbital Energies [Eh]
    ---------------------

    Doubly Occupied:

       1A    -91.997813     2A    -20.547305     3A    -11.347373
       4A    -11.284606     5A    -11.274810     6A    -11.267316
       7A    -11.252895     8A    -11.244219     9A     -8.997594
      10A     -6.678428    11A     -6.677850    12A     -6.677203
      13A     -1.378290    14A     -1.187979    15A     -1.044622
      16A     -1.004248    17A     -0.984423    18A     -0.841812
      19A     -0.773266    20A     -0.728267    21A     -0.701925
      22A     -0.637185    23A     -0.618848    24A     -0.604241
      25A     -0.575991    26A     -0.561410    27A     -0.533877
      28A     -0.524988    29A     -0.490162    30A     -0.487981
      31A     -0.425890    32A     -0.360091    33A     -0.338322

  @DF-RHF Final Energy:  -703.18211619640272

   => Energetics <=

    Nuclear Repulsion Energy =            412.1653462758218325
    One-Electron Energy =               -1782.5924717608841092
    Two-Electron Energy =                 667.2450092886596167
    Total Energy =                       -703.1821161964027169
  Basis Set: (AUG-CC-PVTZ AUX)
    Blend: AUG-CC-PVTZ-RI
    Molecular point group: c1

    Geometry (in Angstrom), charge = 0, multiplicity = 1:

       Center              X                  Y                   Z               Mass
    ------------   -----------------  -----------------  -----------------  -----------------
         S           -0.964492860244    -1.095624694014     0.014228356727    31.972071174400
         O            2.001149139756    -1.266285694014     0.013942356727    15.994914619570
         C            0.166419139756     0.207945305986     0.014286356727    12.000000000000
         C           -0.479262860244     1.436360305986     0.014515356727    12.000000000000
         C            1.605767139756    -0.097122694014     0.014115356727    12.000000000000
         C           -1.885405860244     1.310377305986     0.014640356727    12.000000000000
         C            2.567234739756     1.070328605986    -0.135823643273    12.000000000000
         C           -2.288931860244    -0.010419694014     0.014503356727    12.000000000000
         H            0.047578139756     2.385494305986     0.014591356727     1.007825032230
         H           -2.577637860244     2.145920305986     0.014822356727     1.007825032230
         H            2.413012139756     1.695700305986    -0.870274643273     1.007825032230
         H            3.585197139756     0.679220305986     0.013936356727     1.007825032230
         H            2.413303139756     1.695338305986     0.898936356727     1.007825032230
         H           -3.302850860244    -0.392021694014     0.014548356727     1.007825032230

  Basis Set: AUG-CC-PVTZ
    Blend: AUG-CC-PVTZ
  Basis Set: (AUG-CC-PVTZ AUX)
    Blend: AUG-CC-PVTZ-JKFIT
	 Reference Energy          =    -703.1821161964027169 [Eh]
	 Singles Energy            =      -0.0000000000000000 [Eh]
	 Same-Spin Energy          =      -0.3852209257019303 [Eh]
	 Opposite-Spin Energy      =      -1.1766017796370292 [Eh]
	 Correlation Energy        =      -1.5618227053389595 [Eh]
	 Total Energy              =    -704.7439389017416715 [Eh]

	 ================> DF-SCS-MP2 Energies <==================
	-----------------------------------------------------------
	 SCS Same-Spin Scale       =       0.3333333333333333 [-]
	 SCS Opposite-Spin Scale   =       1.2000000000000000 [-]
	 SCS Same-Spin Energy      =      -0.1284069752339768 [Eh]
	 SCS Opposite-Spin Energy  =      -1.4119221355644349 [Eh]
	 SCS Correlation Energy    =      -1.5403291107984116 [Eh]
	 SCS Total Energy          =    -704.7224453072011556 [Eh]
	-----------------------------------------------------------

  Dipole Moment: [D]
     X:    -1.6161      Y:     3.0261      Z:    -0.0389     Total:     3.4308

*** Psi4 exiting successfully. Buy a developer a beer!
