                               Psi4 1.3.2 release

  ==> Input File <==

--------------------------------------------------------------------------
#psi4
#
memory 32 gb

molecule  {
0 1
  S       -0.9837490    -1.1570500    -0.0000620
  O        1.9818930    -1.3277110    -0.0003480
  C        0.1471630     0.1465200    -0.0000040
  C       -0.4985190     1.3749350     0.0002250
  C        1.5864967    -0.1585283    -0.1501750
  C       -1.9046620     1.2489520     0.0003500
  C        2.5479920     1.0088850    -0.0001140
  C       -2.3081880    -0.0718450     0.0002130
  H        0.0283220     2.3240690     0.0003010
  H       -2.5968940     2.0844950     0.0005320
  H        2.3937560     1.6342750    -0.8845650
  H        3.5659410     0.6177950    -0.0003540
  H        2.3940470     1.6339130     0.8846460
  H       -3.3221070    -0.4534470     0.0002580
units angstrom
no_reorient  #important for SAPT in psi4, default
symmetry c1  #important for SAPT in psi4, default
}

set PROPERTIES_ORIGIN ["COM"]
properties('MP2/aug-cc-pvtz', properties = ['dipole'])
--------------------------------------------------------------------------

    Molecular point group: c1
  Charge       = 0
  Multiplicity = 1
  Basis Set: AUG-CC-PVTZ
    Blend: AUG-CC-PVTZ
  Basis Set: (AUG-CC-PVTZ AUX)
    Blend: AUG-CC-PVTZ-JKFIT

    Orbital Energies [Eh]
    ---------------------

    Doubly Occupied:

       1A    -91.997419     2A    -20.549057     3A    -11.348263
       4A    -11.284369     5A    -11.275580     6A    -11.266992
       7A    -11.252767     8A    -11.241938     9A     -8.997233
      10A     -6.678069    11A     -6.677486    12A     -6.676839
      13A     -1.373558    14A     -1.187588    15A     -1.042527
      16A     -1.003879    17A     -0.982435    18A     -0.839198
      19A     -0.772987    20A     -0.727628    21A     -0.693498
      22A     -0.623603    23A     -0.618362    24A     -0.606090
      25A     -0.575544    26A     -0.557446    27A     -0.542639
      28A     -0.528978    29A     -0.491765    30A     -0.489054
      31A     -0.425279    32A     -0.359973    33A     -0.337407

  @DF-RHF Final Energy:  -703.19355038188780

   => Energetics <=

    Nuclear Repulsion Energy =            411.9218923458690824
    One-Electron Energy =               -1782.1799870235270191
    Two-Electron Energy =                 667.0645442957701334
    Total Energy =                       -703.1935503818878033
  Basis Set: (AUG-CC-PVTZ AUX)
    Blend: AUG-CC-PVTZ-RI
    Molecular point group: c1

    Geometry (in Angstrom), charge = 0, multiplicity = 1:

       Center              X                  Y                   Z               Mass
    ------------   -----------------  -----------------  -----------------  -----------------
         S           -0.964492774539    -1.095624827332     0.014228356727    31.972071174400
         O            2.001149225461    -1.266285827332     0.013942356727    15.994914619570
         C            0.166419225461     0.207945172668     0.014286356727    12.000000000000
         C           -0.479262774539     1.436360172668     0.014515356727    12.000000000000
         C            1.605752925461    -0.097103127332    -0.135884643273    12.000000000000
         C           -1.885405774539     1.310377172668     0.014640356727    12.000000000000
         C            2.567248225461     1.070310172668     0.014176356727    12.000000000000
         C           -2.288931774539    -0.010419827332     0.014503356727    12.000000000000
         H            0.047578225461     2.385494172668     0.014591356727     1.007825032230
         H           -2.577637774539     2.145920172668     0.014822356727     1.007825032230
         H            2.413012225461     1.695700172668    -0.870274643273     1.007825032230
         H            3.585197225461     0.679220172668     0.013936356727     1.007825032230
         H            2.413303225461     1.695338172668     0.898936356727     1.007825032230
         H           -3.302850774539    -0.392021827332     0.014548356727     1.007825032230

  Basis Set: AUG-CC-PVTZ
    Blend: AUG-CC-PVTZ
  Basis Set: (AUG-CC-PVTZ AUX)
    Blend: AUG-CC-PVTZ-JKFIT
	 Reference Energy          =    -703.1935503818878033 [Eh]
	 Singles Energy            =      -0.0000000000000000 [Eh]
	 Same-Spin Energy          =      -0.3855162339422931 [Eh]
	 Opposite-Spin Energy      =      -1.1772905403147580 [Eh]
	 Correlation Energy        =      -1.5628067742570511 [Eh]
	 Total Energy              =    -704.7563571561448725 [Eh]

	 ================> DF-SCS-MP2 Energies <==================
	-----------------------------------------------------------
	 SCS Same-Spin Scale       =       0.3333333333333333 [-]
	 SCS Opposite-Spin Scale   =       1.2000000000000000 [-]
	 SCS Same-Spin Energy      =      -0.1285054113140977 [Eh]
	 SCS Opposite-Spin Energy  =      -1.4127486483777096 [Eh]
	 SCS Correlation Energy    =      -1.5412540596918074 [Eh]
	 SCS Total Energy          =    -704.7348044415796267 [Eh]
	-----------------------------------------------------------

  Dipole Moment: [D]
     X:    -1.6023      Y:     3.0171      Z:    -0.0951     Total:     3.4175

*** Psi4 exiting successfully. Buy a developer a beer!
