                               Psi4 1.3.2 release

  ==> Input File <==

--------------------------------------------------------------------------
#psi4
#
memory 32 gb

molecule  {
0 1
  S       -0.9837490    -1.1570500    -0.0000620
  O        1.9818930    -1.3277110    -0.0003480
  C        0.1471630     0.1465200    -0.0000040
  C       -0.4985190     1.3749350     0.0002250
  C        1.5865110    -0.1585480    -0.0001750
  C       -1.9046620     1.2489520     0.0003500
  C        2.5479920     1.0088850    -0.0001140
  C       -2.3081880    -0.0718450     0.0002130
  H        0.0283220     2.3240690     0.0003010
  H       -2.5968940     2.0844950     0.0005320
  H        2.3937560     1.6342750    -0.8845650
  H        3.5659410     0.6177950    -0.0003540
  H        2.3940470     1.6339130     0.8846460
  H       -3.3220781    -0.4534873     0.3002580
units angstrom
no_reorient  #important for SAPT in psi4, default
symmetry c1  #important for SAPT in psi4, default
}

set PROPERTIES_ORIGIN ["COM"]
properties('MP2/aug-cc-pvtz', properties = ['dipole'])
--------------------------------------------------------------------------

    Molecular point group: c1
  Charge       = 0
  Multiplicity = 1
  Basis Set: AUG-CC-PVTZ
    Blend: AUG-CC-PVTZ
  Basis Set: (AUG-CC-PVTZ AUX)
    Blend: AUG-CC-PVTZ-JKFIT

    Orbital Energies [Eh]
    ---------------------

    Doubly Occupied:

       1A    -91.997638     2A    -20.547398     3A    -11.345822
       4A    -11.287246     5A    -11.275474     6A    -11.267568
       7A    -11.253833     8A    -11.241380     9A     -8.997446
      10A     -6.678274    11A     -6.677678    12A     -6.677041
      13A     -1.378309    14A     -1.188071    15A     -1.044167
      16A     -1.004385    17A     -0.982501    18A     -0.839822
      19A     -0.768247    20A     -0.727293    21A     -0.693377
      22A     -0.624371    23A     -0.616307    24A     -0.610523
      25A     -0.574138    26A     -0.558510    27A     -0.543102
      28A     -0.526942    29A     -0.493529    30A     -0.489335
      31A     -0.426833    32A     -0.360207    33A     -0.338263

  @DF-RHF Final Energy:  -703.19928331230915

   => Energetics <=

    Nuclear Repulsion Energy =            412.0999565115051837
    One-Electron Energy =               -1782.5284187904962891
    Two-Electron Energy =                 667.2291789666818431
    Total Energy =                       -703.1992833123091486
  Basis Set: (AUG-CC-PVTZ AUX)
    Blend: AUG-CC-PVTZ-RI
    Molecular point group: c1

    Geometry (in Angstrom), charge = 0, multiplicity = 1:

       Center              X                  Y                   Z               Mass
    ------------   -----------------  -----------------  -----------------  -----------------
         S           -0.964494367427    -1.095622629041    -0.002455095728    31.972071174400
         O            2.001147632573    -1.266283629041    -0.002741095728    15.994914619570
         C            0.166417632573     0.207947370959    -0.002397095728    12.000000000000
         C           -0.479264367427     1.436362370959    -0.002168095728    12.000000000000
         C            1.605765632573    -0.097120629041    -0.002568095728    12.000000000000
         C           -1.885407367427     1.310379370959    -0.002043095728    12.000000000000
         C            2.567246632573     1.070312370959    -0.002507095728    12.000000000000
         C           -2.288933367427    -0.010417629041    -0.002180095728    12.000000000000
         H            0.047576632573     2.385496370959    -0.002092095728     1.007825032230
         H           -2.577639367427     2.145922370959    -0.001861095728     1.007825032230
         H            2.413010632573     1.695702370959    -0.886958095728     1.007825032230
         H            3.585195632573     0.679222370959    -0.002747095728     1.007825032230
         H            2.413301632573     1.695340370959     0.882252904272     1.007825032230
         H           -3.302823467427    -0.392059929041     0.297864904272     1.007825032230

  Basis Set: AUG-CC-PVTZ
    Blend: AUG-CC-PVTZ
  Basis Set: (AUG-CC-PVTZ AUX)
    Blend: AUG-CC-PVTZ-JKFIT
	 Reference Energy          =    -703.1992833123091486 [Eh]
	 Singles Energy            =      -0.0000000000000000 [Eh]
	 Same-Spin Energy          =      -0.3853145567239038 [Eh]
	 Opposite-Spin Energy      =      -1.1764887888949489 [Eh]
	 Correlation Energy        =      -1.5618033456188527 [Eh]
	 Total Energy              =    -704.7610866579279900 [Eh]

	 ================> DF-SCS-MP2 Energies <==================
	-----------------------------------------------------------
	 SCS Same-Spin Scale       =       0.3333333333333333 [-]
	 SCS Opposite-Spin Scale   =       1.2000000000000000 [-]
	 SCS Same-Spin Energy      =      -0.1284381855746346 [Eh]
	 SCS Opposite-Spin Energy  =      -1.4117865466739385 [Eh]
	 SCS Correlation Energy    =      -1.5402247322485731 [Eh]
	 SCS Total Energy          =    -704.7395080445577378 [Eh]
	-----------------------------------------------------------

  Dipole Moment: [D]
     X:    -1.5408      Y:     3.0753      Z:     0.2330     Total:     3.4476

*** Psi4 exiting successfully. Buy a developer a beer!
