                               Psi4 1.3.2 release

  ==> Input File <==

--------------------------------------------------------------------------
#psi4
#
memory 32 gb

molecule  {
0 1
  S       -0.9837490    -1.1570500    -0.0000620
  O        1.9818930    -1.3277110    -0.0003480
  C        0.1471630     0.1465200    -0.0000040
  C       -0.4985190     1.3749350     0.0002250
  C        1.5865110    -0.1585480    -0.0001750
  C       -1.9046620     1.2489520     0.0003500
  C        2.5479920     1.0088850    -0.0001140
  C       -2.3081880    -0.0718450     0.0002130
  H        0.0283220     2.3240690     0.0003010
  H       -2.5969041     2.0845084    -0.0994680
  H        2.3937560     1.6342750    -0.8845650
  H        3.5659410     0.6177950    -0.0003540
  H        2.3940470     1.6339130     0.8846460
  H       -3.3221070    -0.4534470     0.0002580
units angstrom
no_reorient  #important for SAPT in psi4, default
symmetry c1  #important for SAPT in psi4, default
}

set PROPERTIES_ORIGIN ["COM"]
properties('MP2/aug-cc-pvtz', properties = ['dipole'])
--------------------------------------------------------------------------

    Molecular point group: c1
  Charge       = 0
  Multiplicity = 1
  Basis Set: AUG-CC-PVTZ
    Blend: AUG-CC-PVTZ
  Basis Set: (AUG-CC-PVTZ AUX)
    Blend: AUG-CC-PVTZ-JKFIT

    Orbital Energies [Eh]
    ---------------------

    Doubly Occupied:

       1A    -91.997760     2A    -20.546778     3A    -11.345391
       4A    -11.284699     5A    -11.274569     6A    -11.267395
       7A    -11.253222     8A    -11.241039     9A     -8.997543
      10A     -6.678377    11A     -6.677798    12A     -6.677153
      13A     -1.377795    14A     -1.187941    15A     -1.044216
      16A     -1.004070    17A     -0.983339    18A     -0.840494
      19A     -0.772843    20A     -0.727505    21A     -0.693981
      22A     -0.623561    23A     -0.618202    24A     -0.610310
      25A     -0.576010    26A     -0.558084    27A     -0.542073
      28A     -0.530427    29A     -0.494153    30A     -0.489163
      31A     -0.426340    32A     -0.360059    33A     -0.338296

  @DF-RHF Final Energy:  -703.20434782312577

   => Energetics <=

    Nuclear Repulsion Energy =            412.2396131613980970
    One-Electron Energy =               -1782.8067539515211593
    Two-Electron Energy =                 667.3627929669974037
    Total Energy =                       -703.2043478231257723
  Basis Set: (AUG-CC-PVTZ AUX)
    Blend: AUG-CC-PVTZ-RI
    Molecular point group: c1

    Geometry (in Angstrom), charge = 0, multiplicity = 1:

       Center              X                  Y                   Z               Mass
    ------------   -----------------  -----------------  -----------------  -----------------
         S           -0.964494055516    -1.095623058519     0.000743994990    31.972071174400
         O            2.001147944484    -1.266284058519     0.000457994990    15.994914619570
         C            0.166417944484     0.207946941481     0.000801994990    12.000000000000
         C           -0.479264055516     1.436361941481     0.001030994990    12.000000000000
         C            1.605765944484    -0.097121058519     0.000630994990    12.000000000000
         C           -1.885407055516     1.310378941481     0.001155994990    12.000000000000
         C            2.567246944484     1.070311941481     0.000691994990    12.000000000000
         C           -2.288933055516    -0.010418058519     0.001018994990    12.000000000000
         H            0.047576944484     2.385495941481     0.001106994990     1.007825032230
         H           -2.577649155516     2.145935341481    -0.098662005010     1.007825032230
         H            2.413010944484     1.695701941481    -0.883759005010     1.007825032230
         H            3.585195944484     0.679221941481     0.000451994990     1.007825032230
         H            2.413301944484     1.695339941481     0.885451994990     1.007825032230
         H           -3.302852055516    -0.392020058519     0.001063994990     1.007825032230

  Basis Set: AUG-CC-PVTZ
    Blend: AUG-CC-PVTZ
  Basis Set: (AUG-CC-PVTZ AUX)
    Blend: AUG-CC-PVTZ-JKFIT
	 Reference Energy          =    -703.2043478231257723 [Eh]
	 Singles Energy            =      -0.0000000000000000 [Eh]
	 Same-Spin Energy          =      -0.3849481733742370 [Eh]
	 Opposite-Spin Energy      =      -1.1756676791894543 [Eh]
	 Correlation Energy        =      -1.5606158525636913 [Eh]
	 Total Energy              =    -704.7649636756895006 [Eh]

	 ================> DF-SCS-MP2 Energies <==================
	-----------------------------------------------------------
	 SCS Same-Spin Scale       =       0.3333333333333333 [-]
	 SCS Opposite-Spin Scale   =       1.2000000000000000 [-]
	 SCS Same-Spin Energy      =      -0.1283160577914123 [Eh]
	 SCS Opposite-Spin Energy  =      -1.4108012150273450 [Eh]
	 SCS Correlation Energy    =      -1.5391172728187574 [Eh]
	 SCS Total Energy          =    -704.7434650959445435 [Eh]
	-----------------------------------------------------------

  Dipole Moment: [D]
     X:    -1.6051      Y:     3.0419      Z:    -0.0766     Total:     3.4403

*** Psi4 exiting successfully. Buy a developer a beer!
