                               Psi4 1.3.2 release

  ==> Input File <==

--------------------------------------------------------------------------
#psi4
#
memory 32 gb

molecule  {
0 1
  S       -0.9837490    -1.1570500    -0.0000620
  O        1.9818930    -1.3277110    -0.0003480
  C        0.1471630     0.1465200    -0.0000040
  C       -0.4985190     1.3749350     0.0002250
  C        1.5865110    -0.1585480    -0.0001750
  C       -1.9046620     1.2489520     0.0003500
  C        2.5479920     1.0088850    -0.0001140
  C       -2.3081880    -0.0718450     0.0002130
  H        0.0283120     2.3240825    -0.0996990
  H       -2.5968940     2.0844950     0.0005320
  H        2.3937560     1.6342750    -0.8845650
  H        3.5659410     0.6177950    -0.0003540
  H        2.3940470     1.6339130     0.8846460
  H       -3.3221070    -0.4534470     0.0002580
units angstrom
no_reorient  #important for SAPT in psi4, default
symmetry c1  #important for SAPT in psi4, default
}

set PROPERTIES_ORIGIN ["COM"]
properties('MP2/aug-cc-pvtz', properties = ['dipole'])
--------------------------------------------------------------------------

    Molecular point group: c1
  Charge       = 0
  Multiplicity = 1
  Basis Set: AUG-CC-PVTZ
    Blend: AUG-CC-PVTZ
  Basis Set: (AUG-CC-PVTZ AUX)
    Blend: AUG-CC-PVTZ-JKFIT

    Orbital Energies [Eh]
    ---------------------

    Doubly Occupied:

       1A    -91.997761     2A    -20.546792     3A    -11.345389
       4A    -11.284575     5A    -11.274660     6A    -11.267712
       7A    -11.252897     8A    -11.240999     9A     -8.997543
      10A     -6.678376    11A     -6.677797    12A     -6.677152
      13A     -1.377802    14A     -1.187924    15A     -1.044194
      16A     -1.004075    17A     -0.983276    18A     -0.840475
      19A     -0.773033    20A     -0.726937    21A     -0.694131
      22A     -0.623864    23A     -0.618338    24A     -0.610329
      25A     -0.575603    26A     -0.558058    27A     -0.541803
      28A     -0.530700    29A     -0.494163    30A     -0.489167
      31A     -0.426354    32A     -0.360037    33A     -0.338300

  @DF-RHF Final Energy:  -703.20433211747081

   => Energetics <=

    Nuclear Repulsion Energy =            412.2383070313713347
    One-Electron Energy =               -1782.8048426007051148
    Two-Electron Energy =                 667.3622034518630244
    Total Energy =                       -703.2043321174708126
  Basis Set: (AUG-CC-PVTZ AUX)
    Blend: AUG-CC-PVTZ-RI
    Molecular point group: c1

    Geometry (in Angstrom), charge = 0, multiplicity = 1:

       Center              X                  Y                   Z               Mass
    ------------   -----------------  -----------------  -----------------  -----------------
         S           -0.964494056316    -1.095623059318     0.000743994990    31.972071174400
         O            2.001147943684    -1.266284059318     0.000457994990    15.994914619570
         C            0.166417943684     0.207946940682     0.000801994990    12.000000000000
         C           -0.479264056316     1.436361940682     0.001030994990    12.000000000000
         C            1.605765943684    -0.097121059318     0.000630994990    12.000000000000
         C           -1.885407056316     1.310378940682     0.001155994990    12.000000000000
         C            2.567246943684     1.070311940682     0.000691994990    12.000000000000
         C           -2.288933056316    -0.010418059318     0.001018994990    12.000000000000
         H            0.047566943684     2.385509440682    -0.098893005010     1.007825032230
         H           -2.577639056316     2.145921940682     0.001337994990     1.007825032230
         H            2.413010943684     1.695701940682    -0.883759005010     1.007825032230
         H            3.585195943684     0.679221940682     0.000451994990     1.007825032230
         H            2.413301943684     1.695339940682     0.885451994990     1.007825032230
         H           -3.302852056316    -0.392020059318     0.001063994990     1.007825032230

  Basis Set: AUG-CC-PVTZ
    Blend: AUG-CC-PVTZ
  Basis Set: (AUG-CC-PVTZ AUX)
    Blend: AUG-CC-PVTZ-JKFIT
	 Reference Energy          =    -703.2043321174708126 [Eh]
	 Singles Energy            =      -0.0000000000000000 [Eh]
	 Same-Spin Energy          =      -0.3849639912999498 [Eh]
	 Opposite-Spin Energy      =      -1.1756884949295208 [Eh]
	 Correlation Energy        =      -1.5606524862294706 [Eh]
	 Total Energy              =    -704.7649846037003272 [Eh]

	 ================> DF-SCS-MP2 Energies <==================
	-----------------------------------------------------------
	 SCS Same-Spin Scale       =       0.3333333333333333 [-]
	 SCS Opposite-Spin Scale   =       1.2000000000000000 [-]
	 SCS Same-Spin Energy      =      -0.1283213304333166 [Eh]
	 SCS Opposite-Spin Energy  =      -1.4108261939154250 [Eh]
	 SCS Correlation Energy    =      -1.5391475243487416 [Eh]
	 SCS Total Energy          =    -704.7434796418195901 [Eh]
	-----------------------------------------------------------

  Dipole Moment: [D]
     X:    -1.6152      Y:     3.0419      Z:    -0.0748     Total:     3.4450

*** Psi4 exiting successfully. Buy a developer a beer!
