                               Psi4 1.3.2 release

  ==> Input File <==

--------------------------------------------------------------------------
#psi4
#
memory 32 gb

molecule  {
0 1
  S       -0.9837490    -1.1570500    -0.0000620
  O        1.9818930    -1.3277110    -0.0003480
  C        0.1471630     0.1465200    -0.0000040
  C       -0.4985190     1.3749350     0.0002250
  C        1.5865110    -0.1585480    -0.0001750
  C       -1.9046620     1.2489520     0.0003500
  C        2.5479920     1.0088850    -0.0001140
  C       -2.3081880    -0.0718450     0.0002130
  H        0.0283220     2.3240690     0.0003010
  H       -2.5969192     2.0845286    -0.2494680
  H        2.3937560     1.6342750    -0.8845650
  H        3.5659410     0.6177950    -0.0003540
  H        2.3940470     1.6339130     0.8846460
  H       -3.3221070    -0.4534470     0.0002580
units angstrom
no_reorient  #important for SAPT in psi4, default
symmetry c1  #important for SAPT in psi4, default
}

set PROPERTIES_ORIGIN ["COM"]
properties('MP2/aug-cc-pvtz', properties = ['dipole'])
--------------------------------------------------------------------------

    Molecular point group: c1
  Charge       = 0
  Multiplicity = 1
  Basis Set: AUG-CC-PVTZ
    Blend: AUG-CC-PVTZ
  Basis Set: (AUG-CC-PVTZ AUX)
    Blend: AUG-CC-PVTZ-JKFIT

    Orbital Energies [Eh]
    ---------------------

    Doubly Occupied:

       1A    -91.998159     2A    -20.546965     3A    -11.345550
       4A    -11.285388     5A    -11.274755     6A    -11.267657
       7A    -11.255131     8A    -11.241153     9A     -8.997945
      10A     -6.678775    11A     -6.678197    12A     -6.677551
      13A     -1.377978    14A     -1.188174    15A     -1.044300
      16A     -1.003653    17A     -0.983424    18A     -0.840366
      19A     -0.771210    20A     -0.726798    21A     -0.693071
      22A     -0.622385    23A     -0.617302    24A     -0.610331
      25A     -0.576236    26A     -0.558050    27A     -0.542531
      28A     -0.528719    29A     -0.494492    30A     -0.488460
      31A     -0.426464    32A     -0.360034    33A     -0.338430

  @DF-RHF Final Energy:  -703.20096787011937

   => Energetics <=

    Nuclear Repulsion Energy =            412.1511208527929284
    One-Electron Energy =               -1782.6249067476801429
    Two-Electron Energy =                 667.2728180247678438
    Total Energy =                       -703.2009678701193707
  Basis Set: (AUG-CC-PVTZ AUX)
    Blend: AUG-CC-PVTZ-RI
    Molecular point group: c1

    Geometry (in Angstrom), charge = 0, multiplicity = 1:

       Center              X                  Y                   Z               Mass
    ------------   -----------------  -----------------  -----------------  -----------------
         S           -0.964493934750    -1.095623220073     0.001943654009    31.972071174400
         O            2.001148065250    -1.266284220073     0.001657654009    15.994914619570
         C            0.166418065250     0.207946779927     0.002001654009    12.000000000000
         C           -0.479263934750     1.436361779927     0.002230654009    12.000000000000
         C            1.605766065250    -0.097121220073     0.001830654009    12.000000000000
         C           -1.885406934750     1.310378779927     0.002355654009    12.000000000000
         C            2.567247065250     1.070311779927     0.001891654009    12.000000000000
         C           -2.288932934750    -0.010418220073     0.002218654009    12.000000000000
         H            0.047577065250     2.385495779927     0.002306654009     1.007825032230
         H           -2.577664134750     2.145955379927    -0.247462345991     1.007825032230
         H            2.413011065250     1.695701779927    -0.882559345991     1.007825032230
         H            3.585196065250     0.679221779927     0.001651654009     1.007825032230
         H            2.413302065250     1.695339779927     0.886651654009     1.007825032230
         H           -3.302851934750    -0.392020220073     0.002263654009     1.007825032230

  Basis Set: AUG-CC-PVTZ
    Blend: AUG-CC-PVTZ
  Basis Set: (AUG-CC-PVTZ AUX)
    Blend: AUG-CC-PVTZ-JKFIT
	 Reference Energy          =    -703.2009678701193707 [Eh]
	 Singles Energy            =      -0.0000000000000000 [Eh]
	 Same-Spin Energy          =      -0.3850896096414937 [Eh]
	 Opposite-Spin Energy      =      -1.1760066899688932 [Eh]
	 Correlation Energy        =      -1.5610962996103870 [Eh]
	 Total Energy              =    -704.7620641697297970 [Eh]

	 ================> DF-SCS-MP2 Energies <==================
	-----------------------------------------------------------
	 SCS Same-Spin Scale       =       0.3333333333333333 [-]
	 SCS Opposite-Spin Scale   =       1.2000000000000000 [-]
	 SCS Same-Spin Energy      =      -0.1283632032138312 [Eh]
	 SCS Opposite-Spin Energy  =      -1.4112080279626718 [Eh]
	 SCS Correlation Energy    =      -1.5395712311765031 [Eh]
	 SCS Total Energy          =    -704.7405391012958944 [Eh]
	-----------------------------------------------------------

  Dipole Moment: [D]
     X:    -1.5717      Y:     3.0068      Z:    -0.1898     Total:     3.3981

*** Psi4 exiting successfully. Buy a developer a beer!
