                               Psi4 1.3.2 release

  ==> Input File <==

--------------------------------------------------------------------------
#psi4
#
memory 32 gb

molecule  {
0 1
  S       -0.9837490    -1.1570500    -0.0000620
  O        1.9818930    -1.3277110    -0.0003480
  C        0.1471630     0.1465200    -0.0000040
  C       -0.4985190     1.3749350     0.0002250
  C        1.5865110    -0.1585480    -0.0001750
  C       -1.9046620     1.2489520     0.0003500
  C        2.5479920     1.0088850    -0.0001140
  C       -2.3081880    -0.0718450     0.0002130
  H        0.0283220     2.3240690     0.0003010
  H       -2.5969142     2.0845219    -0.1994680
  H        2.3937560     1.6342750    -0.8845650
  H        3.5659410     0.6177950    -0.0003540
  H        2.3940470     1.6339130     0.8846460
  H       -3.3221070    -0.4534470     0.0002580
units angstrom
no_reorient  #important for SAPT in psi4, default
symmetry c1  #important for SAPT in psi4, default
}

set PROPERTIES_ORIGIN ["COM"]
properties('MP2/aug-cc-pvtz', properties = ['dipole'])
--------------------------------------------------------------------------

    Molecular point group: c1
  Charge       = 0
  Multiplicity = 1
  Basis Set: AUG-CC-PVTZ
    Blend: AUG-CC-PVTZ
  Basis Set: (AUG-CC-PVTZ AUX)
    Blend: AUG-CC-PVTZ-JKFIT

    Orbital Energies [Eh]
    ---------------------

    Doubly Occupied:

       1A    -91.997988     2A    -20.546885     3A    -11.345482
       4A    -11.285094     5A    -11.274674     6A    -11.267543
       7A    -11.254321     8A    -11.241104     9A     -8.997773
      10A     -6.678605    11A     -6.678026    12A     -6.677380
      13A     -1.377900    14A     -1.188073    15A     -1.044262
      16A     -1.003823    17A     -0.983386    18A     -0.840413
      19A     -0.771873    20A     -0.727091    21A     -0.693454
      22A     -0.622811    23A     -0.617751    24A     -0.610327
      25A     -0.576138    26A     -0.558072    27A     -0.542344
      28A     -0.529440    29A     -0.494350    30A     -0.488763
      31A     -0.426411    32A     -0.360042    33A     -0.338372

  @DF-RHF Final Energy:  -703.20247390801580

   => Energetics <=

    Nuclear Repulsion Energy =            412.1885124952747219
    One-Electron Energy =               -1782.7020340552528523
    Two-Electron Energy =                 667.3110476519622125
    Total Energy =                       -703.2024739080158042
  Basis Set: (AUG-CC-PVTZ AUX)
    Blend: AUG-CC-PVTZ-RI
    Molecular point group: c1

    Geometry (in Angstrom), charge = 0, multiplicity = 1:

       Center              X                  Y                   Z               Mass
    ------------   -----------------  -----------------  -----------------  -----------------
         S           -0.964493974739    -1.095623166488     0.001543767669    31.972071174400
         O            2.001148025261    -1.266284166488     0.001257767669    15.994914619570
         C            0.166418025261     0.207946833512     0.001601767669    12.000000000000
         C           -0.479263974739     1.436361833512     0.001830767669    12.000000000000
         C            1.605766025261    -0.097121166488     0.001430767669    12.000000000000
         C           -1.885406974739     1.310378833512     0.001955767669    12.000000000000
         C            2.567247025261     1.070311833512     0.001491767669    12.000000000000
         C           -2.288932974739    -0.010418166488     0.001818767669    12.000000000000
         H            0.047577025261     2.385495833512     0.001906767669     1.007825032230
         H           -2.577659174739     2.145948733512    -0.197862232331     1.007825032230
         H            2.413011025261     1.695701833512    -0.882959232331     1.007825032230
         H            3.585196025261     0.679221833512     0.001251767669     1.007825032230
         H            2.413302025261     1.695339833512     0.886251767669     1.007825032230
         H           -3.302851974739    -0.392020166488     0.001863767669     1.007825032230

  Basis Set: AUG-CC-PVTZ
    Blend: AUG-CC-PVTZ
  Basis Set: (AUG-CC-PVTZ AUX)
    Blend: AUG-CC-PVTZ-JKFIT
	 Reference Energy          =    -703.2024739080158042 [Eh]
	 Singles Energy            =      -0.0000000000000000 [Eh]
	 Same-Spin Energy          =      -0.3850295087277897 [Eh]
	 Opposite-Spin Energy      =      -1.1758546460030104 [Eh]
	 Correlation Energy        =      -1.5608841547308001 [Eh]
	 Total Energy              =    -704.7633580627466472 [Eh]

	 ================> DF-SCS-MP2 Energies <==================
	-----------------------------------------------------------
	 SCS Same-Spin Scale       =       0.3333333333333333 [-]
	 SCS Opposite-Spin Scale   =       1.2000000000000000 [-]
	 SCS Same-Spin Energy      =      -0.1283431695759299 [Eh]
	 SCS Opposite-Spin Energy  =      -1.4110255752036125 [Eh]
	 SCS Correlation Energy    =      -1.5393687447795423 [Eh]
	 SCS Total Energy          =    -704.7418426527952988 [Eh]
	-----------------------------------------------------------

  Dipole Moment: [D]
     X:    -1.5859      Y:     3.0217      Z:    -0.1526     Total:     3.4160

*** Psi4 exiting successfully. Buy a developer a beer!
