                               Psi4 1.3.2 release

  ==> Input File <==

--------------------------------------------------------------------------
#psi4
#
memory 32 gb

molecule  {
0 1
  S       -0.9837490    -1.1570500    -0.0000620
  O        1.9818930    -1.3277110    -0.0003480
  C        0.1471630     0.1465200    -0.0000040
  C       -0.4985190     1.3749350     0.0002250
  C        1.5865110    -0.1585480    -0.0001750
  C       -1.9046620     1.2489520     0.0003500
  C        2.5479830     1.0088972    -0.1001140
  C       -2.3081880    -0.0718450     0.0002130
  H        0.0283220     2.3240690     0.0003010
  H       -2.5968940     2.0844950     0.0005320
  H        2.3937560     1.6342750    -0.8845650
  H        3.5659410     0.6177950    -0.0003540
  H        2.3940470     1.6339130     0.8846460
  H       -3.3221070    -0.4534470     0.0002580
units angstrom
no_reorient  #important for SAPT in psi4, default
symmetry c1  #important for SAPT in psi4, default
}

set PROPERTIES_ORIGIN ["COM"]
properties('MP2/aug-cc-pvtz', properties = ['dipole'])
--------------------------------------------------------------------------

    Molecular point group: c1
  Charge       = 0
  Multiplicity = 1
  Basis Set: AUG-CC-PVTZ
    Blend: AUG-CC-PVTZ
  Basis Set: (AUG-CC-PVTZ AUX)
    Blend: AUG-CC-PVTZ-JKFIT

    Orbital Energies [Eh]
    ---------------------

    Doubly Occupied:

       1A    -91.997741     2A    -20.546993     3A    -11.346259
       4A    -11.284584     5A    -11.274657     6A    -11.267332
       7A    -11.252871     8A    -11.242442     9A     -8.997523
      10A     -6.678357    11A     -6.677779    12A     -6.677132
      13A     -1.377997    14A     -1.187933    15A     -1.044381
      16A     -1.004198    17A     -0.983801    18A     -0.841084
      19A     -0.773222    20A     -0.727881    21A     -0.697596
      22A     -0.631143    23A     -0.619345    24A     -0.606180
      25A     -0.575977    26A     -0.560177    27A     -0.536342
      28A     -0.528820    29A     -0.492071    30A     -0.489177
      31A     -0.426134    32A     -0.360077    33A     -0.338294

  @DF-RHF Final Energy:  -703.19485168160008

   => Energetics <=

    Nuclear Repulsion Energy =            412.2161256268809666
    One-Electron Energy =               -1782.7309495379386135
    Two-Electron Energy =                 667.3199722294575622
    Total Energy =                       -703.1948516816000847
  Basis Set: (AUG-CC-PVTZ AUX)
    Blend: AUG-CC-PVTZ-RI
    Molecular point group: c1

    Geometry (in Angstrom), charge = 0, multiplicity = 1:

       Center              X                  Y                   Z               Mass
    ------------   -----------------  -----------------  -----------------  -----------------
         S           -0.964493279245    -1.095624113125     0.009466978588    31.972071174400
         O            2.001148720755    -1.266285113125     0.009180978588    15.994914619570
         C            0.166418720755     0.207945886875     0.009524978588    12.000000000000
         C           -0.479263279245     1.436360886875     0.009753978588    12.000000000000
         C            1.605766720755    -0.097122113125     0.009353978588    12.000000000000
         C           -1.885406279245     1.310377886875     0.009878978588    12.000000000000
         C            2.567238720755     1.070323086875    -0.090585021412    12.000000000000
         C           -2.288932279245    -0.010419113125     0.009741978588    12.000000000000
         H            0.047577720755     2.385494886875     0.009829978588     1.007825032230
         H           -2.577638279245     2.145920886875     0.010060978588     1.007825032230
         H            2.413011720755     1.695700886875    -0.875036021412     1.007825032230
         H            3.585196720755     0.679220886875     0.009174978588     1.007825032230
         H            2.413302720755     1.695338886875     0.894174978588     1.007825032230
         H           -3.302851279245    -0.392021113125     0.009786978588     1.007825032230

  Basis Set: AUG-CC-PVTZ
    Blend: AUG-CC-PVTZ
  Basis Set: (AUG-CC-PVTZ AUX)
    Blend: AUG-CC-PVTZ-JKFIT
	 Reference Energy          =    -703.1948516816000847 [Eh]
	 Singles Energy            =      -0.0000000000000000 [Eh]
	 Same-Spin Energy          =      -0.3850534196194678 [Eh]
	 Opposite-Spin Energy      =      -1.1760456371819279 [Eh]
	 Correlation Energy        =      -1.5610990568013956 [Eh]
	 Total Energy              =    -704.7559507384014523 [Eh]

	 ================> DF-SCS-MP2 Energies <==================
	-----------------------------------------------------------
	 SCS Same-Spin Scale       =       0.3333333333333333 [-]
	 SCS Opposite-Spin Scale   =       1.2000000000000000 [-]
	 SCS Same-Spin Energy      =      -0.1283511398731559 [Eh]
	 SCS Opposite-Spin Energy  =      -1.4112547646183133 [Eh]
	 SCS Correlation Energy    =      -1.5396059044914692 [Eh]
	 SCS Total Energy          =    -704.7344575860915938 [Eh]
	-----------------------------------------------------------

  Dipole Moment: [D]
     X:    -1.6135      Y:     3.0385      Z:    -0.0266     Total:     3.4404

*** Psi4 exiting successfully. Buy a developer a beer!
