                               Psi4 1.3.2 release

  ==> Input File <==

--------------------------------------------------------------------------
#psi4
#
memory 32 gb

molecule  {
0 1
  S       -0.9837490    -1.1570500    -0.0000620
  O        1.9818930    -1.3277110    -0.0003480
  C        0.1471630     0.1465200    -0.0000040
  C       -0.4985190     1.3749350     0.0002250
  C        1.5865110    -0.1585480    -0.0001750
  C       -1.9046620     1.2489520     0.0003500
  C        2.5479875     1.0088911    -0.0501140
  C       -2.3081880    -0.0718450     0.0002130
  H        0.0283220     2.3240690     0.0003010
  H       -2.5968940     2.0844950     0.0005320
  H        2.3937560     1.6342750    -0.8845650
  H        3.5659410     0.6177950    -0.0003540
  H        2.3940470     1.6339130     0.8846460
  H       -3.3221070    -0.4534470     0.0002580
units angstrom
no_reorient  #important for SAPT in psi4, default
symmetry c1  #important for SAPT in psi4, default
}

set PROPERTIES_ORIGIN ["COM"]
properties('MP2/aug-cc-pvtz', properties = ['dipole'])
--------------------------------------------------------------------------

    Molecular point group: c1
  Charge       = 0
  Multiplicity = 1
  Basis Set: AUG-CC-PVTZ
    Blend: AUG-CC-PVTZ
  Basis Set: (AUG-CC-PVTZ AUX)
    Blend: AUG-CC-PVTZ-JKFIT

    Orbital Energies [Eh]
    ---------------------

    Doubly Occupied:

       1A    -91.997699     2A    -20.546805     3A    -11.345586
       4A    -11.284571     5A    -11.274565     6A    -11.267343
       7A    -11.252857     8A    -11.241375     9A     -8.997481
      10A     -6.678315    11A     -6.677736    12A     -6.677091
      13A     -1.377820    14A     -1.187906    15A     -1.044246
      16A     -1.004168    17A     -0.983441    18A     -0.840663
      19A     -0.773198    20A     -0.727703    21A     -0.695010
      22A     -0.625866    23A     -0.619126    24A     -0.608664
      25A     -0.575970    26A     -0.558807    27A     -0.540097
      28A     -0.530408    29A     -0.493596    30A     -0.489282
      31A     -0.426272    32A     -0.360069    33A     -0.338277

  @DF-RHF Final Energy:  -703.20242312499010

   => Energetics <=

    Nuclear Repulsion Energy =            412.2467424936829730
    One-Electron Energy =               -1782.8143043858999590
    Two-Electron Energy =                 667.3651387672267674
    Total Energy =                       -703.2024231249901050
  Basis Set: (AUG-CC-PVTZ AUX)
    Blend: AUG-CC-PVTZ-RI
    Molecular point group: c1

    Geometry (in Angstrom), charge = 0, multiplicity = 1:

       Center              X                  Y                   Z               Mass
    ------------   -----------------  -----------------  -----------------  -----------------
         S           -0.964493707769    -1.095623532237     0.004705600449    31.972071174400
         O            2.001148292231    -1.266284532237     0.004419600449    15.994914619570
         C            0.166418292231     0.207946467763     0.004763600449    12.000000000000
         C           -0.479263707769     1.436361467763     0.004992600449    12.000000000000
         C            1.605766292231    -0.097121532237     0.004592600449    12.000000000000
         C           -1.885406707769     1.310378467763     0.005117600449    12.000000000000
         C            2.567242792231     1.070317567763    -0.045346399551    12.000000000000
         C           -2.288932707769    -0.010418532237     0.004980600449    12.000000000000
         H            0.047577292231     2.385495467763     0.005068600449     1.007825032230
         H           -2.577638707769     2.145921467763     0.005299600449     1.007825032230
         H            2.413011292231     1.695701467763    -0.879797399551     1.007825032230
         H            3.585196292231     0.679221467763     0.004413600449     1.007825032230
         H            2.413302292231     1.695339467763     0.889413600449     1.007825032230
         H           -3.302851707769    -0.392020532237     0.005025600449     1.007825032230

  Basis Set: AUG-CC-PVTZ
    Blend: AUG-CC-PVTZ
  Basis Set: (AUG-CC-PVTZ AUX)
    Blend: AUG-CC-PVTZ-JKFIT
	 Reference Energy          =    -703.2024231249901050 [Eh]
	 Singles Energy            =      -0.0000000000000000 [Eh]
	 Same-Spin Energy          =      -0.3849537960769244 [Eh]
	 Opposite-Spin Energy      =      -1.1757189189955155 [Eh]
	 Correlation Energy        =      -1.5606727150724398 [Eh]
	 Total Energy              =    -704.7630958400625332 [Eh]

	 ================> DF-SCS-MP2 Energies <==================
	-----------------------------------------------------------
	 SCS Same-Spin Scale       =       0.3333333333333333 [-]
	 SCS Opposite-Spin Scale   =       1.2000000000000000 [-]
	 SCS Same-Spin Energy      =      -0.1283179320256415 [Eh]
	 SCS Opposite-Spin Energy  =      -1.4108627027946186 [Eh]
	 SCS Correlation Energy    =      -1.5391806348202599 [Eh]
	 SCS Total Energy          =    -704.7416037598103458 [Eh]
	-----------------------------------------------------------

  Dipole Moment: [D]
     X:    -1.6121      Y:     3.0462      Z:    -0.0133     Total:     3.4465

*** Psi4 exiting successfully. Buy a developer a beer!
