                               Psi4 1.3.2 release

  ==> Input File <==

--------------------------------------------------------------------------
#psi4
#
memory 32 gb

molecule  {
0 1
  S       -0.9837490    -1.1570500    -0.0000620
  O        1.9818930    -1.3277110    -0.0003480
  C        0.1471630     0.1465200    -0.0000040
  C       -0.4985190     1.3749350     0.0002250
  C        1.5865110    -0.1585480    -0.0001750
  C       -1.9046620     1.2489520     0.0003500
  C        2.5479920     1.0088850    -0.0001140
  C       -2.3081880    -0.0718450     0.0002130
  H        0.0283070     2.3240892    -0.1496990
  H       -2.5968940     2.0844950     0.0005320
  H        2.3937560     1.6342750    -0.8845650
  H        3.5659410     0.6177950    -0.0003540
  H        2.3940470     1.6339130     0.8846460
  H       -3.3221070    -0.4534470     0.0002580
units angstrom
no_reorient  #important for SAPT in psi4, default
symmetry c1  #important for SAPT in psi4, default
}

set PROPERTIES_ORIGIN ["COM"]
properties('MP2/aug-cc-pvtz', properties = ['dipole'])
--------------------------------------------------------------------------

    Molecular point group: c1
  Charge       = 0
  Multiplicity = 1
  Basis Set: AUG-CC-PVTZ
    Blend: AUG-CC-PVTZ
  Basis Set: (AUG-CC-PVTZ AUX)
    Blend: AUG-CC-PVTZ-JKFIT

    Orbital Energies [Eh]
    ---------------------

    Doubly Occupied:

       1A    -91.997857     2A    -20.546853     3A    -11.345424
       4A    -11.284586     5A    -11.274817     6A    -11.268165
       7A    -11.252955     8A    -11.240974     9A     -8.997637
      10A     -6.678470    11A     -6.677891    12A     -6.677246
      13A     -1.377854    14A     -1.187959    15A     -1.044185
      16A     -1.003974    17A     -0.983217    18A     -0.840416
      19A     -0.772849    20A     -0.726058    21A     -0.694092
      22A     -0.623877    23A     -0.618367    24A     -0.610362
      25A     -0.575154    26A     -0.558024    27A     -0.541589
      28A     -0.530615    29A     -0.494258    30A     -0.489008
      31A     -0.426402    32A     -0.360000    33A     -0.338336

  @DF-RHF Final Energy:  -703.20355203619624

   => Energetics <=

    Nuclear Repulsion Energy =            412.2152081758253530
    One-Electron Energy =               -1782.7585761819771051
    Two-Electron Energy =                 667.3398159699554526
    Total Energy =                       -703.2035520361962426
  Basis Set: (AUG-CC-PVTZ AUX)
    Blend: AUG-CC-PVTZ-RI
    Molecular point group: c1

    Geometry (in Angstrom), charge = 0, multiplicity = 1:

       Center              X                  Y                   Z               Mass
    ------------   -----------------  -----------------  -----------------  -----------------
         S           -0.964494016327    -1.095623112903     0.001143881329    31.972071174400
         O            2.001147983673    -1.266284112903     0.000857881329    15.994914619570
         C            0.166417983673     0.207946887097     0.001201881329    12.000000000000
         C           -0.479264016327     1.436361887097     0.001430881329    12.000000000000
         C            1.605765983673    -0.097121112903     0.001030881329    12.000000000000
         C           -1.885407016327     1.310378887097     0.001555881329    12.000000000000
         C            2.567246983673     1.070311887097     0.001091881329    12.000000000000
         C           -2.288933016327    -0.010418112903     0.001418881329    12.000000000000
         H            0.047561983673     2.385516087097    -0.148493118671     1.007825032230
         H           -2.577639016327     2.145921887097     0.001737881329     1.007825032230
         H            2.413010983673     1.695701887097    -0.883359118671     1.007825032230
         H            3.585195983673     0.679221887097     0.000851881329     1.007825032230
         H            2.413301983673     1.695339887097     0.885851881329     1.007825032230
         H           -3.302852016327    -0.392020112903     0.001463881329     1.007825032230

  Basis Set: AUG-CC-PVTZ
    Blend: AUG-CC-PVTZ
  Basis Set: (AUG-CC-PVTZ AUX)
    Blend: AUG-CC-PVTZ-JKFIT
	 Reference Energy          =    -703.2035520361962426 [Eh]
	 Singles Energy            =      -0.0000000000000000 [Eh]
	 Same-Spin Energy          =      -0.3850176406746574 [Eh]
	 Opposite-Spin Energy      =      -1.1757888870747319 [Eh]
	 Correlation Energy        =      -1.5608065277493894 [Eh]
	 Total Energy              =    -704.7643585639456205 [Eh]

	 ================> DF-SCS-MP2 Energies <==================
	-----------------------------------------------------------
	 SCS Same-Spin Scale       =       0.3333333333333333 [-]
	 SCS Opposite-Spin Scale   =       1.2000000000000000 [-]
	 SCS Same-Spin Energy      =      -0.1283392135582191 [Eh]
	 SCS Opposite-Spin Energy  =      -1.4109466644896782 [Eh]
	 SCS Correlation Energy    =      -1.5392858780478973 [Eh]
	 SCS Total Energy          =    -704.7428379142440917 [Eh]
	-----------------------------------------------------------

  Dipole Moment: [D]
     X:    -1.6197      Y:     3.0335      Z:    -0.1122     Total:     3.4407

*** Psi4 exiting successfully. Buy a developer a beer!
