                               Psi4 1.3.2 release

  ==> Input File <==

--------------------------------------------------------------------------
#psi4
#
memory 32 gb

molecule  {
0 1
  S       -0.9837490    -1.1570500    -0.0000620
  O        1.9818930    -1.3277110    -0.0003480
  C        0.1471630     0.1465200    -0.0000040
  C       -0.4985190     1.3749350     0.0002250
  C        1.5865110    -0.1585480    -0.0001750
  C       -1.9046620     1.2489520     0.0003500
  C        2.5479741     1.0089094    -0.2001140
  C       -2.3081880    -0.0718450     0.0002130
  H        0.0283220     2.3240690     0.0003010
  H       -2.5968940     2.0844950     0.0005320
  H        2.3937560     1.6342750    -0.8845650
  H        3.5659410     0.6177950    -0.0003540
  H        2.3940470     1.6339130     0.8846460
  H       -3.3221070    -0.4534470     0.0002580
units angstrom
no_reorient  #important for SAPT in psi4, default
symmetry c1  #important for SAPT in psi4, default
}

set PROPERTIES_ORIGIN ["COM"]
properties('MP2/aug-cc-pvtz', properties = ['dipole'])
--------------------------------------------------------------------------

    Molecular point group: c1
  Charge       = 0
  Multiplicity = 1
  Basis Set: AUG-CC-PVTZ
    Blend: AUG-CC-PVTZ
  Basis Set: (AUG-CC-PVTZ AUX)
    Blend: AUG-CC-PVTZ-JKFIT

    Orbital Energies [Eh]
    ---------------------

    Doubly Occupied:

       1A    -91.997914     2A    -20.547739     3A    -11.348913
       4A    -11.284637     5A    -11.275024     6A    -11.267297
       7A    -11.252931     8A    -11.246699     9A     -8.997693
      10A     -6.678527    11A     -6.677950    12A     -6.677301
      13A     -1.378696    14A     -1.188044    15A     -1.044989
      16A     -1.004321    17A     -0.985337    18A     -0.842885
      19A     -0.773334    20A     -0.729070    21A     -0.707675
      22A     -0.642518    23A     -0.617969    24A     -0.602836
      25A     -0.576015    26A     -0.562374    27A     -0.532811
      28A     -0.520360    29A     -0.489818    30A     -0.483386
      31A     -0.425514    32A     -0.360111    33A     -0.338359

  @DF-RHF Final Energy:  -703.16406369957042

   => Energetics <=

    Nuclear Repulsion Energy =            412.0947366686017403
    One-Electron Energy =               -1782.3995098233078807
    Two-Electron Energy =                 667.1407094551358341
    Total Energy =                       -703.1640636995704199
  Basis Set: (AUG-CC-PVTZ AUX)
    Blend: AUG-CC-PVTZ-RI
    Molecular point group: c1

    Geometry (in Angstrom), charge = 0, multiplicity = 1:

       Center              X                  Y                   Z               Mass
    ------------   -----------------  -----------------  -----------------  -----------------
         S           -0.964492431720    -1.095625274902     0.018989734866    31.972071174400
         O            2.001149568280    -1.266286274902     0.018703734866    15.994914619570
         C            0.166419568280     0.207944725098     0.019047734866    12.000000000000
         C           -0.479262431720     1.436359725098     0.019276734866    12.000000000000
         C            1.605767568280    -0.097123274902     0.018876734866    12.000000000000
         C           -1.885405431720     1.310376725098     0.019401734866    12.000000000000
         C            2.567230668280     1.070334125098    -0.181062265134    12.000000000000
         C           -2.288931431720    -0.010420274902     0.019264734866    12.000000000000
         H            0.047578568280     2.385493725098     0.019352734866     1.007825032230
         H           -2.577637431720     2.145919725098     0.019583734866     1.007825032230
         H            2.413012568280     1.695699725098    -0.865513265134     1.007825032230
         H            3.585197568280     0.679219725098     0.018697734866     1.007825032230
         H            2.413303568280     1.695337725098     0.903697734866     1.007825032230
         H           -3.302850431720    -0.392022274902     0.019309734866     1.007825032230

  Basis Set: AUG-CC-PVTZ
    Blend: AUG-CC-PVTZ
  Basis Set: (AUG-CC-PVTZ AUX)
    Blend: AUG-CC-PVTZ-JKFIT
	 Reference Energy          =    -703.1640636995704199 [Eh]
	 Singles Energy            =      -0.0000000000000000 [Eh]
	 Same-Spin Energy          =      -0.3854582113120154 [Eh]
	 Opposite-Spin Energy      =      -1.1773999422580850 [Eh]
	 Correlation Energy        =      -1.5628581535701005 [Eh]
	 Total Energy              =    -704.7269218531405386 [Eh]

	 ================> DF-SCS-MP2 Energies <==================
	-----------------------------------------------------------
	 SCS Same-Spin Scale       =       0.3333333333333333 [-]
	 SCS Opposite-Spin Scale   =       1.2000000000000000 [-]
	 SCS Same-Spin Energy      =      -0.1284860704373385 [Eh]
	 SCS Opposite-Spin Energy  =      -1.4128799307097020 [Eh]
	 SCS Correlation Energy    =      -1.5413660011470405 [Eh]
	 SCS Total Energy          =    -704.7054297007174455 [Eh]
	-----------------------------------------------------------

  Dipole Moment: [D]
     X:    -1.6201      Y:     3.0094      Z:    -0.0494     Total:     3.4182

*** Psi4 exiting successfully. Buy a developer a beer!
