                               Psi4 1.4a3.dev225

  ==> Input File <==

--------------------------------------------------------------------------
#psi4
#
memory 32 gb

molecule  {
0 1
  O       -0.4983720     2.1660820    -0.3008080
  O        1.7439460     0.8852250     1.1595980
  N        2.0846670    -0.6693810    -0.4855240
  C       -0.1747200    -0.1425440     0.1301780
  C       -1.0501490     0.9240530    -0.1297870
  C       -0.6950920    -1.4344860     0.2644570
  C        1.2926210     0.1057900     0.3196980
  C       -2.4223480     0.6871570    -0.2466200
  C       -2.0666220    -1.6719060     0.1573390
  C       -2.9283400    -0.6051620    -0.0964900
  C        3.5272930    -0.5029810    -0.4769650
  H       -0.0118380    -2.2529100     0.4809780
  H       -3.0973410     1.5164000    -0.4561860
  H       -2.4584240    -2.6782030     0.2778980
  H       -3.9991860    -0.7724420    -0.1829770
  H        1.6477640    -1.1074140    -1.2860730
  H        3.8263504     0.3756983    -1.0589080
  H        3.9959260    -1.4118430    -0.8588240
  H        3.8425270    -0.3337350     0.5522170
  H       -1.2204240     2.8028430    -0.4486720
units angstrom
no_reorient  #important for SAPT in psi4, default
symmetry c1  #important for SAPT in psi4, default
}

set PROPERTIES_ORIGIN ["COM"]
properties('MP2/aug-cc-pvtz', properties = ['dipole'])
--------------------------------------------------------------------------

    Molecular point group: c1
  Charge       = 0
  Multiplicity = 1
  Basis Set: AUG-CC-PVTZ
    Blend: AUG-CC-PVTZ
  Basis Set: (AUG-CC-PVTZ AUX)
    Blend: AUG-CC-PVTZ-JKFIT

    Orbital Energies [Eh]
    ---------------------

    Doubly Occupied:

       1A    -20.597708     2A    -20.513089     3A    -15.583551
       4A    -11.349907     5A    -11.320337     6A    -11.257280
       7A    -11.256700     8A    -11.255944     9A    -11.249429
      10A    -11.246508    11A    -11.240359    12A     -1.409919
      13A     -1.367005    14A     -1.225290    15A     -1.159973
      16A     -1.046681    17A     -1.017633    18A     -0.950149
      19A     -0.865102    20A     -0.844133    21A     -0.783148
      22A     -0.742161    23A     -0.723358    24A     -0.675134
      25A     -0.647799    26A     -0.636161    27A     -0.619313
      28A     -0.612942    29A     -0.595900    30A     -0.586496
      31A     -0.575116    32A     -0.545602    33A     -0.535654
      34A     -0.522619    35A     -0.510754    36A     -0.489742
      37A     -0.421399    38A     -0.388634    39A     -0.354287
      40A     -0.326094

  @DF-RHF Final Energy:  -512.55192432486274

   => Energetics <=

    Nuclear Repulsion Energy =            587.2190329960658346
    One-Electron Energy =               -1863.4438996724272783
    Two-Electron Energy =                 763.6729423514987047
    Total Energy =                       -512.5519243248627390
  Basis Set: (AUG-CC-PVTZ AUX)
    Blend: AUG-CC-PVTZ-RI
    Molecular point group: c1

    Geometry (in Angstrom), charge = 0, multiplicity = 1:

       Center              X                  Y                   Z               Mass
    ------------   -----------------  -----------------  -----------------  -----------------
         O           -0.481501111564     2.140534884023    -0.320636070624    15.994914619570
         O            1.760816888436     0.859677884023     1.139769929376    15.994914619570
         N            2.101537888436    -0.694928115977    -0.505352070624    14.003074004430
         C           -0.157849111564    -0.168091115977     0.110349929376    12.000000000000
         C           -1.033278111564     0.898505884023    -0.149615070624    12.000000000000
         C           -0.678221111564    -1.460033115977     0.244628929376    12.000000000000
         C            1.309491888436     0.080242884023     0.299869929376    12.000000000000
         C           -2.405477111564     0.661609884023    -0.266448070624    12.000000000000
         C           -2.049751111564    -1.697453115977     0.137510929376    12.000000000000
         C           -2.911469111564    -0.630709115977    -0.116318070624    12.000000000000
         C            3.544163888436    -0.528528115977    -0.496793070624    12.000000000000
         H            0.005032888436    -2.278457115977     0.461149929376     1.007825032230
         H           -3.080470111564     1.490852884023    -0.476014070624     1.007825032230
         H           -2.441553111564    -2.703750115977     0.258069929376     1.007825032230
         H           -3.982315111564    -0.797989115977    -0.202805070624     1.007825032230
         H            1.664634888436    -1.132961115977    -1.305901070624     1.007825032230
         H            3.843221288436     0.350151184023    -1.078736070624     1.007825032230
         H            4.012796888436    -1.437390115977    -0.878652070624     1.007825032230
         H            3.859397888436    -0.359282115977     0.532388929376     1.007825032230
         H           -1.203553111564     2.777295884023    -0.468500070624     1.007825032230

  Basis Set: AUG-CC-PVTZ
    Blend: AUG-CC-PVTZ
  Basis Set: (AUG-CC-PVTZ AUX)
    Blend: AUG-CC-PVTZ-JKFIT
	 Reference Energy          =    -512.5519243248627390 [Eh]
	 Singles Energy            =      -0.0000000000000000 [Eh]
	 Same-Spin Energy          =      -0.5370789302565826 [Eh]
	 Opposite-Spin Energy      =      -1.6461058964030424 [Eh]
	 Correlation Energy        =      -2.1831848266596250 [Eh]
	 Total Energy              =    -514.7351091515223516 [Eh]

	 ================> DF-SCS-MP2 Energies <==================
	-----------------------------------------------------------
	 SCS Same-Spin Scale       =       0.3333333333333333 [-]
	 SCS Opposite-Spin Scale   =       1.2000000000000000 [-]
	 SCS Same-Spin Energy      =      -0.1790263100855275 [Eh]
	 SCS Opposite-Spin Energy  =      -1.9753270756836507 [Eh]
	 SCS Correlation Energy    =      -2.1543533857691783 [Eh]
	 SCS Total Energy          =    -514.7062777106318663 [Eh]
	-----------------------------------------------------------

  Dipole Moment: [D]
     X:    -1.7048      Y:    -1.5801      Z:    -2.9672     Total:     3.7692

*** Psi4 exiting successfully. Buy a developer a beer!
