                               Psi4 1.4a3.dev225

  ==> Input File <==

--------------------------------------------------------------------------
#psi4
#
memory 32 gb

molecule  {
0 1
  O       -0.4983720     2.1660820    -0.3008080
  O        1.7439460     0.8852250     1.1595980
  N        2.0846670    -0.6693810    -0.4855240
  C       -0.1747200    -0.1425440     0.1301780
  C       -1.0501490     0.9240530    -0.1297870
  C       -0.6833527    -1.5297848     0.2810509
  C        1.2926210     0.1057900     0.3196980
  C       -2.4223480     0.6871570    -0.2466200
  C       -2.0666220    -1.6719060     0.1573390
  C       -2.9283400    -0.6051620    -0.0964900
  C        3.5272930    -0.5029810    -0.4769650
  H       -0.0118380    -2.2529100     0.4809780
  H       -3.0973410     1.5164000    -0.4561860
  H       -2.4584240    -2.6782030     0.2778980
  H       -3.9991860    -0.7724420    -0.1829770
  H        1.6477640    -1.1074140    -1.2860730
  H        3.8478870     0.3529870    -1.0808760
  H        3.9959260    -1.4118430    -0.8588240
  H        3.8425270    -0.3337350     0.5522170
  H       -1.2204240     2.8028430    -0.4486720
units angstrom
no_reorient  #important for SAPT in psi4, default
symmetry c1  #important for SAPT in psi4, default
}

set PROPERTIES_ORIGIN ["COM"]
properties('MP2/aug-cc-pvtz', properties = ['dipole'])
--------------------------------------------------------------------------

    Molecular point group: c1
  Charge       = 0
  Multiplicity = 1
  Basis Set: AUG-CC-PVTZ
    Blend: AUG-CC-PVTZ
  Basis Set: (AUG-CC-PVTZ AUX)
    Blend: AUG-CC-PVTZ-JKFIT

    Orbital Energies [Eh]
    ---------------------

    Doubly Occupied:

       1A    -20.597187     2A    -20.511503     3A    -15.582987
       4A    -11.348172     5A    -11.319752     6A    -11.260360
       7A    -11.258256     8A    -11.256029     9A    -11.255389
      10A    -11.250338    11A    -11.243713    12A     -1.409411
      13A     -1.365542    14A     -1.224153    15A     -1.152862
      16A     -1.040063    17A     -1.021345    18A     -0.948936
      19A     -0.871684    20A     -0.840844    21A     -0.780498
      22A     -0.747166    23A     -0.722716    24A     -0.675890
      25A     -0.648448    26A     -0.634932    27A     -0.627426
      28A     -0.613479    29A     -0.594651    30A     -0.588247
      31A     -0.570546    32A     -0.544585    33A     -0.534659
      34A     -0.525975    35A     -0.508228    36A     -0.486261
      37A     -0.418869    38A     -0.388194    39A     -0.347039
      40A     -0.328155

  @DF-RHF Final Energy:  -512.53848537202157

   => Energetics <=

    Nuclear Repulsion Energy =            585.4366045252438653
    One-Electron Energy =               -1859.8612014445391196
    Two-Electron Energy =                 761.8861115472736856
    Total Energy =                       -512.5384853720215688
  Basis Set: (AUG-CC-PVTZ AUX)
    Blend: AUG-CC-PVTZ-RI
    Molecular point group: c1

    Geometry (in Angstrom), charge = 0, multiplicity = 1:

       Center              X                  Y                   Z               Mass
    ------------   -----------------  -----------------  -----------------  -----------------
         O           -0.482577327255     2.148256643023    -0.321807677932    15.994914619570
         O            1.759740672745     0.867399643023     1.138598322068    15.994914619570
         N            2.100461672745    -0.687206356977    -0.506523677932    14.003074004430
         C           -0.158925327255    -0.160369356977     0.109178322068    12.000000000000
         C           -1.034354327255     0.906227643023    -0.150786677932    12.000000000000
         C           -0.667558027255    -1.547610156977     0.260051222068    12.000000000000
         C            1.308415672745     0.087964643023     0.298698322068    12.000000000000
         C           -2.406553327255     0.669331643023    -0.267619677932    12.000000000000
         C           -2.050827327255    -1.689731356977     0.136339322068    12.000000000000
         C           -2.912545327255    -0.622987356977    -0.117489677932    12.000000000000
         C            3.543087672745    -0.520806356977    -0.497964677932    12.000000000000
         H            0.003956672745    -2.270735356977     0.459978322068     1.007825032230
         H           -3.081546327255     1.498574643023    -0.477185677932     1.007825032230
         H           -2.442629327255    -2.696028356977     0.256898322068     1.007825032230
         H           -3.983391327255    -0.790267356977    -0.203976677932     1.007825032230
         H            1.663558672745    -1.125239356977    -1.307072677932     1.007825032230
         H            3.863681672745     0.335161643023    -1.101875677932     1.007825032230
         H            4.011720672745    -1.429668356977    -0.879823677932     1.007825032230
         H            3.858321672745    -0.351560356977     0.531217322068     1.007825032230
         H           -1.204629327255     2.785017643023    -0.469671677932     1.007825032230

  Basis Set: AUG-CC-PVTZ
    Blend: AUG-CC-PVTZ
  Basis Set: (AUG-CC-PVTZ AUX)
    Blend: AUG-CC-PVTZ-JKFIT
	 Reference Energy          =    -512.5384853720215688 [Eh]
	 Singles Energy            =      -0.0000000000000000 [Eh]
	 Same-Spin Energy          =      -0.5373269453991967 [Eh]
	 Opposite-Spin Energy      =      -1.6472976351007405 [Eh]
	 Correlation Energy        =      -2.1846245804999374 [Eh]
	 Total Energy              =    -514.7231099525215541 [Eh]

	 ================> DF-SCS-MP2 Energies <==================
	-----------------------------------------------------------
	 SCS Same-Spin Scale       =       0.3333333333333333 [-]
	 SCS Opposite-Spin Scale   =       1.2000000000000000 [-]
	 SCS Same-Spin Energy      =      -0.1791089817997322 [Eh]
	 SCS Opposite-Spin Energy  =      -1.9767571621208884 [Eh]
	 SCS Correlation Energy    =      -2.1558661439206204 [Eh]
	 SCS Total Energy          =    -514.6943515159422304 [Eh]
	-----------------------------------------------------------

  Dipole Moment: [D]
     X:    -1.7805      Y:    -1.5890      Z:    -2.9704     Total:     3.8103

*** Psi4 exiting successfully. Buy a developer a beer!
