                               Psi4 1.4a3.dev225

  ==> Input File <==

--------------------------------------------------------------------------
#psi4
#
memory 32 gb

molecule  {
0 1
  O       -0.4983720     2.1660820    -0.3008080
  O        1.7439460     0.8852250     1.1595980
  N        2.0846670    -0.6693810    -0.4855240
  C       -0.1747200    -0.1425440     0.1301780
  C       -1.0501490     0.9240530    -0.1297870
  C       -0.6883828    -1.4820197     0.2728243
  C        1.2926210     0.1057900     0.3196980
  C       -2.4223480     0.6871570    -0.2466200
  C       -2.0666220    -1.6719060     0.1573390
  C       -2.9283400    -0.6051620    -0.0964900
  C        3.5272930    -0.5029810    -0.4769650
  H       -0.0118380    -2.2529100     0.4809780
  H       -3.0973410     1.5164000    -0.4561860
  H       -2.4584240    -2.6782030     0.2778980
  H       -3.9991860    -0.7724420    -0.1829770
  H        1.6477640    -1.1074140    -1.2860730
  H        3.8478870     0.3529870    -1.0808760
  H        3.9959260    -1.4118430    -0.8588240
  H        3.8425270    -0.3337350     0.5522170
  H       -1.2204240     2.8028430    -0.4486720
units angstrom
no_reorient  #important for SAPT in psi4, default
symmetry c1  #important for SAPT in psi4, default
}

set PROPERTIES_ORIGIN ["COM"]
properties('MP2/aug-cc-pvtz', properties = ['dipole'])
--------------------------------------------------------------------------

    Molecular point group: c1
  Charge       = 0
  Multiplicity = 1
  Basis Set: AUG-CC-PVTZ
    Blend: AUG-CC-PVTZ
  Basis Set: (AUG-CC-PVTZ AUX)
    Blend: AUG-CC-PVTZ-JKFIT

    Orbital Energies [Eh]
    ---------------------

    Doubly Occupied:

       1A    -20.597433     2A    -20.512285     3A    -15.583460
       4A    -11.349068     5A    -11.320042     6A    -11.258784
       7A    -11.257450     8A    -11.255688     9A    -11.252893
      10A    -11.248393    11A    -11.241870    12A     -1.409650
      13A     -1.366275    14A     -1.224743    15A     -1.156108
      16A     -1.043197    17A     -1.019484    18A     -0.949540
      19A     -0.868215    20A     -0.842311    21A     -0.781710
      22A     -0.744373    23A     -0.723285    24A     -0.674642
      25A     -0.648336    26A     -0.635464    27A     -0.623325
      28A     -0.613605    29A     -0.595138    30A     -0.587255
      31A     -0.572784    32A     -0.544906    33A     -0.534667
      34A     -0.524791    35A     -0.511179    36A     -0.487861
      37A     -0.420281    38A     -0.388533    39A     -0.350356
      40A     -0.327251

  @DF-RHF Final Energy:  -512.54835292508074

   => Energetics <=

    Nuclear Repulsion Energy =            586.2908243508807118
    One-Electron Energy =               -1861.5850914534016738
    Two-Electron Energy =                 762.7459141774402269
    Total Energy =                       -512.5483529250807351
  Basis Set: (AUG-CC-PVTZ AUX)
    Blend: AUG-CC-PVTZ-RI
    Molecular point group: c1

    Geometry (in Angstrom), charge = 0, multiplicity = 1:

       Center              X                  Y                   Z               Mass
    ------------   -----------------  -----------------  -----------------  -----------------
         O           -0.482177751789     2.144462332349    -0.321154182468    15.994914619570
         O            1.760140248211     0.863605332349     1.139251817532    15.994914619570
         N            2.100861248211    -0.691000667651    -0.505870182468    14.003074004430
         C           -0.158525751789    -0.164163667651     0.109831817532    12.000000000000
         C           -1.033954751789     0.902433332349    -0.150133182468    12.000000000000
         C           -0.672188551789    -1.503639367651     0.252478117532    12.000000000000
         C            1.308815248211     0.084170332349     0.299351817532    12.000000000000
         C           -2.406153751789     0.665537332349    -0.266966182468    12.000000000000
         C           -2.050427751789    -1.693525667651     0.136992817532    12.000000000000
         C           -2.912145751789    -0.626781667651    -0.116836182468    12.000000000000
         C            3.543487248211    -0.524600667651    -0.497311182468    12.000000000000
         H            0.004356248211    -2.274529667651     0.460631817532     1.007825032230
         H           -3.081146751789     1.494780332349    -0.476532182468     1.007825032230
         H           -2.442229751789    -2.699822667651     0.257551817532     1.007825032230
         H           -3.982991751789    -0.794061667651    -0.203323182468     1.007825032230
         H            1.663958248211    -1.129033667651    -1.306419182468     1.007825032230
         H            3.864081248211     0.331367332349    -1.101222182468     1.007825032230
         H            4.012120248211    -1.433462667651    -0.879170182468     1.007825032230
         H            3.858721248211    -0.355354667651     0.531870817532     1.007825032230
         H           -1.204229751789     2.781223332349    -0.469018182468     1.007825032230

  Basis Set: AUG-CC-PVTZ
    Blend: AUG-CC-PVTZ
  Basis Set: (AUG-CC-PVTZ AUX)
    Blend: AUG-CC-PVTZ-JKFIT
	 Reference Energy          =    -512.5483529250807351 [Eh]
	 Singles Energy            =      -0.0000000000000000 [Eh]
	 Same-Spin Energy          =      -0.5371536951652682 [Eh]
	 Opposite-Spin Energy      =      -1.6464985663041558 [Eh]
	 Correlation Energy        =      -2.1836522614694243 [Eh]
	 Total Energy              =    -514.7320051865501682 [Eh]

	 ================> DF-SCS-MP2 Energies <==================
	-----------------------------------------------------------
	 SCS Same-Spin Scale       =       0.3333333333333333 [-]
	 SCS Opposite-Spin Scale   =       1.2000000000000000 [-]
	 SCS Same-Spin Energy      =      -0.1790512317217561 [Eh]
	 SCS Opposite-Spin Energy  =      -1.9757982795649869 [Eh]
	 SCS Correlation Energy    =      -2.1548495112867427 [Eh]
	 SCS Total Energy          =    -514.7032024363675191 [Eh]
	-----------------------------------------------------------

  Dipole Moment: [D]
     X:    -1.7420      Y:    -1.5871      Z:    -2.9715     Total:     3.7925

*** Psi4 exiting successfully. Buy a developer a beer!
