                               Psi4 1.4a3.dev225

  ==> Input File <==

--------------------------------------------------------------------------
#psi4
#
memory 32 gb

molecule  {
0 1
  O       -0.4983720     2.1660820    -0.3008080
  O        1.7439460     0.8852250     1.1595980
  N        2.0846670    -0.6693810    -0.4855240
  C       -0.1747200    -0.1425440     0.1301780
  C       -1.0501490     0.9240530    -0.1297870
  C       -0.6950920    -1.4344860     0.2644570
  C        1.2926210     0.1057900     0.3196980
  C       -2.4223480     0.6871570    -0.2466200
  C       -2.0666220    -1.6719060     0.1573390
  C       -2.9283400    -0.6051620    -0.0964900
  C        3.5272930    -0.5029810    -0.4769650
  H       -0.0118380    -2.2529100     0.4809780
  H       -3.0973410     1.5164000    -0.4561860
  H       -2.4584240    -2.6782030     0.2778980
  H       -3.9991860    -0.7724420    -0.1829770
  H        1.6477640    -1.1074140    -1.2860730
  H        3.7893590     0.1967204    -0.9706253
  H        3.9959260    -1.4118430    -0.8588240
  H        3.8425270    -0.3337350     0.5522170
  H       -1.2204240     2.8028430    -0.4486720
units angstrom
no_reorient  #important for SAPT in psi4, default
symmetry c1  #important for SAPT in psi4, default
}

set PROPERTIES_ORIGIN ["COM"]
properties('MP2/aug-cc-pvtz', properties = ['dipole'])
--------------------------------------------------------------------------

    Molecular point group: c1
  Charge       = 0
  Multiplicity = 1
  Basis Set: AUG-CC-PVTZ
    Blend: AUG-CC-PVTZ
  Basis Set: (AUG-CC-PVTZ AUX)
    Blend: AUG-CC-PVTZ-JKFIT

    Orbital Energies [Eh]
    ---------------------

    Doubly Occupied:

       1A    -20.597416     2A    -20.512025     3A    -15.581831
       4A    -11.349255     5A    -11.319945     6A    -11.256828
       7A    -11.256340     8A    -11.248946     9A    -11.246165
      10A    -11.239987    11A    -11.231522    12A     -1.409611
      13A     -1.366242    14A     -1.225619    15A     -1.159690
      16A     -1.047682    17A     -1.017314    18A     -0.970582
      19A     -0.866806    20A     -0.846339    21A     -0.783936
      22A     -0.742014    23A     -0.724362    24A     -0.675831
      25A     -0.661825    26A     -0.642986    27A     -0.626210
      28A     -0.613613    29A     -0.596277    30A     -0.586209
      31A     -0.574607    32A     -0.543874    33A     -0.539577
      34A     -0.524757    35A     -0.513103    36A     -0.489981
      37A     -0.420798    38A     -0.391155    39A     -0.353867
      40A     -0.325745

  @DF-RHF Final Energy:  -512.51877169435465

   => Energetics <=

    Nuclear Repulsion Energy =            588.1649224379275438
    One-Electron Energy =               -1865.2056471943747056
    Two-Electron Energy =                 764.5219530620925070
    Total Energy =                       -512.5187716943546548
  Basis Set: (AUG-CC-PVTZ AUX)
    Blend: AUG-CC-PVTZ-RI
    Molecular point group: c1

    Geometry (in Angstrom), charge = 0, multiplicity = 1:

       Center              X                  Y                   Z               Mass
    ------------   -----------------  -----------------  -----------------  -----------------
         O           -0.481254321961     2.141728942234    -0.321225052185    15.994914619570
         O            1.761063678039     0.860871942234     1.139180947815    15.994914619570
         N            2.101784678039    -0.693734057766    -0.505941052185    14.003074004430
         C           -0.157602321961    -0.166897057766     0.109760947815    12.000000000000
         C           -1.033031321961     0.899699942234    -0.150204052185    12.000000000000
         C           -0.677974321961    -1.458839057766     0.244039947815    12.000000000000
         C            1.309738678039     0.081436942234     0.299280947815    12.000000000000
         C           -2.405230321961     0.662803942234    -0.267037052185    12.000000000000
         C           -2.049504321961    -1.696259057766     0.136921947815    12.000000000000
         C           -2.911222321961    -0.629515057766    -0.116907052185    12.000000000000
         C            3.544410678039    -0.527334057766    -0.497382052185    12.000000000000
         H            0.005279678039    -2.277263057766     0.460560947815     1.007825032230
         H           -3.080223321961     1.492046942234    -0.476603052185     1.007825032230
         H           -2.441306321961    -2.702556057766     0.257480947815     1.007825032230
         H           -3.982068321961    -0.796795057766    -0.203394052185     1.007825032230
         H            1.664881678039    -1.131767057766    -1.306490052185     1.007825032230
         H            3.806476678039     0.172367342234    -0.991042352185     1.007825032230
         H            4.013043678039    -1.436196057766    -0.879241052185     1.007825032230
         H            3.859644678039    -0.358088057766     0.531799947815     1.007825032230
         H           -1.203306321961     2.778489942234    -0.469089052185     1.007825032230

  Basis Set: AUG-CC-PVTZ
    Blend: AUG-CC-PVTZ
  Basis Set: (AUG-CC-PVTZ AUX)
    Blend: AUG-CC-PVTZ-JKFIT
	 Reference Energy          =    -512.5187716943546548 [Eh]
	 Singles Energy            =      -0.0000000000000000 [Eh]
	 Same-Spin Energy          =      -0.5371533175067711 [Eh]
	 Opposite-Spin Energy      =      -1.6454488692799520 [Eh]
	 Correlation Energy        =      -2.1826021867867231 [Eh]
	 Total Energy              =    -514.7013738811414214 [Eh]

	 ================> DF-SCS-MP2 Energies <==================
	-----------------------------------------------------------
	 SCS Same-Spin Scale       =       0.3333333333333333 [-]
	 SCS Opposite-Spin Scale   =       1.2000000000000000 [-]
	 SCS Same-Spin Energy      =      -0.1790511058355904 [Eh]
	 SCS Opposite-Spin Energy  =      -1.9745386431359424 [Eh]
	 SCS Correlation Energy    =      -2.1535897489715325 [Eh]
	 SCS Total Energy          =    -514.6723614433261673 [Eh]
	-----------------------------------------------------------

  Dipole Moment: [D]
     X:    -1.6149      Y:    -1.5453      Z:    -3.0253     Total:     3.7614

*** Psi4 exiting successfully. Buy a developer a beer!
