                               Psi4 1.4a3.dev225

  ==> Input File <==

--------------------------------------------------------------------------
#psi4
#
memory 32 gb

molecule  {
0 1
  O       -0.4983720     2.1660820    -0.3008080
  O        1.7439460     0.8852250     1.1595980
  N        2.0846670    -0.6693810    -0.4855240
  C       -0.1747200    -0.1425440     0.1301780
  C       -1.0501490     0.9240530    -0.1297870
  C       -0.6950920    -1.4344860     0.2644570
  C        1.3415250     0.1140666     0.3260144
  C       -2.4223480     0.6871570    -0.2466200
  C       -2.0666220    -1.6719060     0.1573390
  C       -2.9283400    -0.6051620    -0.0964900
  C        3.5272930    -0.5029810    -0.4769650
  H       -0.0118380    -2.2529100     0.4809780
  H       -3.0973410     1.5164000    -0.4561860
  H       -2.4584240    -2.6782030     0.2778980
  H       -3.9991860    -0.7724420    -0.1829770
  H        1.6477640    -1.1074140    -1.2860730
  H        3.8478870     0.3529870    -1.0808760
  H        3.9959260    -1.4118430    -0.8588240
  H        3.8425270    -0.3337350     0.5522170
  H       -1.2204240     2.8028430    -0.4486720
units angstrom
no_reorient  #important for SAPT in psi4, default
symmetry c1  #important for SAPT in psi4, default
}

set PROPERTIES_ORIGIN ["COM"]
properties('MP2/aug-cc-pvtz', properties = ['dipole'])
--------------------------------------------------------------------------

    Molecular point group: c1
  Charge       = 0
  Multiplicity = 1
  Basis Set: AUG-CC-PVTZ
    Blend: AUG-CC-PVTZ
  Basis Set: (AUG-CC-PVTZ AUX)
    Blend: AUG-CC-PVTZ-JKFIT

    Orbital Energies [Eh]
    ---------------------

    Doubly Occupied:

       1A    -20.595367     2A    -20.516464     3A    -15.585926
       4A    -11.349156     5A    -11.316344     6A    -11.257625
       7A    -11.253401     8A    -11.253196     9A    -11.247524
      10A    -11.243962    11A    -11.237798    12A     -1.407892
      13A     -1.384492    14A     -1.235959    15A     -1.156037
      16A     -1.039477    17A     -1.014213    18A     -0.952154
      19A     -0.859333    20A     -0.838770    21A     -0.789413
      22A     -0.739924    23A     -0.720984    24A     -0.672635
      25A     -0.647354    26A     -0.640999    27A     -0.623122
      28A     -0.611332    29A     -0.594715    30A     -0.584173
      31A     -0.573381    32A     -0.549958    33A     -0.537236
      34A     -0.525260    35A     -0.511906    36A     -0.488456
      37A     -0.418949    38A     -0.394829    39A     -0.351116
      40A     -0.323103

  @DF-RHF Final Energy:  -512.55208876348047

   => Energetics <=

    Nuclear Repulsion Energy =            587.0586187534005376
    One-Electron Energy =               -1863.1335452932728458
    Two-Electron Energy =                 763.5228377763917251
    Total Energy =                       -512.5520887634804694
  Basis Set: (AUG-CC-PVTZ AUX)
    Blend: AUG-CC-PVTZ-RI
    Molecular point group: c1

    Geometry (in Angstrom), charge = 0, multiplicity = 1:

       Center              X                  Y                   Z               Mass
    ------------   -----------------  -----------------  -----------------  -----------------
         O           -0.485529575192     2.140028936060    -0.320991265364    15.994914619570
         O            1.756788424808     0.859171936060     1.139414734636    15.994914619570
         N            2.097509424808    -0.695434063940    -0.505707265364    14.003074004430
         C           -0.161877575192    -0.168597063940     0.109994734636    12.000000000000
         C           -1.037306575192     0.897999936060    -0.149970265364    12.000000000000
         C           -0.682249575192    -1.460539063940     0.244273734636    12.000000000000
         C            1.354367424808     0.088013536060     0.305831134636    12.000000000000
         C           -2.409505575192     0.661103936060    -0.266803265364    12.000000000000
         C           -2.053779575192    -1.697959063940     0.137155734636    12.000000000000
         C           -2.915497575192    -0.631215063940    -0.116673265364    12.000000000000
         C            3.540135424808    -0.529034063940    -0.497148265364    12.000000000000
         H            0.001004424808    -2.278963063940     0.460794734636     1.007825032230
         H           -3.084498575192     1.490346936060    -0.476369265364     1.007825032230
         H           -2.445581575192    -2.704256063940     0.257714734636     1.007825032230
         H           -3.986343575192    -0.798495063940    -0.203160265364     1.007825032230
         H            1.660606424808    -1.133467063940    -1.306256265364     1.007825032230
         H            3.860729424808     0.326933936060    -1.101059265364     1.007825032230
         H            4.008768424808    -1.437896063940    -0.879007265364     1.007825032230
         H            3.855369424808    -0.359788063940     0.532033734636     1.007825032230
         H           -1.207581575192     2.776789936060    -0.468855265364     1.007825032230

  Basis Set: AUG-CC-PVTZ
    Blend: AUG-CC-PVTZ
  Basis Set: (AUG-CC-PVTZ AUX)
    Blend: AUG-CC-PVTZ-JKFIT
	 Reference Energy          =    -512.5520887634804694 [Eh]
	 Singles Energy            =      -0.0000000000000000 [Eh]
	 Same-Spin Energy          =      -0.5362771169240103 [Eh]
	 Opposite-Spin Energy      =      -1.6444195371385455 [Eh]
	 Correlation Energy        =      -2.1806966540625559 [Eh]
	 Total Energy              =    -514.7327854175430275 [Eh]

	 ================> DF-SCS-MP2 Energies <==================
	-----------------------------------------------------------
	 SCS Same-Spin Scale       =       0.3333333333333333 [-]
	 SCS Opposite-Spin Scale   =       1.2000000000000000 [-]
	 SCS Same-Spin Energy      =      -0.1787590389746701 [Eh]
	 SCS Opposite-Spin Energy  =      -1.9733034445662545 [Eh]
	 SCS Correlation Energy    =      -2.1520624835409246 [Eh]
	 SCS Total Energy          =    -514.7041512470214002 [Eh]
	-----------------------------------------------------------

  Dipole Moment: [D]
     X:    -1.3587      Y:    -1.5460      Z:    -2.9408     Total:     3.5895

*** Psi4 exiting successfully. Buy a developer a beer!
