                               Psi4 1.4a3.dev225

  ==> Input File <==

--------------------------------------------------------------------------
#psi4
#
memory 32 gb

molecule  {
0 1
  O       -0.4983720     2.1660820    -0.3008080
  O        1.7439460     0.8852250     1.1595980
  N        2.0846670    -0.6693810    -0.4855240
  C       -0.1747200    -0.1425440     0.1301780
  C       -1.0501490     0.9240530    -0.1297870
  C       -0.6950920    -1.4344860     0.2644570
  C        1.2926210     0.1057900     0.3196980
  C       -2.4223480     0.6871570    -0.2466200
  C       -2.0666220    -1.6719060     0.1573390
  C       -2.9283400    -0.6051620    -0.0964900
  C        3.5272930    -0.5029810    -0.4769650
  H       -0.0118380    -2.2529100     0.4809780
  H       -3.0973410     1.5164000    -0.4561860
  H       -2.4584240    -2.6782030     0.2778980
  H       -3.9991860    -0.7724420    -0.1829770
  H        1.6045811    -1.1507086    -1.3651983
  H        3.8478870     0.3529870    -1.0808760
  H        3.9959260    -1.4118430    -0.8588240
  H        3.8425270    -0.3337350     0.5522170
  H       -1.2204240     2.8028430    -0.4486720
units angstrom
no_reorient  #important for SAPT in psi4, default
symmetry c1  #important for SAPT in psi4, default
}

set PROPERTIES_ORIGIN ["COM"]
properties('MP2/aug-cc-pvtz', properties = ['dipole'])
--------------------------------------------------------------------------

    Molecular point group: c1
  Charge       = 0
  Multiplicity = 1
  Basis Set: AUG-CC-PVTZ
    Blend: AUG-CC-PVTZ
  Basis Set: (AUG-CC-PVTZ AUX)
    Blend: AUG-CC-PVTZ-JKFIT

    Orbital Energies [Eh]
    ---------------------

    Doubly Occupied:

       1A    -20.597434     2A    -20.512973     3A    -15.592475
       4A    -11.349922     5A    -11.319976     6A    -11.256861
       7A    -11.256394     8A    -11.255940     9A    -11.249135
      10A    -11.246319    11A    -11.240183    12A     -1.409638
      13A     -1.366262    14A     -1.215474    15A     -1.159484
      16A     -1.046278    17A     -1.017382    18A     -0.948445
      19A     -0.864163    20A     -0.842276    21A     -0.768377
      22A     -0.740519    23A     -0.718091    24A     -0.674695
      25A     -0.646508    26A     -0.635350    27A     -0.618427
      28A     -0.612057    29A     -0.595437    30A     -0.584893
      31A     -0.573633    32A     -0.540108    33A     -0.535216
      34A     -0.522310    35A     -0.510841    36A     -0.489391
      37A     -0.420947    38A     -0.387341    39A     -0.353832
      40A     -0.325840

  @DF-RHF Final Energy:  -512.54135702754502

   => Energetics <=

    Nuclear Repulsion Energy =            586.6421733550608906
    One-Electron Energy =               -1862.3654050451025341
    Two-Electron Energy =                 763.1818746624967389
    Total Energy =                       -512.5413570275450184
  Basis Set: (AUG-CC-PVTZ AUX)
    Blend: AUG-CC-PVTZ-RI
    Molecular point group: c1

    Geometry (in Angstrom), charge = 0, multiplicity = 1:

       Center              X                  Y                   Z               Mass
    ------------   -----------------  -----------------  -----------------  -----------------
         O           -0.481356697409     2.140975245022    -0.319961622634    15.994914619570
         O            1.760961302591     0.860118245022     1.140444377366    15.994914619570
         N            2.101682302591    -0.694487754978    -0.504677622634    14.003074004430
         C           -0.157704697409    -0.167650754978     0.111024377366    12.000000000000
         C           -1.033133697409     0.898946245022    -0.148940622634    12.000000000000
         C           -0.678076697409    -1.459592754978     0.245303377366    12.000000000000
         C            1.309636302591     0.080683245022     0.300544377366    12.000000000000
         C           -2.405332697409     0.662050245022    -0.265773622634    12.000000000000
         C           -2.049606697409    -1.697012754978     0.138185377366    12.000000000000
         C           -2.911324697409    -0.630268754978    -0.115643622634    12.000000000000
         C            3.544308302591    -0.528087754978    -0.496118622634    12.000000000000
         H            0.005177302591    -2.278016754978     0.461824377366     1.007825032230
         H           -3.080325697409     1.491293245022    -0.475339622634     1.007825032230
         H           -2.441408697409    -2.703309754978     0.258744377366     1.007825032230
         H           -3.982170697409    -0.797548754978    -0.202130622634     1.007825032230
         H            1.621596402591    -1.175815354978    -1.384351922634     1.007825032230
         H            3.864902302591     0.327880245022    -1.100029622634     1.007825032230
         H            4.012941302591    -1.436949754978    -0.877977622634     1.007825032230
         H            3.859542302591    -0.358841754978     0.533063377366     1.007825032230
         H           -1.203408697409     2.777736245022    -0.467825622634     1.007825032230

  Basis Set: AUG-CC-PVTZ
    Blend: AUG-CC-PVTZ
  Basis Set: (AUG-CC-PVTZ AUX)
    Blend: AUG-CC-PVTZ-JKFIT
	 Reference Energy          =    -512.5413570275450184 [Eh]
	 Singles Energy            =      -0.0000000000000000 [Eh]
	 Same-Spin Energy          =      -0.5378441693311204 [Eh]
	 Opposite-Spin Energy      =      -1.6480288811164181 [Eh]
	 Correlation Energy        =      -2.1858730504475385 [Eh]
	 Total Energy              =    -514.7272300779925445 [Eh]

	 ================> DF-SCS-MP2 Energies <==================
	-----------------------------------------------------------
	 SCS Same-Spin Scale       =       0.3333333333333333 [-]
	 SCS Opposite-Spin Scale   =       1.2000000000000000 [-]
	 SCS Same-Spin Energy      =      -0.1792813897770401 [Eh]
	 SCS Opposite-Spin Energy  =      -1.9776346573397017 [Eh]
	 SCS Correlation Energy    =      -2.1569160471167419 [Eh]
	 SCS Total Energy          =    -514.6982730746617563 [Eh]
	-----------------------------------------------------------

  Dipole Moment: [D]
     X:    -1.7037      Y:    -1.6144      Z:    -3.0372     Total:     3.8384

*** Psi4 exiting successfully. Buy a developer a beer!
