                               Psi4 1.4a3.dev225

  ==> Input File <==

--------------------------------------------------------------------------
#psi4
#
memory 32 gb

molecule  {
0 1
  O       -0.4983720     2.1660820    -0.3008080
  O        1.7439460     0.8852250     1.1595980
  N        2.0846670    -0.6693810    -0.4855240
  C       -0.1747200    -0.1425440     0.1301780
  C       -1.0501490     0.9240530    -0.1297870
  C       -0.6950920    -1.4344860     0.2644570
  C        1.2926210     0.1057900     0.3196980
  C       -2.4223480     0.6871570    -0.2466200
  C       -2.0666220    -1.6719060     0.1573390
  C       -2.9283400    -0.6051620    -0.0964900
  C        3.5272930    -0.5029810    -0.4769650
  H       -0.0118380    -2.2529100     0.4809780
  H       -3.0973410     1.5164000    -0.4561860
  H       -2.4584240    -2.6782030     0.2778980
  H       -3.9991860    -0.7724420    -0.1829770
  H        1.6477640    -1.1074140    -1.2860730
  H        3.8478870     0.3529870    -1.0808760
  H        3.9873394    -1.3951902    -0.8518273
  H        3.8425270    -0.3337350     0.5522170
  H       -1.2204240     2.8028430    -0.4486720
units angstrom
no_reorient  #important for SAPT in psi4, default
symmetry c1  #important for SAPT in psi4, default
}

set PROPERTIES_ORIGIN ["COM"]
properties('MP2/aug-cc-pvtz', properties = ['dipole'])
--------------------------------------------------------------------------

    Molecular point group: c1
  Charge       = 0
  Multiplicity = 1
  Basis Set: AUG-CC-PVTZ
    Blend: AUG-CC-PVTZ
  Basis Set: (AUG-CC-PVTZ AUX)
    Blend: AUG-CC-PVTZ-JKFIT

    Orbital Energies [Eh]
    ---------------------

    Doubly Occupied:

       1A    -20.597664     2A    -20.512982     3A    -15.583702
       4A    -11.349883     5A    -11.320322     6A    -11.257273
       7A    -11.256684     8A    -11.253502     9A    -11.249419
      10A    -11.246496    11A    -11.240353    12A     -1.409877
      13A     -1.366896    14A     -1.225300    15A     -1.159964
      16A     -1.046740    17A     -1.017623    18A     -0.951853
      19A     -0.865271    20A     -0.844395    21A     -0.783029
      22A     -0.742283    23A     -0.723919    24A     -0.675127
      25A     -0.648589    26A     -0.635982    27A     -0.619204
      28A     -0.612768    29A     -0.595823    30A     -0.586670
      31A     -0.575621    32A     -0.547243    33A     -0.535800
      34A     -0.522616    35A     -0.511065    36A     -0.489734
      37A     -0.421364    38A     -0.388791    39A     -0.354273
      40A     -0.326075

  @DF-RHF Final Energy:  -512.55210984611051

   => Energetics <=

    Nuclear Repulsion Energy =            587.2572769583694026
    One-Electron Energy =               -1863.5144234245724419
    Two-Electron Energy =                 763.7050366200925282
    Total Energy =                       -512.5521098461105112
  Basis Set: (AUG-CC-PVTZ AUX)
    Blend: AUG-CC-PVTZ-RI
    Molecular point group: c1

    Geometry (in Angstrom), charge = 0, multiplicity = 1:

       Center              X                  Y                   Z               Mass
    ------------   -----------------  -----------------  -----------------  -----------------
         O           -0.481587508006     2.140575303548    -0.320536188998    15.994914619570
         O            1.760730491994     0.859718303548     1.139869811002    15.994914619570
         N            2.101451491994    -0.694887696452    -0.505252188998    14.003074004430
         C           -0.157935508006    -0.168050696452     0.110449811002    12.000000000000
         C           -1.033364508006     0.898546303548    -0.149515188998    12.000000000000
         C           -0.678307508006    -1.459992696452     0.244728811002    12.000000000000
         C            1.309405491994     0.080283303548     0.299969811002    12.000000000000
         C           -2.405563508006     0.661650303548    -0.266348188998    12.000000000000
         C           -2.049837508006    -1.697412696452     0.137610811002    12.000000000000
         C           -2.911555508006    -0.630668696452    -0.116218188998    12.000000000000
         C            3.544077491994    -0.528487696452    -0.496693188998    12.000000000000
         H            0.004946491994    -2.278416696452     0.461249811002     1.007825032230
         H           -3.080556508006     1.490893303548    -0.475914188998     1.007825032230
         H           -2.441639508006    -2.703709696452     0.258169811002     1.007825032230
         H           -3.982401508006    -0.797948696452    -0.202705188998     1.007825032230
         H            1.664548491994    -1.132920696452    -1.305801188998     1.007825032230
         H            3.864671491994     0.327480303548    -1.100604188998     1.007825032230
         H            4.004123891994    -1.420696896452    -0.871555488998     1.007825032230
         H            3.859311491994    -0.359241696452     0.532488811002     1.007825032230
         H           -1.203639508006     2.777336303548    -0.468400188998     1.007825032230

  Basis Set: AUG-CC-PVTZ
    Blend: AUG-CC-PVTZ
  Basis Set: (AUG-CC-PVTZ AUX)
    Blend: AUG-CC-PVTZ-JKFIT
	 Reference Energy          =    -512.5521098461105112 [Eh]
	 Singles Energy            =      -0.0000000000000000 [Eh]
	 Same-Spin Energy          =      -0.5370565058704641 [Eh]
	 Opposite-Spin Energy      =      -1.6459452992719990 [Eh]
	 Correlation Energy        =      -2.1830018051424629 [Eh]
	 Total Energy              =    -514.7351116512529643 [Eh]

	 ================> DF-SCS-MP2 Energies <==================
	-----------------------------------------------------------
	 SCS Same-Spin Scale       =       0.3333333333333333 [-]
	 SCS Opposite-Spin Scale   =       1.2000000000000000 [-]
	 SCS Same-Spin Energy      =      -0.1790188352901547 [Eh]
	 SCS Opposite-Spin Energy  =      -1.9751343591263986 [Eh]
	 SCS Correlation Energy    =      -2.1541531944165531 [Eh]
	 SCS Total Energy          =    -514.7062630405271193 [Eh]
	-----------------------------------------------------------

  Dipole Moment: [D]
     X:    -1.6986      Y:    -1.5873      Z:    -2.9778     Total:     3.7778

*** Psi4 exiting successfully. Buy a developer a beer!
