                               Psi4 1.4a3.dev225

  ==> Input File <==

--------------------------------------------------------------------------
#psi4
#
memory 32 gb

molecule  {
0 1
  O       -0.4983720     2.1660820    -0.3008080
  O        1.7439460     0.8852250     1.1595980
  N        2.0846670    -0.6693810    -0.4855240
  C       -0.1747200    -0.1425440     0.1301780
  C       -1.0501490     0.9240530    -0.1297870
  C       -0.6950920    -1.4344860     0.2644570
  C        1.2926210     0.1057900     0.3196980
  C       -2.4223480     0.6871570    -0.2466200
  C       -2.0666220    -1.6719060     0.1573390
  C       -2.9901293    -0.5286714    -0.1146907
  C        3.5272930    -0.5029810    -0.4769650
  H       -0.0118380    -2.2529100     0.4809780
  H       -3.0973410     1.5164000    -0.4561860
  H       -2.4584240    -2.6782030     0.2778980
  H       -3.9991860    -0.7724420    -0.1829770
  H        1.6477640    -1.1074140    -1.2860730
  H        3.8478870     0.3529870    -1.0808760
  H        3.9959260    -1.4118430    -0.8588240
  H        3.8425270    -0.3337350     0.5522170
  H       -1.2204240     2.8028430    -0.4486720
units angstrom
no_reorient  #important for SAPT in psi4, default
symmetry c1  #important for SAPT in psi4, default
}

set PROPERTIES_ORIGIN ["COM"]
properties('MP2/aug-cc-pvtz', properties = ['dipole'])
--------------------------------------------------------------------------

    Molecular point group: c1
  Charge       = 0
  Multiplicity = 1
  Basis Set: AUG-CC-PVTZ
    Blend: AUG-CC-PVTZ
  Basis Set: (AUG-CC-PVTZ AUX)
    Blend: AUG-CC-PVTZ-JKFIT

    Orbital Energies [Eh]
    ---------------------

    Doubly Occupied:

       1A    -20.599317     2A    -20.512690     3A    -15.583483
       4A    -11.349405     5A    -11.321996     6A    -11.258905
       7A    -11.255723     8A    -11.255282     9A    -11.248674
      10A    -11.248031    11A    -11.245718    12A     -1.411135
      13A     -1.366599    14A     -1.224930    15A     -1.156214
      16A     -1.051973    17A     -1.009951    18A     -0.950966
      19A     -0.863486    20A     -0.845949    21A     -0.783635
      22A     -0.741923    23A     -0.723675    24A     -0.686353
      25A     -0.645872    26A     -0.634999    27A     -0.619761
      28A     -0.609666    29A     -0.596731    30A     -0.587580
      31A     -0.576218    32A     -0.545185    33A     -0.544737
      34A     -0.521904    35A     -0.498128    36A     -0.486041
      37A     -0.421191    38A     -0.388510    39A     -0.363076
      40A     -0.316758

  @DF-RHF Final Energy:  -512.54004306430909

   => Energetics <=

    Nuclear Repulsion Energy =            586.2833428431175662
    One-Electron Energy =               -1861.5420339022718963
    Two-Electron Energy =                 762.7186479948453552
    Total Energy =                       -512.5400430643090885
  Basis Set: (AUG-CC-PVTZ AUX)
    Blend: AUG-CC-PVTZ-RI
    Molecular point group: c1

    Geometry (in Angstrom), charge = 0, multiplicity = 1:

       Center              X                  Y                   Z               Mass
    ------------   -----------------  -----------------  -----------------  -----------------
         O           -0.476736444438     2.134610228503    -0.319043703352    15.994914619570
         O            1.765581555562     0.853753228503     1.141362296648    15.994914619570
         N            2.106302555562    -0.700852771497    -0.503759703352    14.003074004430
         C           -0.153084444438    -0.174015771497     0.111942296648    12.000000000000
         C           -1.028513444438     0.892581228503    -0.148022703352    12.000000000000
         C           -0.673456444438    -1.465957771497     0.246221296648    12.000000000000
         C            1.314256555562     0.074318228503     0.301462296648    12.000000000000
         C           -2.400712444438     0.655685228503    -0.264855703352    12.000000000000
         C           -2.044986444438    -1.703377771497     0.139103296648    12.000000000000
         C           -2.968493744438    -0.560143171497    -0.132926403352    12.000000000000
         C            3.548928555562    -0.534452771497    -0.495200703352    12.000000000000
         H            0.009797555562    -2.284381771497     0.462742296648     1.007825032230
         H           -3.075705444438     1.484928228503    -0.474421703352     1.007825032230
         H           -2.436788444438    -2.709674771497     0.259662296648     1.007825032230
         H           -3.977550444438    -0.803913771497    -0.201212703352     1.007825032230
         H            1.669399555562    -1.138885771497    -1.304308703352     1.007825032230
         H            3.869522555562     0.321515228503    -1.099111703352     1.007825032230
         H            4.017561555562    -1.443314771497    -0.877059703352     1.007825032230
         H            3.864162555562    -0.365206771497     0.533981296648     1.007825032230
         H           -1.198788444438     2.771371228503    -0.466907703352     1.007825032230

  Basis Set: AUG-CC-PVTZ
    Blend: AUG-CC-PVTZ
  Basis Set: (AUG-CC-PVTZ AUX)
    Blend: AUG-CC-PVTZ-JKFIT
	 Reference Energy          =    -512.5400430643090885 [Eh]
	 Singles Energy            =      -0.0000000000000000 [Eh]
	 Same-Spin Energy          =      -0.5370686069992706 [Eh]
	 Opposite-Spin Energy      =      -1.6470215148570875 [Eh]
	 Correlation Energy        =      -2.1840901218563582 [Eh]
	 Total Energy              =    -514.7241331861654317 [Eh]

	 ================> DF-SCS-MP2 Energies <==================
	-----------------------------------------------------------
	 SCS Same-Spin Scale       =       0.3333333333333333 [-]
	 SCS Opposite-Spin Scale   =       1.2000000000000000 [-]
	 SCS Same-Spin Energy      =      -0.1790228689997569 [Eh]
	 SCS Opposite-Spin Energy  =      -1.9764258178285048 [Eh]
	 SCS Correlation Energy    =      -2.1554486868282616 [Eh]
	 SCS Total Energy          =    -514.6954917511372969 [Eh]
	-----------------------------------------------------------

  Dipole Moment: [D]
     X:    -1.7594      Y:    -1.5557      Z:    -2.9822     Total:     3.7959

*** Psi4 exiting successfully. Buy a developer a beer!
