                               Psi4 1.4a3.dev225

  ==> Input File <==

--------------------------------------------------------------------------
#psi4
#
memory 32 gb

molecule  {
0 1
  O       -0.4983720     2.1660820    -0.3008080
  O        1.7439460     0.8852250     1.1595980
  N        2.0846670    -0.6693810    -0.4855240
  C       -0.1747200    -0.1425440     0.1301780
  C       -1.0501490     0.9240530    -0.1297870
  C       -0.6950920    -1.4344860     0.2644570
  C        1.2926210     0.1057900     0.3196980
  C       -2.4419875     0.6837665    -0.2482922
  C       -2.0666220    -1.6719060     0.1573390
  C       -2.9283400    -0.6051620    -0.0964900
  C        3.5272930    -0.5029810    -0.4769650
  H       -0.0118380    -2.2529100     0.4809780
  H       -3.0973410     1.5164000    -0.4561860
  H       -2.4584240    -2.6782030     0.2778980
  H       -3.9991860    -0.7724420    -0.1829770
  H        1.6477640    -1.1074140    -1.2860730
  H        3.8478870     0.3529870    -1.0808760
  H        3.9959260    -1.4118430    -0.8588240
  H        3.8425270    -0.3337350     0.5522170
  H       -1.2204240     2.8028430    -0.4486720
units angstrom
no_reorient  #important for SAPT in psi4, default
symmetry c1  #important for SAPT in psi4, default
}

set PROPERTIES_ORIGIN ["COM"]
properties('MP2/aug-cc-pvtz', properties = ['dipole'])
--------------------------------------------------------------------------

    Molecular point group: c1
  Charge       = 0
  Multiplicity = 1
  Basis Set: AUG-CC-PVTZ
    Blend: AUG-CC-PVTZ
  Basis Set: (AUG-CC-PVTZ AUX)
    Blend: AUG-CC-PVTZ-JKFIT

    Orbital Energies [Eh]
    ---------------------

    Doubly Occupied:

       1A    -20.598892     2A    -20.513035     3A    -15.583844
       4A    -11.349934     5A    -11.322953     6A    -11.257371
       7A    -11.255951     8A    -11.255633     9A    -11.248911
      10A    -11.247161    11A    -11.239978    12A     -1.410511
      13A     -1.366977    14A     -1.225273    15A     -1.159268
      16A     -1.047883    17A     -1.015530    18A     -0.950282
      19A     -0.864203    20A     -0.844857    21A     -0.782916
      22A     -0.742583    23A     -0.723797    24A     -0.674686
      25A     -0.649218    26A     -0.636270    27A     -0.619628
      28A     -0.613174    29A     -0.595500    30A     -0.585965
      31A     -0.575727    32A     -0.545213    33A     -0.537210
      34A     -0.521195    35A     -0.511108    36A     -0.489901
      37A     -0.421269    38A     -0.388789    39A     -0.355588
      40A     -0.324123

  @DF-RHF Final Energy:  -512.55152156006727

   => Energetics <=

    Nuclear Repulsion Energy =            586.8594206719830026
    One-Electron Energy =               -1862.7172676605518973
    Two-Electron Energy =                 763.3063254285015091
    Total Energy =                       -512.5515215600672718
  Basis Set: (AUG-CC-PVTZ AUX)
    Blend: AUG-CC-PVTZ-RI
    Molecular point group: c1

    Geometry (in Angstrom), charge = 0, multiplicity = 1:

       Center              X                  Y                   Z               Mass
    ------------   -----------------  -----------------  -----------------  -----------------
         O           -0.480084693182     2.140955734122    -0.320356675878    15.994914619570
         O            1.762233306818     0.860098734122     1.140049324122    15.994914619570
         N            2.102954306818    -0.694507265878    -0.505072675878    14.003074004430
         C           -0.156432693182    -0.167670265878     0.110629324122    12.000000000000
         C           -1.031861693182     0.898926734122    -0.149335675878    12.000000000000
         C           -0.676804693182    -1.459612265878     0.244908324122    12.000000000000
         C            1.310908306818     0.080663734122     0.300149324122    12.000000000000
         C           -2.423700193182     0.658640234122    -0.267840875878    12.000000000000
         C           -2.048334693182    -1.697032265878     0.137790324122    12.000000000000
         C           -2.910052693182    -0.630288265878    -0.116038675878    12.000000000000
         C            3.545580306818    -0.528107265878    -0.496513675878    12.000000000000
         H            0.006449306818    -2.278036265878     0.461429324122     1.007825032230
         H           -3.079053693182     1.491273734122    -0.475734675878     1.007825032230
         H           -2.440136693182    -2.703329265878     0.258349324122     1.007825032230
         H           -3.980898693182    -0.797568265878    -0.202525675878     1.007825032230
         H            1.666051306818    -1.132540265878    -1.305621675878     1.007825032230
         H            3.866174306818     0.327860734122    -1.100424675878     1.007825032230
         H            4.014213306818    -1.436969265878    -0.878372675878     1.007825032230
         H            3.860814306818    -0.358861265878     0.532668324122     1.007825032230
         H           -1.202136693182     2.777716734122    -0.468220675878     1.007825032230

  Basis Set: AUG-CC-PVTZ
    Blend: AUG-CC-PVTZ
  Basis Set: (AUG-CC-PVTZ AUX)
    Blend: AUG-CC-PVTZ-JKFIT
	 Reference Energy          =    -512.5515215600672718 [Eh]
	 Singles Energy            =      -0.0000000000000000 [Eh]
	 Same-Spin Energy          =      -0.5370175370870591 [Eh]
	 Opposite-Spin Energy      =      -1.6460918208850859 [Eh]
	 Correlation Energy        =      -2.1831093579721452 [Eh]
	 Total Energy              =    -514.7346309180394428 [Eh]

	 ================> DF-SCS-MP2 Energies <==================
	-----------------------------------------------------------
	 SCS Same-Spin Scale       =       0.3333333333333333 [-]
	 SCS Opposite-Spin Scale   =       1.2000000000000000 [-]
	 SCS Same-Spin Energy      =      -0.1790058456956864 [Eh]
	 SCS Opposite-Spin Energy  =      -1.9753101850621029 [Eh]
	 SCS Correlation Energy    =      -2.1543160307577893 [Eh]
	 SCS Total Energy          =    -514.7058375908250127 [Eh]
	-----------------------------------------------------------

  Dipole Moment: [D]
     X:    -1.7038      Y:    -1.5475      Z:    -2.9789     Total:     3.7645

*** Psi4 exiting successfully. Buy a developer a beer!
