                               Psi4 1.4a3.dev225

  ==> Input File <==

--------------------------------------------------------------------------
#psi4
#
memory 32 gb

molecule  {
0 1
  O       -0.4983720     2.1660820    -0.3008080
  O        1.7439460     0.8852250     1.1595980
  N        2.0846670    -0.6693810    -0.4855240
  C       -0.1747200    -0.1425440     0.1301780
  C       -1.0501490     0.9240530    -0.1297870
  C       -0.6950920    -1.4344860     0.2644570
  C        1.3292688     0.1690804     0.3878982
  C       -2.4223480     0.6871570    -0.2466200
  C       -2.0666220    -1.6719060     0.1573390
  C       -2.9283400    -0.6051620    -0.0964900
  C        3.5272930    -0.5029810    -0.4769650
  H       -0.0118380    -2.2529100     0.4809780
  H       -3.0973410     1.5164000    -0.4561860
  H       -2.4584240    -2.6782030     0.2778980
  H       -3.9991860    -0.7724420    -0.1829770
  H        1.6477640    -1.1074140    -1.2860730
  H        3.8478870     0.3529870    -1.0808760
  H        3.9959260    -1.4118430    -0.8588240
  H        3.8425270    -0.3337350     0.5522170
  H       -1.2204240     2.8028430    -0.4486720
units angstrom
no_reorient  #important for SAPT in psi4, default
symmetry c1  #important for SAPT in psi4, default
}

set PROPERTIES_ORIGIN ["COM"]
properties('MP2/aug-cc-pvtz', properties = ['dipole'])
--------------------------------------------------------------------------

    Molecular point group: c1
  Charge       = 0
  Multiplicity = 1
  Basis Set: AUG-CC-PVTZ
    Blend: AUG-CC-PVTZ
  Basis Set: (AUG-CC-PVTZ AUX)
    Blend: AUG-CC-PVTZ-JKFIT

    Orbital Energies [Eh]
    ---------------------

    Doubly Occupied:

       1A    -20.597494     2A    -20.534043     3A    -15.569154
       4A    -11.349062     5A    -11.315923     6A    -11.253493
       7A    -11.253314     8A    -11.249082     9A    -11.246220
      10A    -11.243969    11A    -11.237880    12A     -1.443091
      13A     -1.408325    14A     -1.211259    15A     -1.155431
      16A     -1.038112    17A     -1.014463    18A     -0.934750
      19A     -0.860447    20A     -0.837136    21A     -0.776571
      22A     -0.739689    23A     -0.719885    24A     -0.677631
      25A     -0.657669    26A     -0.641418    27A     -0.622575
      28A     -0.609770    29A     -0.598456    30A     -0.583533
      31A     -0.580961    32A     -0.555255    33A     -0.542574
      34A     -0.531733    35A     -0.515078    36A     -0.489652
      37A     -0.421333    38A     -0.387332    39A     -0.351245
      40A     -0.323697

  @DF-RHF Final Energy:  -512.54136754216086

   => Energetics <=

    Nuclear Repulsion Energy =            587.2910575386658820
    One-Electron Energy =               -1863.5074390628371930
    Two-Electron Energy =                 763.6750139820104550
    Total Energy =                       -512.5413675421608559
  Basis Set: (AUG-CC-PVTZ AUX)
    Blend: AUG-CC-PVTZ-RI
    Molecular point group: c1

    Geometry (in Angstrom), charge = 0, multiplicity = 1:

       Center              X                  Y                   Z               Mass
    ------------   -----------------  -----------------  -----------------  -----------------
         O           -0.484555980863     2.135658811250    -0.325907121563    15.994914619570
         O            1.757762019137     0.854801811250     1.134498878437    15.994914619570
         N            2.098483019137    -0.699804188750    -0.510623121563    14.003074004430
         C           -0.160903980863    -0.172967188750     0.105078878437    12.000000000000
         C           -1.036332980863     0.893629811250    -0.154886121563    12.000000000000
         C           -0.681275980863    -1.464909188750     0.239357878437    12.000000000000
         C            1.343084819137     0.138657211250     0.362799078437    12.000000000000
         C           -2.408531980863     0.656733811250    -0.271719121563    12.000000000000
         C           -2.052805980863    -1.702329188750     0.132239878437    12.000000000000
         C           -2.914523980863    -0.635585188750    -0.121589121563    12.000000000000
         C            3.541109019137    -0.533404188750    -0.502064121563    12.000000000000
         H            0.001978019137    -2.283333188750     0.455878878437     1.007825032230
         H           -3.083524980863     1.485976811250    -0.481285121563     1.007825032230
         H           -2.444607980863    -2.708626188750     0.252798878437     1.007825032230
         H           -3.985369980863    -0.802865188750    -0.208076121563     1.007825032230
         H            1.661580019137    -1.137837188750    -1.311172121563     1.007825032230
         H            3.861703019137     0.322563811250    -1.105975121563     1.007825032230
         H            4.009742019137    -1.442266188750    -0.883923121563     1.007825032230
         H            3.856343019137    -0.364158188750     0.527117878437     1.007825032230
         H           -1.206607980863     2.772419811250    -0.473771121563     1.007825032230

  Basis Set: AUG-CC-PVTZ
    Blend: AUG-CC-PVTZ
  Basis Set: (AUG-CC-PVTZ AUX)
    Blend: AUG-CC-PVTZ-JKFIT
	 Reference Energy          =    -512.5413675421608559 [Eh]
	 Singles Energy            =      -0.0000000000000000 [Eh]
	 Same-Spin Energy          =      -0.5348783404359340 [Eh]
	 Opposite-Spin Energy      =      -1.6418436544279911 [Eh]
	 Correlation Energy        =      -2.1767219948639251 [Eh]
	 Total Energy              =    -514.7180895370247526 [Eh]

	 ================> DF-SCS-MP2 Energies <==================
	-----------------------------------------------------------
	 SCS Same-Spin Scale       =       0.3333333333333333 [-]
	 SCS Opposite-Spin Scale   =       1.2000000000000000 [-]
	 SCS Same-Spin Energy      =      -0.1782927801453113 [Eh]
	 SCS Opposite-Spin Energy  =      -1.9702123853135891 [Eh]
	 SCS Correlation Energy    =      -2.1485051654589005 [Eh]
	 SCS Total Energy          =    -514.6898727076197702 [Eh]
	-----------------------------------------------------------

  Dipole Moment: [D]
     X:    -1.6147      Y:    -1.1009      Z:    -2.4056     Total:     3.0993

*** Psi4 exiting successfully. Buy a developer a beer!
