                               Psi4 1.4a3.dev225

  ==> Input File <==

--------------------------------------------------------------------------
#psi4
#
memory 32 gb

molecule  {
0 1
  O       -0.4983720     2.1660820    -0.3008080
  O        1.7439460     0.8852250     1.1595980
  N        2.0846670    -0.6693810    -0.4855240
  C       -0.1747200    -0.1425440     0.1301780
  C       -1.0501490     0.9240530    -0.1297870
  C       -0.6950920    -1.4344860     0.2644570
  C        1.2742971     0.0741448     0.2855979
  C       -2.4223480     0.6871570    -0.2466200
  C       -2.0666220    -1.6719060     0.1573390
  C       -2.9283400    -0.6051620    -0.0964900
  C        3.5272930    -0.5029810    -0.4769650
  H       -0.0118380    -2.2529100     0.4809780
  H       -3.0973410     1.5164000    -0.4561860
  H       -2.4584240    -2.6782030     0.2778980
  H       -3.9991860    -0.7724420    -0.1829770
  H        1.6477640    -1.1074140    -1.2860730
  H        3.8478870     0.3529870    -1.0808760
  H        3.9959260    -1.4118430    -0.8588240
  H        3.8425270    -0.3337350     0.5522170
  H       -1.2204240     2.8028430    -0.4486720
units angstrom
no_reorient  #important for SAPT in psi4, default
symmetry c1  #important for SAPT in psi4, default
}

set PROPERTIES_ORIGIN ["COM"]
properties('MP2/aug-cc-pvtz', properties = ['dipole'])
--------------------------------------------------------------------------

    Molecular point group: c1
  Charge       = 0
  Multiplicity = 1
  Basis Set: AUG-CC-PVTZ
    Blend: AUG-CC-PVTZ
  Basis Set: (AUG-CC-PVTZ AUX)
    Blend: AUG-CC-PVTZ-JKFIT

    Orbital Energies [Eh]
    ---------------------

    Doubly Occupied:

       1A    -20.597759     2A    -20.502718     3A    -15.591191
       4A    -11.349856     5A    -11.322446     6A    -11.259549
       7A    -11.259008     8A    -11.258262     9A    -11.250596
      10A    -11.247687    11A    -11.241488    12A     -1.409749
      13A     -1.341187    14A     -1.226363    15A     -1.162149
      16A     -1.051046    17A     -1.019062    18A     -0.957825
      19A     -0.867787    20A     -0.847700    21A     -0.786317
      22A     -0.743955    23A     -0.727021    24A     -0.675625
      25A     -0.652328    26A     -0.633856    27A     -0.617435
      28A     -0.614139    29A     -0.595061    30A     -0.587200
      31A     -0.569895    32A     -0.544638    33A     -0.533405
      34A     -0.518495    35A     -0.508010    36A     -0.488525
      37A     -0.415957    38A     -0.385875    39A     -0.354956
      40A     -0.326972

  @DF-RHF Final Energy:  -512.54429198354831

   => Energetics <=

    Nuclear Repulsion Energy =            587.1904463094929270
    One-Electron Energy =               -1863.3832973557437072
    Two-Electron Energy =                 763.6485590627024749
    Total Energy =                       -512.5442919835483053
  Basis Set: (AUG-CC-PVTZ AUX)
    Blend: AUG-CC-PVTZ-RI
    Molecular point group: c1

    Geometry (in Angstrom), charge = 0, multiplicity = 1:

       Center              X                  Y                   Z               Mass
    ------------   -----------------  -----------------  -----------------  -----------------
         O           -0.480189200345     2.143200199428    -0.317780704570    15.994914619570
         O            1.762128799655     0.862343199428     1.142625295430    15.994914619570
         N            2.102849799655    -0.692262800572    -0.502496704570    14.003074004430
         C           -0.156537200345    -0.165425800572     0.113205295430    12.000000000000
         C           -1.031966200345     0.901171199428    -0.146759704570    12.000000000000
         C           -0.676909200345    -1.457367800572     0.247484295430    12.000000000000
         C            1.292479899655     0.051262999428     0.268625195430    12.000000000000
         C           -2.404165200345     0.664275199428    -0.263592704570    12.000000000000
         C           -2.048439200345    -1.694787800572     0.140366295430    12.000000000000
         C           -2.910157200345    -0.628043800572    -0.113462704570    12.000000000000
         C            3.545475799655    -0.525862800572    -0.493937704570    12.000000000000
         H            0.006344799655    -2.275791800572     0.464005295430     1.007825032230
         H           -3.079158200345     1.493518199428    -0.473158704570     1.007825032230
         H           -2.440241200345    -2.701084800572     0.260925295430     1.007825032230
         H           -3.981003200345    -0.795323800572    -0.199949704570     1.007825032230
         H            1.665946799655    -1.130295800572    -1.303045704570     1.007825032230
         H            3.866069799655     0.330105199428    -1.097848704570     1.007825032230
         H            4.014108799655    -1.434724800572    -0.875796704570     1.007825032230
         H            3.860709799655    -0.356616800572     0.535244295430     1.007825032230
         H           -1.202241200345     2.779961199428    -0.465644704570     1.007825032230

  Basis Set: AUG-CC-PVTZ
    Blend: AUG-CC-PVTZ
  Basis Set: (AUG-CC-PVTZ AUX)
    Blend: AUG-CC-PVTZ-JKFIT
	 Reference Energy          =    -512.5442919835483053 [Eh]
	 Singles Energy            =      -0.0000000000000000 [Eh]
	 Same-Spin Energy          =      -0.5382726019187019 [Eh]
	 Opposite-Spin Energy      =      -1.6484077935249255 [Eh]
	 Correlation Energy        =      -2.1866803954436271 [Eh]
	 Total Energy              =    -514.7309723789919644 [Eh]

	 ================> DF-SCS-MP2 Energies <==================
	-----------------------------------------------------------
	 SCS Same-Spin Scale       =       0.3333333333333333 [-]
	 SCS Opposite-Spin Scale   =       1.2000000000000000 [-]
	 SCS Same-Spin Energy      =      -0.1794242006395673 [Eh]
	 SCS Opposite-Spin Energy  =      -1.9780893522299106 [Eh]
	 SCS Correlation Energy    =      -2.1575135528694780 [Eh]
	 SCS Total Energy          =    -514.7018055364177371 [Eh]
	-----------------------------------------------------------

  Dipole Moment: [D]
     X:    -1.7338      Y:    -1.7895      Z:    -3.2261     Total:     4.0762

*** Psi4 exiting successfully. Buy a developer a beer!
