                               Psi4 1.4a3.dev225

  ==> Input File <==

--------------------------------------------------------------------------
#psi4
#
memory 32 gb

molecule  {
0 1
  O       -0.4983720     2.1660820    -0.3008080
  O        1.7439460     0.8852250     1.1595980
  N        2.0846670    -0.6693810    -0.4855240
  C       -0.1747200    -0.1425440     0.1301780
  C       -1.0501490     0.9240530    -0.1297870
  C       -0.6950920    -1.4344860     0.2644570
  C        1.2926210     0.1057900     0.3196980
  C       -2.4223480     0.6871570    -0.2466200
  C       -2.0666220    -1.6719060     0.1573390
  C       -2.9283400    -0.6051620    -0.0964900
  C        3.6266326    -0.4915227    -0.4763756
  H       -0.0118380    -2.2529100     0.4809780
  H       -3.0973410     1.5164000    -0.4561860
  H       -2.4584240    -2.6782030     0.2778980
  H       -3.9991860    -0.7724420    -0.1829770
  H        1.6477640    -1.1074140    -1.2860730
  H        3.8478870     0.3529870    -1.0808760
  H        3.9959260    -1.4118430    -0.8588240
  H        3.8425270    -0.3337350     0.5522170
  H       -1.2204240     2.8028430    -0.4486720
units angstrom
no_reorient  #important for SAPT in psi4, default
symmetry c1  #important for SAPT in psi4, default
}

set PROPERTIES_ORIGIN ["COM"]
properties('MP2/aug-cc-pvtz', properties = ['dipole'])
--------------------------------------------------------------------------

    Molecular point group: c1
  Charge       = 0
  Multiplicity = 1
  Basis Set: AUG-CC-PVTZ
    Blend: AUG-CC-PVTZ
  Basis Set: (AUG-CC-PVTZ AUX)
    Blend: AUG-CC-PVTZ-JKFIT

    Orbital Energies [Eh]
    ---------------------

    Doubly Occupied:

       1A    -20.596299     2A    -20.509260     3A    -15.580380
       4A    -11.346819     5A    -11.318650     6A    -11.259209
       7A    -11.255466     8A    -11.255173     9A    -11.247622
      10A    -11.245081    11A    -11.238876    12A     -1.408436
      13A     -1.362057    14A     -1.206575    15A     -1.157413
      16A     -1.043393    17A     -1.016044    18A     -0.954669
      19A     -0.864451    20A     -0.843636    21A     -0.776462
      22A     -0.739934    23A     -0.719206    24A     -0.673356
      25A     -0.642135    26A     -0.628023    27A     -0.620299
      28A     -0.609829    29A     -0.595396    30A     -0.581969
      31A     -0.572954    32A     -0.556456    33A     -0.536806
      34A     -0.523165    35A     -0.511008    36A     -0.488713
      37A     -0.417301    38A     -0.388852    39A     -0.352393
      40A     -0.324525

  @DF-RHF Final Energy:  -512.54421822253926

   => Energetics <=

    Nuclear Repulsion Energy =            585.3330412868231178
    One-Electron Energy =               -1859.8179410725688285
    Two-Electron Energy =                 761.9406815632064536
    Total Energy =                       -512.5442182225392571
  Basis Set: (AUG-CC-PVTZ AUX)
    Blend: AUG-CC-PVTZ-RI
    Molecular point group: c1

    Geometry (in Angstrom), charge = 0, multiplicity = 1:

       Center              X                  Y                   Z               Mass
    ------------   -----------------  -----------------  -----------------  -----------------
         O           -0.489536022064     2.139776191729    -0.320536330333    15.994914619570
         O            1.752781977936     0.858919191729     1.139869669667    15.994914619570
         N            2.093502977936    -0.695686808271    -0.505252330333    14.003074004430
         C           -0.165884022064    -0.168849808271     0.110449669667    12.000000000000
         C           -1.041313022064     0.897747191729    -0.149515330333    12.000000000000
         C           -0.686256022064    -1.460791808271     0.244728669667    12.000000000000
         C            1.301456977936     0.079484191729     0.299969669667    12.000000000000
         C           -2.413512022064     0.660851191729    -0.266348330333    12.000000000000
         C           -2.057786022064    -1.698211808271     0.137610669667    12.000000000000
         C           -2.919504022064    -0.631467808271    -0.116218330333    12.000000000000
         C            3.635468577936    -0.517828508271    -0.496103930333    12.000000000000
         H           -0.003002022064    -2.279215808271     0.461249669667     1.007825032230
         H           -3.088505022064     1.490094191729    -0.475914330333     1.007825032230
         H           -2.449588022064    -2.704508808271     0.258169669667     1.007825032230
         H           -3.990350022064    -0.798747808271    -0.202705330333     1.007825032230
         H            1.656599977936    -1.133719808271    -1.305801330333     1.007825032230
         H            3.856722977936     0.326681191729    -1.100604330333     1.007825032230
         H            4.004761977936    -1.438148808271    -0.878552330333     1.007825032230
         H            3.851362977936    -0.360040808271     0.532488669667     1.007825032230
         H           -1.211588022064     2.776537191729    -0.468400330333     1.007825032230

  Basis Set: AUG-CC-PVTZ
    Blend: AUG-CC-PVTZ
  Basis Set: (AUG-CC-PVTZ AUX)
    Blend: AUG-CC-PVTZ-JKFIT
	 Reference Energy          =    -512.5442182225392571 [Eh]
	 Singles Energy            =      -0.0000000000000000 [Eh]
	 Same-Spin Energy          =      -0.5368008947019134 [Eh]
	 Opposite-Spin Energy      =      -1.6465870141392434 [Eh]
	 Correlation Energy        =      -2.1833879088411567 [Eh]
	 Total Energy              =    -514.7276061313804121 [Eh]

	 ================> DF-SCS-MP2 Energies <==================
	-----------------------------------------------------------
	 SCS Same-Spin Scale       =       0.3333333333333333 [-]
	 SCS Opposite-Spin Scale   =       1.2000000000000000 [-]
	 SCS Same-Spin Energy      =      -0.1789336315673045 [Eh]
	 SCS Opposite-Spin Energy  =      -1.9759044169670918 [Eh]
	 SCS Correlation Energy    =      -2.1548380485343963 [Eh]
	 SCS Total Energy          =    -514.6990562710736867 [Eh]
	-----------------------------------------------------------

  Dipole Moment: [D]
     X:    -1.4199      Y:    -1.5789      Z:    -3.0290     Total:     3.6992

*** Psi4 exiting successfully. Buy a developer a beer!
