                               Psi4 1.4a3.dev225

  ==> Input File <==

--------------------------------------------------------------------------
#psi4
#
memory 32 gb

molecule  {
0 1
  O       -0.4983720     2.1660820    -0.3008080
  O        1.7439460     0.8852250     1.1595980
  N        2.0846670    -0.6693810    -0.4855240
  C       -0.1747200    -0.1425440     0.1301780
  C       -1.0501490     0.9240530    -0.1297870
  C       -0.5583379    -1.4782661     0.2933210
  C        1.2926210     0.1057900     0.3196980
  C       -2.4223480     0.6871570    -0.2466200
  C       -2.0666220    -1.6719060     0.1573390
  C       -2.9283400    -0.6051620    -0.0964900
  C        3.5272930    -0.5029810    -0.4769650
  H       -0.0118380    -2.2529100     0.4809780
  H       -3.0973410     1.5164000    -0.4561860
  H       -2.4584240    -2.6782030     0.2778980
  H       -3.9991860    -0.7724420    -0.1829770
  H        1.6477640    -1.1074140    -1.2860730
  H        3.8478870     0.3529870    -1.0808760
  H        3.9959260    -1.4118430    -0.8588240
  H        3.8425270    -0.3337350     0.5522170
  H       -1.2204240     2.8028430    -0.4486720
units angstrom
no_reorient  #important for SAPT in psi4, default
symmetry c1  #important for SAPT in psi4, default
}

set PROPERTIES_ORIGIN ["COM"]
properties('MP2/aug-cc-pvtz', properties = ['dipole'])
--------------------------------------------------------------------------

    Molecular point group: c1
  Charge       = 0
  Multiplicity = 1
  Basis Set: AUG-CC-PVTZ
    Blend: AUG-CC-PVTZ
  Basis Set: (AUG-CC-PVTZ AUX)
    Blend: AUG-CC-PVTZ-JKFIT

    Orbital Energies [Eh]
    ---------------------

    Doubly Occupied:

       1A    -20.598384     2A    -20.511682     3A    -15.583516
       4A    -11.347442     5A    -11.321565     6A    -11.262825
       7A    -11.255914     8A    -11.255910     9A    -11.255432
      10A    -11.253084    11A    -11.247743    12A     -1.410499
      13A     -1.366268    14A     -1.225380    15A     -1.150317
      16A     -1.051905    17A     -1.006496    18A     -0.949182
      19A     -0.874388    20A     -0.842475    21A     -0.780410
      22A     -0.754430    23A     -0.722646    24A     -0.666804
      25A     -0.647139    26A     -0.646490    27A     -0.634903
      28A     -0.614950    29A     -0.595944    30A     -0.583261
      31A     -0.567902    32A     -0.545259    33A     -0.542606
      34A     -0.518421    35A     -0.509710    36A     -0.481249
      37A     -0.416718    38A     -0.388449    39A     -0.357505
      40A     -0.317673

  @DF-RHF Final Energy:  -512.52206855782379

   => Energetics <=

    Nuclear Repulsion Energy =            586.0583815973520814
    One-Electron Energy =               -1861.0351517125716327
    Two-Electron Energy =                 762.4547015573957651
    Total Energy =                       -512.5220685578237863
  Basis Set: (AUG-CC-PVTZ AUX)
    Blend: AUG-CC-PVTZ-RI
    Molecular point group: c1

    Geometry (in Angstrom), charge = 0, multiplicity = 1:

       Center              X                  Y                   Z               Mass
    ------------   -----------------  -----------------  -----------------  -----------------
         O           -0.492508113334     2.144164158063    -0.322782376434    15.994914619570
         O            1.749809886666     0.863307158063     1.137623623566    15.994914619570
         N            2.090530886666    -0.691298841937    -0.507498376434    14.003074004430
         C           -0.168856113334    -0.164461841937     0.108203623566    12.000000000000
         C           -1.044285113334     0.902135158063    -0.151761376434    12.000000000000
         C           -0.552474013334    -1.500183941937     0.271346623566    12.000000000000
         C            1.298484886666     0.083872158063     0.297723623566    12.000000000000
         C           -2.416484113334     0.665239158063    -0.268594376434    12.000000000000
         C           -2.060758113334    -1.693823841937     0.135364623566    12.000000000000
         C           -2.922476113334    -0.627079841937    -0.118464376434    12.000000000000
         C            3.533156886666    -0.524898841937    -0.498939376434    12.000000000000
         H           -0.005974113334    -2.274827841937     0.459003623566     1.007825032230
         H           -3.091477113334     1.494482158063    -0.478160376434     1.007825032230
         H           -2.452560113334    -2.700120841937     0.255923623566     1.007825032230
         H           -3.993322113334    -0.794359841937    -0.204951376434     1.007825032230
         H            1.653627886666    -1.129331841937    -1.308047376434     1.007825032230
         H            3.853750886666     0.331069158063    -1.102850376434     1.007825032230
         H            4.001789886666    -1.433760841937    -0.880798376434     1.007825032230
         H            3.848390886666    -0.355652841937     0.530242623566     1.007825032230
         H           -1.214560113334     2.780925158063    -0.470646376434     1.007825032230

  Basis Set: AUG-CC-PVTZ
    Blend: AUG-CC-PVTZ
  Basis Set: (AUG-CC-PVTZ AUX)
    Blend: AUG-CC-PVTZ-JKFIT
	 Reference Energy          =    -512.5220685578237863 [Eh]
	 Singles Energy            =      -0.0000000000000000 [Eh]
	 Same-Spin Energy          =      -0.5373296512272674 [Eh]
	 Opposite-Spin Energy      =      -1.6483317857553297 [Eh]
	 Correlation Energy        =      -2.1856614369825973 [Eh]
	 Total Energy              =    -514.7077299948064137 [Eh]

	 ================> DF-SCS-MP2 Energies <==================
	-----------------------------------------------------------
	 SCS Same-Spin Scale       =       0.3333333333333333 [-]
	 SCS Opposite-Spin Scale   =       1.2000000000000000 [-]
	 SCS Same-Spin Energy      =      -0.1791098837424225 [Eh]
	 SCS Opposite-Spin Energy  =      -1.9779981429063955 [Eh]
	 SCS Correlation Energy    =      -2.1571080266488178 [Eh]
	 SCS Total Energy          =    -514.6791765844726569 [Eh]
	-----------------------------------------------------------

  Dipole Moment: [D]
     X:    -1.7263      Y:    -1.5681      Z:    -2.9738     Total:     3.7792

*** Psi4 exiting successfully. Buy a developer a beer!
