                               Psi4 1.4a3.dev225

  ==> Input File <==

--------------------------------------------------------------------------
#psi4
#
memory 32 gb

molecule  {
0 1
  O       -0.4983720     2.1660820    -0.3008080
  O        1.7439460     0.8852250     1.1595980
  N        2.0846670    -0.6693810    -0.4855240
  C       -0.1747200    -0.1425440     0.1301780
  C       -1.0501490     0.9240530    -0.1297870
  C       -0.6950920    -1.4344860     0.2644570
  C        1.2926210     0.1057900     0.3196980
  C       -2.6187425     0.6532515    -0.2633416
  C       -2.0666220    -1.6719060     0.1573390
  C       -2.9283400    -0.6051620    -0.0964900
  C        3.5272930    -0.5029810    -0.4769650
  H       -0.0118380    -2.2529100     0.4809780
  H       -3.0973410     1.5164000    -0.4561860
  H       -2.4584240    -2.6782030     0.2778980
  H       -3.9991860    -0.7724420    -0.1829770
  H        1.6477640    -1.1074140    -1.2860730
  H        3.8478870     0.3529870    -1.0808760
  H        3.9959260    -1.4118430    -0.8588240
  H        3.8425270    -0.3337350     0.5522170
  H       -1.2204240     2.8028430    -0.4486720
units angstrom
no_reorient  #important for SAPT in psi4, default
symmetry c1  #important for SAPT in psi4, default
}

set PROPERTIES_ORIGIN ["COM"]
properties('MP2/aug-cc-pvtz', properties = ['dipole'])
--------------------------------------------------------------------------

    Molecular point group: c1
  Charge       = 0
  Multiplicity = 1
  Basis Set: AUG-CC-PVTZ
    Blend: AUG-CC-PVTZ
  Basis Set: (AUG-CC-PVTZ AUX)
    Blend: AUG-CC-PVTZ-JKFIT

    Orbital Energies [Eh]
    ---------------------

    Doubly Occupied:

       1A    -20.606847     2A    -20.511931     3A    -15.582961
       4A    -11.348622     5A    -11.338143     6A    -11.258489
       7A    -11.255499     8A    -11.252801     9A    -11.246984
      10A    -11.243496    11A    -11.236870    12A     -1.414141
      13A     -1.366013    14A     -1.224436    15A     -1.155212
      16A     -1.059145    17A     -1.003210    18A     -0.949381
      19A     -0.864211    20A     -0.841983    21A     -0.782375
      22A     -0.743598    23A     -0.729586    24A     -0.671046
      25A     -0.658819    26A     -0.637630    27A     -0.627595
      28A     -0.615028    29A     -0.593705    30A     -0.583772
      31A     -0.575032    32A     -0.547871    33A     -0.543989
      34A     -0.518402    35A     -0.492290    36A     -0.484449
      37A     -0.417603    38A     -0.388238    39A     -0.369992
      40A     -0.309349

  @DF-RHF Final Energy:  -512.51118374672069

   => Energetics <=

    Nuclear Repulsion Energy =            584.3528288508789501
    One-Electron Energy =               -1857.6265375493330794
    Two-Electron Energy =                 760.7625249517334396
    Total Energy =                       -512.5111837467206897
  Basis Set: (AUG-CC-PVTZ AUX)
    Blend: AUG-CC-PVTZ-RI
    Molecular point group: c1

    Geometry (in Angstrom), charge = 0, multiplicity = 1:

       Center              X                  Y                   Z               Mass
    ------------   -----------------  -----------------  -----------------  -----------------
         O           -0.466043826874     2.143379750616    -0.319161198447    15.994914619570
         O            1.776274173126     0.862522750616     1.141244801553    15.994914619570
         N            2.116995173126    -0.692083249384    -0.503877198447    14.003074004430
         C           -0.142391826874    -0.165246249384     0.111824801553    12.000000000000
         C           -1.017820826874     0.901350750616    -0.148140198447    12.000000000000
         C           -0.662763826874    -1.457188249384     0.246103801553    12.000000000000
         C            1.324949173126     0.083087750616     0.301344801553    12.000000000000
         C           -2.586414326874     0.630549250616    -0.281694798447    12.000000000000
         C           -2.034293826874    -1.694608249384     0.138985801553    12.000000000000
         C           -2.896011826874    -0.627864249384    -0.114843198447    12.000000000000
         C            3.559621173126    -0.525683249384    -0.495318198447    12.000000000000
         H            0.020490173126    -2.275612249384     0.462624801553     1.007825032230
         H           -3.065012826874     1.493697750616    -0.474539198447     1.007825032230
         H           -2.426095826874    -2.700905249384     0.259544801553     1.007825032230
         H           -3.966857826874    -0.795144249384    -0.201330198447     1.007825032230
         H            1.680092173126    -1.130116249384    -1.304426198447     1.007825032230
         H            3.880215173126     0.330284750616    -1.099229198447     1.007825032230
         H            4.028254173126    -1.434545249384    -0.877177198447     1.007825032230
         H            3.874855173126    -0.356437249384     0.533863801553     1.007825032230
         H           -1.188095826874     2.780140750616    -0.467025198447     1.007825032230

  Basis Set: AUG-CC-PVTZ
    Blend: AUG-CC-PVTZ
  Basis Set: (AUG-CC-PVTZ AUX)
    Blend: AUG-CC-PVTZ-JKFIT
	 Reference Energy          =    -512.5111837467206897 [Eh]
	 Singles Energy            =      -0.0000000000000000 [Eh]
	 Same-Spin Energy          =      -0.5364488186091567 [Eh]
	 Opposite-Spin Energy      =      -1.6479002259434710 [Eh]
	 Correlation Energy        =      -2.1843490445526275 [Eh]
	 Total Energy              =    -514.6955327912733082 [Eh]

	 ================> DF-SCS-MP2 Energies <==================
	-----------------------------------------------------------
	 SCS Same-Spin Scale       =       0.3333333333333333 [-]
	 SCS Opposite-Spin Scale   =       1.2000000000000000 [-]
	 SCS Same-Spin Energy      =      -0.1788162728697189 [Eh]
	 SCS Opposite-Spin Energy  =      -1.9774802711321651 [Eh]
	 SCS Correlation Energy    =      -2.1562965440018838 [Eh]
	 SCS Total Energy          =    -514.6674802907225512 [Eh]
	-----------------------------------------------------------

  Dipole Moment: [D]
     X:    -1.6950      Y:    -1.3173      Z:    -3.0148     Total:     3.7010

*** Psi4 exiting successfully. Buy a developer a beer!
