                               Psi4 1.4a3.dev225

  ==> Input File <==

--------------------------------------------------------------------------
#psi4
#
memory 32 gb

molecule  {
0 1
  O       -0.4983720     2.1660820    -0.3008080
  O        1.7439460     0.8852250     1.1595980
  N        2.0846670    -0.6693810    -0.4855240
  C       -0.1747200    -0.1425440     0.1301780
  C       -0.9163465     0.8750974    -0.1137301
  C       -0.6950920    -1.4344860     0.2644570
  C        1.2926210     0.1057900     0.3196980
  C       -2.4223480     0.6871570    -0.2466200
  C       -2.0666220    -1.6719060     0.1573390
  C       -2.9283400    -0.6051620    -0.0964900
  C        3.5272930    -0.5029810    -0.4769650
  H       -0.0118380    -2.2529100     0.4809780
  H       -3.0973410     1.5164000    -0.4561860
  H       -2.4584240    -2.6782030     0.2778980
  H       -3.9991860    -0.7724420    -0.1829770
  H        1.6477640    -1.1074140    -1.2860730
  H        3.8478870     0.3529870    -1.0808760
  H        3.9959260    -1.4118430    -0.8588240
  H        3.8425270    -0.3337350     0.5522170
  H       -1.2204240     2.8028430    -0.4486720
units angstrom
no_reorient  #important for SAPT in psi4, default
symmetry c1  #important for SAPT in psi4, default
}

set PROPERTIES_ORIGIN ["COM"]
properties('MP2/aug-cc-pvtz', properties = ['dipole'])
--------------------------------------------------------------------------

    Molecular point group: c1
  Charge       = 0
  Multiplicity = 1
  Basis Set: AUG-CC-PVTZ
    Blend: AUG-CC-PVTZ
  Basis Set: (AUG-CC-PVTZ AUX)
    Blend: AUG-CC-PVTZ-JKFIT

    Orbital Energies [Eh]
    ---------------------

    Doubly Occupied:

       1A    -20.592502     2A    -20.514306     3A    -15.584341
       4A    -11.349460     5A    -11.318464     6A    -11.258318
       7A    -11.257980     8A    -11.256336     9A    -11.254244
      10A    -11.241978    11A    -11.235361    12A     -1.404383
      13A     -1.367976    14A     -1.226235    15A     -1.164667
      16A     -1.059448    17A     -1.007002    18A     -0.952515
      19A     -0.867390    20A     -0.840797    21A     -0.782306
      22A     -0.751273    23A     -0.718478    24A     -0.673164
      25A     -0.662647    26A     -0.639126    27A     -0.619011
      28A     -0.610655    29A     -0.594889    30A     -0.582246
      31A     -0.571115    32A     -0.545757    33A     -0.536845
      34A     -0.518565    35A     -0.504095    36A     -0.488878
      37A     -0.419053    38A     -0.389622    39A     -0.362753
      40A     -0.322772

  @DF-RHF Final Energy:  -512.52709726822218

   => Energetics <=

    Nuclear Repulsion Energy =            588.4144928076693759
    One-Electron Energy =               -1865.7892750865680682
    Two-Electron Energy =                 764.8476850106765141
    Total Energy =                       -512.5270972682221782
  Basis Set: (AUG-CC-PVTZ AUX)
    Blend: AUG-CC-PVTZ-RI
    Molecular point group: c1

    Geometry (in Angstrom), charge = 0, multiplicity = 1:

       Center              X                  Y                   Z               Mass
    ------------   -----------------  -----------------  -----------------  -----------------
         O           -0.492273647429     2.144575283653    -0.321765020326    15.994914619570
         O            1.750044352571     0.863718283653     1.138640979674    15.994914619570
         N            2.090765352571    -0.690887716347    -0.506481020326    14.003074004430
         C           -0.168621647429    -0.164050716347     0.109220979674    12.000000000000
         C           -0.910248147429     0.853590683653    -0.134687120326    12.000000000000
         C           -0.688993647429    -1.455992716347     0.243499979674    12.000000000000
         C            1.298719352571     0.084283283653     0.298740979674    12.000000000000
         C           -2.416249647429     0.665650283653    -0.267577020326    12.000000000000
         C           -2.060523647429    -1.693412716347     0.136381979674    12.000000000000
         C           -2.922241647429    -0.626668716347    -0.117447020326    12.000000000000
         C            3.533391352571    -0.524487716347    -0.497922020326    12.000000000000
         H           -0.005739647429    -2.274416716347     0.460020979674     1.007825032230
         H           -3.091242647429     1.494893283653    -0.477143020326     1.007825032230
         H           -2.452325647429    -2.699709716347     0.256940979674     1.007825032230
         H           -3.993087647429    -0.793948716347    -0.203934020326     1.007825032230
         H            1.653862352571    -1.128920716347    -1.307030020326     1.007825032230
         H            3.853985352571     0.331480283653    -1.101833020326     1.007825032230
         H            4.002024352571    -1.433349716347    -0.879781020326     1.007825032230
         H            3.848625352571    -0.355241716347     0.531259979674     1.007825032230
         H           -1.214325647429     2.781336283653    -0.469629020326     1.007825032230

  Basis Set: AUG-CC-PVTZ
    Blend: AUG-CC-PVTZ
  Basis Set: (AUG-CC-PVTZ AUX)
    Blend: AUG-CC-PVTZ-JKFIT
	 Reference Energy          =    -512.5270972682221782 [Eh]
	 Singles Energy            =      -0.0000000000000000 [Eh]
	 Same-Spin Energy          =      -0.5361255058244030 [Eh]
	 Opposite-Spin Energy      =      -1.6462399825162586 [Eh]
	 Correlation Energy        =      -2.1823654883406616 [Eh]
	 Total Energy              =    -514.7094627565628571 [Eh]

	 ================> DF-SCS-MP2 Energies <==================
	-----------------------------------------------------------
	 SCS Same-Spin Scale       =       0.3333333333333333 [-]
	 SCS Opposite-Spin Scale   =       1.2000000000000000 [-]
	 SCS Same-Spin Energy      =      -0.1787085019414676 [Eh]
	 SCS Opposite-Spin Energy  =      -1.9754879790195101 [Eh]
	 SCS Correlation Energy    =      -2.1541964809609779 [Eh]
	 SCS Total Energy          =    -514.6812937491831690 [Eh]
	-----------------------------------------------------------

  Dipole Moment: [D]
     X:    -1.6832      Y:    -1.6457      Z:    -2.9541     Total:     3.7773

*** Psi4 exiting successfully. Buy a developer a beer!
