                               Psi4 1.4a3.dev225

  ==> Input File <==

--------------------------------------------------------------------------
#psi4
#
memory 32 gb

molecule  {
0 1
  O       -0.4983720     2.1660820    -0.3008080
  O        1.7439460     0.8852250     1.1595980
  N        2.0846670    -0.6693810    -0.4855240
  C       -0.1747200    -0.1425440     0.1301780
  C       -1.0501490     0.9240530    -0.1297870
  C       -0.6950920    -1.4344860     0.2644570
  C        1.2926210     0.1057900     0.3196980
  C       -2.4223480     0.6871570    -0.2466200
  C       -2.0666220    -1.6719060     0.1573390
  C       -2.9283400    -0.6051620    -0.0964900
  C        3.3286138    -0.5258977    -0.4781438
  H       -0.0118380    -2.2529100     0.4809780
  H       -3.0973410     1.5164000    -0.4561860
  H       -2.4584240    -2.6782030     0.2778980
  H       -3.9991860    -0.7724420    -0.1829770
  H        1.6477640    -1.1074140    -1.2860730
  H        3.8478870     0.3529870    -1.0808760
  H        3.9959260    -1.4118430    -0.8588240
  H        3.8425270    -0.3337350     0.5522170
  H       -1.2204240     2.8028430    -0.4486720
units angstrom
no_reorient  #important for SAPT in psi4, default
symmetry c1  #important for SAPT in psi4, default
}

set PROPERTIES_ORIGIN ["COM"]
properties('MP2/aug-cc-pvtz', properties = ['dipole'])
--------------------------------------------------------------------------

    Molecular point group: c1
  Charge       = 0
  Multiplicity = 1
  Basis Set: AUG-CC-PVTZ
    Blend: AUG-CC-PVTZ
  Basis Set: (AUG-CC-PVTZ AUX)
    Blend: AUG-CC-PVTZ-JKFIT

    Orbital Energies [Eh]
    ---------------------

    Doubly Occupied:

       1A    -20.600919     2A    -20.523146     3A    -15.587652
       4A    -11.357241     5A    -11.324254     6A    -11.261584
       7A    -11.260259     8A    -11.260113     9A    -11.253823
      10A    -11.249857    11A    -11.243882    12A     -1.413444
      13A     -1.383486    14A     -1.281882    15A     -1.165146
      16A     -1.054960    17A     -1.021379    18A     -0.951208
      19A     -0.866544    20A     -0.842723    21A     -0.802042
      22A     -0.748225    23A     -0.733496    24A     -0.686959
      25A     -0.679850    26A     -0.646338    27A     -0.628695
      28A     -0.620386    29A     -0.599602    30A     -0.598858
      31A     -0.583067    32A     -0.536856    33A     -0.523859
      34A     -0.507380    35A     -0.490326    36A     -0.487144
      37A     -0.430647    38A     -0.373263    39A     -0.358372
      40A     -0.329582

  @DF-RHF Final Energy:  -512.50097796519958

   => Energetics <=

    Nuclear Repulsion Energy =            591.2964816492415139
    One-Electron Energy =               -1871.0580165755391135
    Two-Electron Energy =                 767.2605569610980183
    Total Energy =                       -512.5009779651995814
  Basis Set: (AUG-CC-PVTZ AUX)
    Blend: AUG-CC-PVTZ-RI
    Molecular point group: c1

    Geometry (in Angstrom), charge = 0, multiplicity = 1:

       Center              X                  Y                   Z               Mass
    ------------   -----------------  -----------------  -----------------  -----------------
         O           -0.465862337426     2.142506834592    -0.320395870036    15.994914619570
         O            1.776455662574     0.861649834592     1.140010129964    15.994914619570
         N            2.117176662574    -0.692956165408    -0.505111870036    14.003074004430
         C           -0.142210337426    -0.166119165408     0.110590129964    12.000000000000
         C           -1.017639337426     0.900477834592    -0.149374870036    12.000000000000
         C           -0.662582337426    -1.458061165408     0.244869129964    12.000000000000
         C            1.325130662574     0.082214834592     0.300110129964    12.000000000000
         C           -2.389838337426     0.663581834592    -0.266207870036    12.000000000000
         C           -2.034112337426    -1.695481165408     0.137751129964    12.000000000000
         C           -2.895830337426    -0.628737165408    -0.116077870036    12.000000000000
         C            3.361123462574    -0.549472865408    -0.497731670036    12.000000000000
         H            0.020671662574    -2.276485165408     0.461390129964     1.007825032230
         H           -3.064831337426     1.492824834592    -0.475773870036     1.007825032230
         H           -2.425914337426    -2.701778165408     0.258310129964     1.007825032230
         H           -3.966676337426    -0.796017165408    -0.202564870036     1.007825032230
         H            1.680273662574    -1.130989165408    -1.305660870036     1.007825032230
         H            3.880396662574     0.329411834592    -1.100463870036     1.007825032230
         H            4.028435662574    -1.435418165408    -0.878411870036     1.007825032230
         H            3.875036662574    -0.357310165408     0.532629129964     1.007825032230
         H           -1.187914337426     2.779267834592    -0.468259870036     1.007825032230

  Basis Set: AUG-CC-PVTZ
    Blend: AUG-CC-PVTZ
  Basis Set: (AUG-CC-PVTZ AUX)
    Blend: AUG-CC-PVTZ-JKFIT
	 Reference Energy          =    -512.5009779651995814 [Eh]
	 Singles Energy            =      -0.0000000000000000 [Eh]
	 Same-Spin Energy          =      -0.5396829400888193 [Eh]
	 Opposite-Spin Energy      =      -1.6486071581496842 [Eh]
	 Correlation Energy        =      -2.1882900982385034 [Eh]
	 Total Energy              =    -514.6892680634381350 [Eh]

	 ================> DF-SCS-MP2 Energies <==================
	-----------------------------------------------------------
	 SCS Same-Spin Scale       =       0.3333333333333333 [-]
	 SCS Opposite-Spin Scale   =       1.2000000000000000 [-]
	 SCS Same-Spin Energy      =      -0.1798943133629398 [Eh]
	 SCS Opposite-Spin Energy  =      -1.9783285897796210 [Eh]
	 SCS Correlation Energy    =      -2.1582229031425606 [Eh]
	 SCS Total Energy          =    -514.6592008683421682 [Eh]
	-----------------------------------------------------------

  Dipole Moment: [D]
     X:    -2.4333      Y:    -1.5985      Z:    -2.8037     Total:     4.0419

*** Psi4 exiting successfully. Buy a developer a beer!
