                               Psi4 1.4a3.dev225

  ==> Input File <==

--------------------------------------------------------------------------
#psi4
#
memory 32 gb

molecule  {
0 1
  O       -0.4983720     2.1660820    -0.3008080
  O        1.7439460     0.8852250     1.1595980
  N        2.0846670    -0.6693810    -0.4855240
  C       -0.1747200    -0.1425440     0.1301780
  C       -1.0501490     0.9240530    -0.1297870
  C       -0.6915279    -1.4582203     0.2686576
  C        1.2926210     0.1057900     0.3196980
  C       -2.4223480     0.6871570    -0.2466200
  C       -2.0666220    -1.6719060     0.1573390
  C       -2.9283400    -0.6051620    -0.0964900
  C        3.5272930    -0.5029810    -0.4769650
  H       -0.0118380    -2.2529100     0.4809780
  H       -3.0973410     1.5164000    -0.4561860
  H       -2.4584240    -2.6782030     0.2778980
  H       -3.9991860    -0.7724420    -0.1829770
  H        1.6477640    -1.1074140    -1.2860730
  H        3.8478870     0.3529870    -1.0808760
  H        3.9959260    -1.4118430    -0.8588240
  H        3.8425270    -0.3337350     0.5522170
  H       -1.2204240     2.8028430    -0.4486720
units angstrom
no_reorient  #important for SAPT in psi4, default
symmetry c1  #important for SAPT in psi4, default
}

set PROPERTIES_ORIGIN ["COM"]
properties('MP2/aug-cc-pvtz', properties = ['dipole'])
--------------------------------------------------------------------------

    Molecular point group: c1
  Charge       = 0
  Multiplicity = 1
  Basis Set: AUG-CC-PVTZ
    Blend: AUG-CC-PVTZ
  Basis Set: (AUG-CC-PVTZ AUX)
    Blend: AUG-CC-PVTZ-JKFIT

    Orbital Energies [Eh]
    ---------------------

    Doubly Occupied:

       1A    -20.597573     2A    -20.512694     3A    -15.583689
       4A    -11.349544     5A    -11.320207     6A    -11.258045
       7A    -11.257083     8A    -11.255834     9A    -11.251222
      10A    -11.247457    11A    -11.241089    12A     -1.409788
      13A     -1.366654    14A     -1.225039    15A     -1.157976
      16A     -1.044912    17A     -1.018572    18A     -0.949885
      19A     -0.866645    20A     -0.843225    21A     -0.782410
      22A     -0.743212    23A     -0.723500    24A     -0.674717
      25A     -0.648323    26A     -0.635767    27A     -0.621104
      28A     -0.613330    29A     -0.595421    30A     -0.586720
      31A     -0.574019    32A     -0.545064    33A     -0.535176
      34A     -0.523646    35A     -0.511665    36A     -0.488774
      37A     -0.420911    38A     -0.388686    39A     -0.352280
      40A     -0.326704

  @DF-RHF Final Energy:  -512.55099677729413

   => Energetics <=

    Nuclear Repulsion Energy =            586.7246252892141456
    One-Electron Energy =               -1862.4541166280482685
    Two-Electron Energy =                 763.1784945615399920
    Total Energy =                       -512.5509967772941309
  Basis Set: (AUG-CC-PVTZ AUX)
    Blend: AUG-CC-PVTZ-RI
    Molecular point group: c1

    Geometry (in Angstrom), charge = 0, multiplicity = 1:

       Center              X                  Y                   Z               Mass
    ------------   -----------------  -----------------  -----------------  -----------------
         O           -0.481927914847     2.142571782188    -0.320823192806    15.994914619570
         O            1.760390085153     0.861714782188     1.139582807194    15.994914619570
         N            2.101111085153    -0.692891217812    -0.505539192806    14.003074004430
         C           -0.158275914847    -0.166054217812     0.110162807194    12.000000000000
         C           -1.033704914847     0.900542782188    -0.149802192806    12.000000000000
         C           -0.675083814847    -1.481730517812     0.248642407194    12.000000000000
         C            1.309065085153     0.082279782188     0.299682807194    12.000000000000
         C           -2.405903914847     0.663646782188    -0.266635192806    12.000000000000
         C           -2.050177914847    -1.695416217812     0.137323807194    12.000000000000
         C           -2.911895914847    -0.628672217812    -0.116505192806    12.000000000000
         C            3.543737085153    -0.526491217812    -0.496980192806    12.000000000000
         H            0.004606085153    -2.276420217812     0.460962807194     1.007825032230
         H           -3.080896914847     1.492889782188    -0.476201192806     1.007825032230
         H           -2.441979914847    -2.701713217812     0.257882807194     1.007825032230
         H           -3.982741914847    -0.795952217812    -0.202992192806     1.007825032230
         H            1.664208085153    -1.130924217812    -1.306088192806     1.007825032230
         H            3.864331085153     0.329476782188    -1.100891192806     1.007825032230
         H            4.012370085153    -1.435353217812    -0.878839192806     1.007825032230
         H            3.858971085153    -0.357245217812     0.532201807194     1.007825032230
         H           -1.203979914847     2.779332782188    -0.468687192806     1.007825032230

  Basis Set: AUG-CC-PVTZ
    Blend: AUG-CC-PVTZ
  Basis Set: (AUG-CC-PVTZ AUX)
    Blend: AUG-CC-PVTZ-JKFIT
	 Reference Energy          =    -512.5509967772941309 [Eh]
	 Singles Energy            =      -0.0000000000000000 [Eh]
	 Same-Spin Energy          =      -0.5370921066044456 [Eh]
	 Opposite-Spin Energy      =      -1.6462338909709771 [Eh]
	 Correlation Energy        =      -2.1833259975754227 [Eh]
	 Total Energy              =    -514.7343227748694972 [Eh]

	 ================> DF-SCS-MP2 Energies <==================
	-----------------------------------------------------------
	 SCS Same-Spin Scale       =       0.3333333333333333 [-]
	 SCS Opposite-Spin Scale   =       1.2000000000000000 [-]
	 SCS Same-Spin Energy      =      -0.1790307022014819 [Eh]
	 SCS Opposite-Spin Energy  =      -1.9754806691651723 [Eh]
	 SCS Correlation Energy    =      -2.1545113713666542 [Eh]
	 SCS Total Energy          =    -514.7055081486607833 [Eh]
	-----------------------------------------------------------

  Dipole Moment: [D]
     X:    -1.7247      Y:    -1.5845      Z:    -2.9725     Total:     3.7844

*** Psi4 exiting successfully. Buy a developer a beer!
