                               Psi4 1.4a3.dev225

  ==> Input File <==

--------------------------------------------------------------------------
#psi4
#
memory 32 gb

molecule  {
0 1
  O       -0.4983720     2.1660820    -0.3008080
  O        1.7439460     0.8852250     1.1595980
  N        2.0846670    -0.6693810    -0.4855240
  C       -0.1747200    -0.1425440     0.1301780
  C       -1.0501490     0.9240530    -0.1297870
  C       -0.6950920    -1.4344860     0.2644570
  C        1.2169062     0.0594799     0.2841269
  C       -2.4223480     0.6871570    -0.2466200
  C       -2.0666220    -1.6719060     0.1573390
  C       -2.9283400    -0.6051620    -0.0964900
  C        3.5272930    -0.5029810    -0.4769650
  H       -0.0118380    -2.2529100     0.4809780
  H       -3.0973410     1.5164000    -0.4561860
  H       -2.4584240    -2.6782030     0.2778980
  H       -3.9991860    -0.7724420    -0.1829770
  H        1.6477640    -1.1074140    -1.2860730
  H        3.8478870     0.3529870    -1.0808760
  H        3.9959260    -1.4118430    -0.8588240
  H        3.8425270    -0.3337350     0.5522170
  H       -1.2204240     2.8028430    -0.4486720
units angstrom
no_reorient  #important for SAPT in psi4, default
symmetry c1  #important for SAPT in psi4, default
}

set PROPERTIES_ORIGIN ["COM"]
properties('MP2/aug-cc-pvtz', properties = ['dipole'])
--------------------------------------------------------------------------

    Molecular point group: c1
  Charge       = 0
  Multiplicity = 1
  Basis Set: AUG-CC-PVTZ
    Blend: AUG-CC-PVTZ
  Basis Set: (AUG-CC-PVTZ AUX)
    Blend: AUG-CC-PVTZ-JKFIT

    Orbital Energies [Eh]
    ---------------------

    Doubly Occupied:

       1A    -20.600482     2A    -20.499547     3A    -15.589001
       4A    -11.351511     5A    -11.327360     6A    -11.263535
       7A    -11.262506     8A    -11.257573     9A    -11.250633
      10A    -11.250436    11A    -11.244369    12A     -1.412540
      13A     -1.324542    14A     -1.211981    15A     -1.167052
      16A     -1.060920    17A     -1.022928    18A     -0.955010
      19A     -0.876058    20A     -0.853829    21A     -0.780858
      22A     -0.745629    23A     -0.728984    24A     -0.679162
      25A     -0.653409    26A     -0.632808    27A     -0.619569
      28A     -0.609742    29A     -0.596762    30A     -0.589225
      31A     -0.570626    32A     -0.540201    33A     -0.532816
      34A     -0.520425    35A     -0.505090    36A     -0.485169
      37A     -0.413539    38A     -0.378622    39A     -0.357890
      40A     -0.330230

  @DF-RHF Final Energy:  -512.53072070153655

   => Energetics <=

    Nuclear Repulsion Energy =            587.3703676402176370
    One-Electron Energy =               -1863.6970436360513759
    Two-Electron Energy =                 763.7959552942971868
    Total Energy =                       -512.5307207015365520
  Basis Set: (AUG-CC-PVTZ AUX)
    Blend: AUG-CC-PVTZ-RI
    Molecular point group: c1

    Geometry (in Angstrom), charge = 0, multiplicity = 1:

       Center              X                  Y                   Z               Mass
    ------------   -----------------  -----------------  -----------------  -----------------
         O           -0.475630246119     2.144365133378    -0.317663852915    15.994914619570
         O            1.766687753881     0.863508133378     1.142742147085    15.994914619570
         N            2.107408753881    -0.691097866622    -0.502379852915    14.003074004430
         C           -0.151978246119    -0.164260866622     0.113322147085    12.000000000000
         C           -1.027407246119     0.902336133378    -0.146642852915    12.000000000000
         C           -0.672350246119    -1.456202866622     0.247601147085    12.000000000000
         C            1.239647953881     0.037763033378     0.267271047085    12.000000000000
         C           -2.399606246119     0.665440133378    -0.263475852915    12.000000000000
         C           -2.043880246119    -1.693622866622     0.140483147085    12.000000000000
         C           -2.905598246119    -0.626878866622    -0.113345852915    12.000000000000
         C            3.550034753881    -0.524697866622    -0.493820852915    12.000000000000
         H            0.010903753881    -2.274626866622     0.464122147085     1.007825032230
         H           -3.074599246119     1.494683133378    -0.473041852915     1.007825032230
         H           -2.435682246119    -2.699919866622     0.261042147085     1.007825032230
         H           -3.976444246119    -0.794158866622    -0.199832852915     1.007825032230
         H            1.670505753881    -1.129130866622    -1.302928852915     1.007825032230
         H            3.870628753881     0.331270133378    -1.097731852915     1.007825032230
         H            4.018667753881    -1.433559866622    -0.875679852915     1.007825032230
         H            3.865268753881    -0.355451866622     0.535361147085     1.007825032230
         H           -1.197682246119     2.781126133378    -0.465527852915     1.007825032230

  Basis Set: AUG-CC-PVTZ
    Blend: AUG-CC-PVTZ
  Basis Set: (AUG-CC-PVTZ AUX)
    Blend: AUG-CC-PVTZ-JKFIT
	 Reference Energy          =    -512.5307207015365520 [Eh]
	 Singles Energy            =      -0.0000000000000000 [Eh]
	 Same-Spin Energy          =      -0.5397488024689809 [Eh]
	 Opposite-Spin Energy      =      -1.6513159605088426 [Eh]
	 Correlation Energy        =      -2.1910647629778235 [Eh]
	 Total Energy              =    -514.7217854645143689 [Eh]

	 ================> DF-SCS-MP2 Energies <==================
	-----------------------------------------------------------
	 SCS Same-Spin Scale       =       0.3333333333333333 [-]
	 SCS Opposite-Spin Scale   =       1.2000000000000000 [-]
	 SCS Same-Spin Energy      =      -0.1799162674896603 [Eh]
	 SCS Opposite-Spin Energy  =      -1.9815791526106110 [Eh]
	 SCS Correlation Energy    =      -2.1614954201002714 [Eh]
	 SCS Total Energy          =    -514.6922161216368750 [Eh]
	-----------------------------------------------------------

  Dipole Moment: [D]
     X:    -2.1087      Y:    -1.8036      Z:    -3.2332     Total:     4.2606

*** Psi4 exiting successfully. Buy a developer a beer!
