                               Psi4 1.4a3.dev225

  ==> Input File <==

--------------------------------------------------------------------------
#psi4
#
memory 32 gb

molecule  {
0 1
  O       -0.4983720     2.1660820    -0.3008080
  O        1.7439460     0.8852250     1.1595980
  N        2.0846670    -0.6693810    -0.4855240
  C       -0.1747200    -0.1425440     0.1301780
  C       -1.0719004     0.9335520    -0.1326504
  C       -0.6950920    -1.4344860     0.2644570
  C        1.2926210     0.1057900     0.3196980
  C       -2.4223480     0.6871570    -0.2466200
  C       -2.0666220    -1.6719060     0.1573390
  C       -2.9283400    -0.6051620    -0.0964900
  C        3.5272930    -0.5029810    -0.4769650
  H       -0.0118380    -2.2529100     0.4809780
  H       -3.0973410     1.5164000    -0.4561860
  H       -2.4584240    -2.6782030     0.2778980
  H       -3.9991860    -0.7724420    -0.1829770
  H        1.6477640    -1.1074140    -1.2860730
  H        3.8478870     0.3529870    -1.0808760
  H        3.9959260    -1.4118430    -0.8588240
  H        3.8425270    -0.3337350     0.5522170
  H       -1.2204240     2.8028430    -0.4486720
units angstrom
no_reorient  #important for SAPT in psi4, default
symmetry c1  #important for SAPT in psi4, default
}

set PROPERTIES_ORIGIN ["COM"]
properties('MP2/aug-cc-pvtz', properties = ['dipole'])
--------------------------------------------------------------------------

    Molecular point group: c1
  Charge       = 0
  Multiplicity = 1
  Basis Set: AUG-CC-PVTZ
    Blend: AUG-CC-PVTZ
  Basis Set: (AUG-CC-PVTZ AUX)
    Blend: AUG-CC-PVTZ-JKFIT

    Orbital Energies [Eh]
    ---------------------

    Doubly Occupied:

       1A    -20.598579     2A    -20.512952     3A    -15.583846
       4A    -11.350141     5A    -11.320173     6A    -11.257051
       7A    -11.256979     8A    -11.255923     9A    -11.251580
      10A    -11.244301    11A    -11.240411    12A     -1.410820
      13A     -1.366912    14A     -1.225207    15A     -1.159808
      16A     -1.045867    17A     -1.019022    18A     -0.949847
      19A     -0.865481    20A     -0.843645    21A     -0.783398
      22A     -0.740853    23A     -0.724675    24A     -0.675630
      25A     -0.645803    26A     -0.635240    27A     -0.619190
      28A     -0.613182    29A     -0.596185    30A     -0.586698
      31A     -0.575780    32A     -0.545139    33A     -0.536769
      34A     -0.523491    35A     -0.509212    36A     -0.489901
      37A     -0.421642    38A     -0.388709    39A     -0.354892
      40A     -0.325734

  @DF-RHF Final Energy:  -512.55111876067167

   => Energetics <=

    Nuclear Repulsion Energy =            586.9718659814249122
    One-Electron Energy =               -1862.9446328796998387
    Two-Electron Energy =                 763.4216481376033698
    Total Energy =                       -512.5511187606716703
  Basis Set: (AUG-CC-PVTZ AUX)
    Blend: AUG-CC-PVTZ-RI
    Molecular point group: c1

    Geometry (in Angstrom), charge = 0, multiplicity = 1:

       Center              X                  Y                   Z               Mass
    ------------   -----------------  -----------------  -----------------  -----------------
         O           -0.479916930428     2.139931832414    -0.320262050663    15.994914619570
         O            1.762401069572     0.859074832414     1.140143949337    15.994914619570
         N            2.103122069572    -0.695531167586    -0.504978050663    14.003074004430
         C           -0.156264930428    -0.168694167586     0.110723949337    12.000000000000
         C           -1.053445330428     0.907401832414    -0.152104450663    12.000000000000
         C           -0.676636930428    -1.460636167586     0.245002949337    12.000000000000
         C            1.311076069572     0.079639832414     0.300243949337    12.000000000000
         C           -2.403892930428     0.661006832414    -0.266074050663    12.000000000000
         C           -2.048166930428    -1.698056167586     0.137884949337    12.000000000000
         C           -2.909884930428    -0.631312167586    -0.115944050663    12.000000000000
         C            3.545748069572    -0.529131167586    -0.496419050663    12.000000000000
         H            0.006617069572    -2.279060167586     0.461523949337     1.007825032230
         H           -3.078885930428     1.490249832414    -0.475640050663     1.007825032230
         H           -2.439968930428    -2.704353167586     0.258443949337     1.007825032230
         H           -3.980730930428    -0.798592167586    -0.202431050663     1.007825032230
         H            1.666219069572    -1.133564167586    -1.305527050663     1.007825032230
         H            3.866342069572     0.326836832414    -1.100330050663     1.007825032230
         H            4.014381069572    -1.437993167586    -0.878278050663     1.007825032230
         H            3.860982069572    -0.359885167586     0.532762949337     1.007825032230
         H           -1.201968930428     2.776692832414    -0.468126050663     1.007825032230

  Basis Set: AUG-CC-PVTZ
    Blend: AUG-CC-PVTZ
  Basis Set: (AUG-CC-PVTZ AUX)
    Blend: AUG-CC-PVTZ-JKFIT
	 Reference Energy          =    -512.5511187606716703 [Eh]
	 Singles Energy            =      -0.0000000000000000 [Eh]
	 Same-Spin Energy          =      -0.5370807970372578 [Eh]
	 Opposite-Spin Energy      =      -1.6462307949908430 [Eh]
	 Correlation Energy        =      -2.1833115920281010 [Eh]
	 Total Energy              =    -514.7344303526997464 [Eh]

	 ================> DF-SCS-MP2 Energies <==================
	-----------------------------------------------------------
	 SCS Same-Spin Scale       =       0.3333333333333333 [-]
	 SCS Opposite-Spin Scale   =       1.2000000000000000 [-]
	 SCS Same-Spin Energy      =      -0.1790269323457526 [Eh]
	 SCS Opposite-Spin Energy  =      -1.9754769539890116 [Eh]
	 SCS Correlation Energy    =      -2.1545038863347643 [Eh]
	 SCS Total Energy          =    -514.7056226470064075 [Eh]
	-----------------------------------------------------------

  Dipole Moment: [D]
     X:    -1.7105      Y:    -1.5716      Z:    -2.9766     Total:     3.7756

*** Psi4 exiting successfully. Buy a developer a beer!
