                               Psi4 1.4a3.dev225

  ==> Input File <==

--------------------------------------------------------------------------
#psi4
#
memory 32 gb

molecule  {
0 1
  O       -0.4983720     2.1660820    -0.3008080
  O        1.7439460     0.8852250     1.1595980
  N        2.0846670    -0.6693810    -0.4855240
  C       -0.1747200    -0.1425440     0.1301780
  C       -1.0904307     0.8333805    -0.1173019
  C       -0.6950920    -1.4344860     0.2644570
  C        1.2926210     0.1057900     0.3196980
  C       -2.4223480     0.6871570    -0.2466200
  C       -2.0666220    -1.6719060     0.1573390
  C       -2.9283400    -0.6051620    -0.0964900
  C        3.5272930    -0.5029810    -0.4769650
  H       -0.0118380    -2.2529100     0.4809780
  H       -3.0973410     1.5164000    -0.4561860
  H       -2.4584240    -2.6782030     0.2778980
  H       -3.9991860    -0.7724420    -0.1829770
  H        1.6477640    -1.1074140    -1.2860730
  H        3.8478870     0.3529870    -1.0808760
  H        3.9959260    -1.4118430    -0.8588240
  H        3.8425270    -0.3337350     0.5522170
  H       -1.2204240     2.8028430    -0.4486720
units angstrom
no_reorient  #important for SAPT in psi4, default
symmetry c1  #important for SAPT in psi4, default
}

set PROPERTIES_ORIGIN ["COM"]
properties('MP2/aug-cc-pvtz', properties = ['dipole'])
--------------------------------------------------------------------------

    Molecular point group: c1
  Charge       = 0
  Multiplicity = 1
  Basis Set: AUG-CC-PVTZ
    Blend: AUG-CC-PVTZ
  Basis Set: (AUG-CC-PVTZ AUX)
    Blend: AUG-CC-PVTZ-JKFIT

    Orbital Energies [Eh]
    ---------------------

    Doubly Occupied:

       1A    -20.578301     2A    -20.514803     3A    -15.586147
       4A    -11.354163     5A    -11.311727     6A    -11.260307
       7A    -11.259605     8A    -11.257227     9A    -11.251109
      10A    -11.246441    11A    -11.245273    12A     -1.372557
      13A     -1.358142    14A     -1.227429    15A     -1.173623
      16A     -1.055310    17A     -1.025927    18A     -0.953324
      19A     -0.869654    20A     -0.840974    21A     -0.786843
      22A     -0.740940    23A     -0.709454    24A     -0.670786
      25A     -0.651194    26A     -0.638035    27A     -0.619619
      28A     -0.610913    29A     -0.589828    30A     -0.576380
      31A     -0.567286    32A     -0.546442    33A     -0.531003
      34A     -0.527981    35A     -0.510319    36A     -0.490922
      37A     -0.424454    38A     -0.390121    39A     -0.358799
      40A     -0.339785

  @DF-RHF Final Energy:  -512.53941149735067

   => Energetics <=

    Nuclear Repulsion Energy =            587.5643623013340857
    One-Electron Energy =               -1864.1612517702287732
    Two-Electron Energy =                 764.0574779715440172
    Total Energy =                       -512.5394114973506703
  Basis Set: (AUG-CC-PVTZ AUX)
    Blend: AUG-CC-PVTZ-RI
    Molecular point group: c1

    Geometry (in Angstrom), charge = 0, multiplicity = 1:

       Center              X                  Y                   Z               Mass
    ------------   -----------------  -----------------  -----------------  -----------------
         O           -0.478444941149     2.147889144170    -0.321481287666    15.994914619570
         O            1.763873058851     0.867032144170     1.138924712334    15.994914619570
         N            2.104594058851    -0.687573855830    -0.506197287666    14.003074004430
         C           -0.154792941149    -0.160736855830     0.109504712334    12.000000000000
         C           -1.070503641149     0.815187644170    -0.137975187666    12.000000000000
         C           -0.675164941149    -1.452678855830     0.243783712334    12.000000000000
         C            1.312548058851     0.087597144170     0.299024712334    12.000000000000
         C           -2.402420941149     0.668964144170    -0.267293287666    12.000000000000
         C           -2.046694941149    -1.690098855830     0.136665712334    12.000000000000
         C           -2.908412941149    -0.623354855830    -0.117163287666    12.000000000000
         C            3.547220058851    -0.521173855830    -0.497638287666    12.000000000000
         H            0.008089058851    -2.271102855830     0.460304712334     1.007825032230
         H           -3.077413941149     1.498207144170    -0.476859287666     1.007825032230
         H           -2.438496941149    -2.696395855830     0.257224712334     1.007825032230
         H           -3.979258941149    -0.790634855830    -0.203650287666     1.007825032230
         H            1.667691058851    -1.125606855830    -1.306746287666     1.007825032230
         H            3.867814058851     0.334794144170    -1.101549287666     1.007825032230
         H            4.015853058851    -1.430035855830    -0.879497287666     1.007825032230
         H            3.862454058851    -0.351927855830     0.531543712334     1.007825032230
         H           -1.200496941149     2.784650144170    -0.469345287666     1.007825032230

  Basis Set: AUG-CC-PVTZ
    Blend: AUG-CC-PVTZ
  Basis Set: (AUG-CC-PVTZ AUX)
    Blend: AUG-CC-PVTZ-JKFIT
	 Reference Energy          =    -512.5394114973506703 [Eh]
	 Singles Energy            =      -0.0000000000000000 [Eh]
	 Same-Spin Energy          =      -0.5373481175355911 [Eh]
	 Opposite-Spin Energy      =      -1.6477245406962417 [Eh]
	 Correlation Energy        =      -2.1850726582318329 [Eh]
	 Total Energy              =    -514.7244841555825587 [Eh]

	 ================> DF-SCS-MP2 Energies <==================
	-----------------------------------------------------------
	 SCS Same-Spin Scale       =       0.3333333333333333 [-]
	 SCS Opposite-Spin Scale   =       1.2000000000000000 [-]
	 SCS Same-Spin Energy      =      -0.1791160391785304 [Eh]
	 SCS Opposite-Spin Energy  =      -1.9772694488354901 [Eh]
	 SCS Correlation Energy    =      -2.1563854880140205 [Eh]
	 SCS Total Energy          =    -514.6957969853647228 [Eh]
	-----------------------------------------------------------

  Dipole Moment: [D]
     X:    -1.8587      Y:    -2.1644      Z:    -2.8858     Total:     4.0580

*** Psi4 exiting successfully. Buy a developer a beer!
