                               Psi4 1.4a3.dev225

  ==> Input File <==

--------------------------------------------------------------------------
#psi4
#
memory 32 gb

molecule  {
0 1
  O       -0.4983720     2.1660820    -0.3008080
  O        1.7439460     0.8852250     1.1595980
  N        2.0846670    -0.6693810    -0.4855240
  C       -0.1747200    -0.1425440     0.1301780
  C       -1.0501490     0.9240530    -0.1297870
  C       -0.6950920    -1.4344860     0.2644570
  C        1.2926210     0.1057900     0.3196980
  C       -2.4223480     0.6871570    -0.2466200
  C       -2.0666220    -1.6719060     0.1573390
  C       -2.9283400    -0.6051620    -0.0964900
  C        3.5272930    -0.5029810    -0.4769650
  H       -0.0118380    -2.2529100     0.4809780
  H       -3.0973410     1.5164000    -0.4561860
  H       -2.4584240    -2.6782030     0.2778980
  H       -3.9991860    -0.7724420    -0.1829770
  H        1.5613981    -1.1940033    -1.4443235
  H        3.8478870     0.3529870    -1.0808760
  H        3.9959260    -1.4118430    -0.8588240
  H        3.8425270    -0.3337350     0.5522170
  H       -1.2204240     2.8028430    -0.4486720
units angstrom
no_reorient  #important for SAPT in psi4, default
symmetry c1  #important for SAPT in psi4, default
}

set PROPERTIES_ORIGIN ["COM"]
properties('MP2/aug-cc-pvtz', properties = ['dipole'])
--------------------------------------------------------------------------

    Molecular point group: c1
  Charge       = 0
  Multiplicity = 1
  Basis Set: AUG-CC-PVTZ
    Blend: AUG-CC-PVTZ
  Basis Set: (AUG-CC-PVTZ AUX)
    Blend: AUG-CC-PVTZ-JKFIT

    Orbital Energies [Eh]
    ---------------------

    Doubly Occupied:

       1A    -20.597142     2A    -20.513054     3A    -15.599477
       4A    -11.349966     5A    -11.319555     6A    -11.256367
       7A    -11.256036     8A    -11.256012     9A    -11.248782
      10A    -11.246074    11A    -11.239941    12A     -1.409342
      13A     -1.365864    14A     -1.208447    15A     -1.158960
      16A     -1.045852    17A     -1.017073    18A     -0.947164
      19A     -0.863474    20A     -0.841072    21A     -0.759432
      22A     -0.738665    23A     -0.710159    24A     -0.674152
      25A     -0.644502    26A     -0.634621    27A     -0.617580
      28A     -0.611629    29A     -0.595148    30A     -0.583873
      31A     -0.571989    32A     -0.536332    33A     -0.531653
      34A     -0.521925    35A     -0.510541    36A     -0.488945
      37A     -0.420473    38A     -0.386190    39A     -0.353263
      40A     -0.325535

  @DF-RHF Final Energy:  -512.52168821205487

   => Energetics <=

    Nuclear Repulsion Energy =            586.1793461365502935
    One-Electron Energy =               -1861.4895528247566290
    Two-Electron Energy =                 762.7885184761514665
    Total Energy =                       -512.5216882120548689
  Basis Set: (AUG-CC-PVTZ AUX)
    Blend: AUG-CC-PVTZ-RI
    Molecular point group: c1

    Geometry (in Angstrom), charge = 0, multiplicity = 1:

       Center              X                  Y                   Z               Mass
    ------------   -----------------  -----------------  -----------------  -----------------
         O           -0.481068600299     2.141264087343    -0.319433735700    15.994914619570
         O            1.761249399701     0.860407087343     1.140972264300    15.994914619570
         N            2.101970399701    -0.694198912657    -0.504149735700    14.003074004430
         C           -0.157416600299    -0.167361912657     0.111552264300    12.000000000000
         C           -1.032845600299     0.899235087343    -0.148412735700    12.000000000000
         C           -0.677788600299    -1.459303912657     0.245831264300    12.000000000000
         C            1.309924399701     0.080972087343     0.301072264300    12.000000000000
         C           -2.405044600299     0.662339087343    -0.265245735700    12.000000000000
         C           -2.049318600299    -1.696723912657     0.138713264300    12.000000000000
         C           -2.911036600299    -0.629979912657    -0.115115735700    12.000000000000
         C            3.544596399701    -0.527798912657    -0.495590735700    12.000000000000
         H            0.005465399701    -2.277727912657     0.462352264300     1.007825032230
         H           -3.080037600299     1.491582087343    -0.474811735700     1.007825032230
         H           -2.441120600299    -2.703020912657     0.259272264300     1.007825032230
         H           -3.981882600299    -0.797259912657    -0.201602735700     1.007825032230
         H            1.578701499701    -1.218821212657    -1.462949235700     1.007825032230
         H            3.865190399701     0.328169087343    -1.099501735700     1.007825032230
         H            4.013229399701    -1.436660912657    -0.877449735700     1.007825032230
         H            3.859830399701    -0.358552912657     0.533591264300     1.007825032230
         H           -1.203120600299     2.778025087343    -0.467297735700     1.007825032230

  Basis Set: AUG-CC-PVTZ
    Blend: AUG-CC-PVTZ
  Basis Set: (AUG-CC-PVTZ AUX)
    Blend: AUG-CC-PVTZ-JKFIT
	 Reference Energy          =    -512.5216882120548689 [Eh]
	 Singles Energy            =      -0.0000000000000000 [Eh]
	 Same-Spin Energy          =      -0.5386622638743096 [Eh]
	 Opposite-Spin Energy      =      -1.6503209320003123 [Eh]
	 Correlation Energy        =      -2.1889831958746218 [Eh]
	 Total Energy              =    -514.7106714079294534 [Eh]

	 ================> DF-SCS-MP2 Energies <==================
	-----------------------------------------------------------
	 SCS Same-Spin Scale       =       0.3333333333333333 [-]
	 SCS Opposite-Spin Scale   =       1.2000000000000000 [-]
	 SCS Same-Spin Energy      =      -0.1795540879581032 [Eh]
	 SCS Opposite-Spin Energy  =      -1.9803851184003747 [Eh]
	 SCS Correlation Energy    =      -2.1599392063584779 [Eh]
	 SCS Total Energy          =    -514.6816274184133135 [Eh]
	-----------------------------------------------------------

  Dipole Moment: [D]
     X:    -1.6974      Y:    -1.6434      Z:    -3.0941     Total:     3.8930

*** Psi4 exiting successfully. Buy a developer a beer!
