                               Psi4 1.4a3.dev225

  ==> Input File <==

--------------------------------------------------------------------------
#psi4
#
memory 32 gb

molecule  {
0 1
  O       -0.4983720     2.1660820    -0.3008080
  O        1.7439460     0.8852250     1.1595980
  N        2.0846670    -0.6693810    -0.4855240
  C       -0.1747200    -0.1425440     0.1301780
  C       -1.0501490     0.9240530    -0.1297870
  C       -0.6950920    -1.4344860     0.2644570
  C        1.2926210     0.1057900     0.3196980
  C       -2.4223480     0.6871570    -0.2466200
  C       -2.0666220    -1.6719060     0.1573390
  C       -2.8047614    -0.7581433    -0.0600885
  C        3.5272930    -0.5029810    -0.4769650
  H       -0.0118380    -2.2529100     0.4809780
  H       -3.0973410     1.5164000    -0.4561860
  H       -2.4584240    -2.6782030     0.2778980
  H       -3.9991860    -0.7724420    -0.1829770
  H        1.6477640    -1.1074140    -1.2860730
  H        3.8478870     0.3529870    -1.0808760
  H        3.9959260    -1.4118430    -0.8588240
  H        3.8425270    -0.3337350     0.5522170
  H       -1.2204240     2.8028430    -0.4486720
units angstrom
no_reorient  #important for SAPT in psi4, default
symmetry c1  #important for SAPT in psi4, default
}

set PROPERTIES_ORIGIN ["COM"]
properties('MP2/aug-cc-pvtz', properties = ['dipole'])
--------------------------------------------------------------------------

    Molecular point group: c1
  Charge       = 0
  Multiplicity = 1
  Basis Set: AUG-CC-PVTZ
    Blend: AUG-CC-PVTZ
  Basis Set: (AUG-CC-PVTZ AUX)
    Blend: AUG-CC-PVTZ-JKFIT

    Orbital Energies [Eh]
    ---------------------

    Doubly Occupied:

       1A    -20.594612     2A    -20.514490     3A    -15.585196
       4A    -11.351898     5A    -11.317323     6A    -11.262030
       7A    -11.256785     8A    -11.253889     9A    -11.248435
      10A    -11.247485    11A    -11.216358    12A     -1.407541
      13A     -1.368400    14A     -1.226641    15A     -1.178671
      16A     -1.061107    17A     -1.016061    18A     -0.950092
      19A     -0.879076    20A     -0.830598    21A     -0.781461
      22A     -0.742216    23A     -0.719078    24A     -0.672607
      25A     -0.655442    26A     -0.638471    27A     -0.622677
      28A     -0.613328    29A     -0.594293    30A     -0.581244
      31A     -0.575389    32A     -0.547076    33A     -0.543642
      34A     -0.519685    35A     -0.506141    36A     -0.475659
      37A     -0.421585    38A     -0.389859    39A     -0.360171
      40A     -0.331979

  @DF-RHF Final Energy:  -512.48960392463789

   => Energetics <=

    Nuclear Repulsion Energy =            589.3419651348265234
    One-Electron Energy =               -1867.5457578458447188
    Two-Electron Energy =                 765.7141887863803049
    Total Energy =                       -512.4896039246378905
  Basis Set: (AUG-CC-PVTZ AUX)
    Blend: AUG-CC-PVTZ-RI
    Molecular point group: c1

    Geometry (in Angstrom), charge = 0, multiplicity = 1:

       Center              X                  Y                   Z               Mass
    ------------   -----------------  -----------------  -----------------  -----------------
         O           -0.491461492678     2.152838761044    -0.323381131942    15.994914619570
         O            1.750856507322     0.871981761044     1.137024868058    15.994914619570
         N            2.091577507322    -0.682624238956    -0.508097131942    14.003074004430
         C           -0.167809492678    -0.155787238956     0.107604868058    12.000000000000
         C           -1.043238492678     0.910809761044    -0.152360131942    12.000000000000
         C           -0.688181492678    -1.447729238956     0.241883868058    12.000000000000
         C            1.299531507322     0.092546761044     0.297124868058    12.000000000000
         C           -2.415437492678     0.673913761044    -0.269193131942    12.000000000000
         C           -2.059711492678    -1.685149238956     0.134765868058    12.000000000000
         C           -2.797850892678    -0.771386538956    -0.082661631942    12.000000000000
         C            3.534203507322    -0.516224238956    -0.499538131942    12.000000000000
         H           -0.004927492678    -2.266153238956     0.458404868058     1.007825032230
         H           -3.090430492678     1.503156761044    -0.478759131942     1.007825032230
         H           -2.451513492678    -2.691446238956     0.255324868058     1.007825032230
         H           -3.992275492678    -0.785685238956    -0.205550131942     1.007825032230
         H            1.654674507322    -1.120657238956    -1.308646131942     1.007825032230
         H            3.854797507322     0.339743761044    -1.103449131942     1.007825032230
         H            4.002836507322    -1.425086238956    -0.881397131942     1.007825032230
         H            3.849437507322    -0.346978238956     0.529643868058     1.007825032230
         H           -1.213513492678     2.789599761044    -0.471245131942     1.007825032230

  Basis Set: AUG-CC-PVTZ
    Blend: AUG-CC-PVTZ
  Basis Set: (AUG-CC-PVTZ AUX)
    Blend: AUG-CC-PVTZ-JKFIT
	 Reference Energy          =    -512.4896039246378905 [Eh]
	 Singles Energy            =      -0.0000000000000000 [Eh]
	 Same-Spin Energy          =      -0.5363483193106033 [Eh]
	 Opposite-Spin Energy      =      -1.6473393608636220 [Eh]
	 Correlation Energy        =      -2.1836876801742253 [Eh]
	 Total Energy              =    -514.6732916048121069 [Eh]

	 ================> DF-SCS-MP2 Energies <==================
	-----------------------------------------------------------
	 SCS Same-Spin Scale       =       0.3333333333333333 [-]
	 SCS Opposite-Spin Scale   =       1.2000000000000000 [-]
	 SCS Same-Spin Energy      =      -0.1787827731035344 [Eh]
	 SCS Opposite-Spin Energy  =      -1.9768072330363462 [Eh]
	 SCS Correlation Energy    =      -2.1555900061398807 [Eh]
	 SCS Total Energy          =    -514.6451939307777366 [Eh]
	-----------------------------------------------------------

  Dipole Moment: [D]
     X:    -1.5434      Y:    -1.6598      Z:    -2.9476     Total:     3.7183

*** Psi4 exiting successfully. Buy a developer a beer!
