                               Psi4 1.4a3.dev225

  ==> Input File <==

--------------------------------------------------------------------------
#psi4
#
memory 32 gb

molecule  {
0 1
  O       -0.4983720     2.1660820    -0.3008080
  O        1.7439460     0.8852250     1.1595980
  N        2.0846670    -0.6693810    -0.4855240
  C       -0.1747200    -0.1425440     0.1301780
  C       -1.0501490     0.9240530    -0.1297870
  C       -0.6950920    -1.4344860     0.2644570
  C        1.2926210     0.1057900     0.3196980
  C       -2.4223480     0.6871570    -0.2466200
  C       -2.0666220    -1.6719060     0.1573390
  C       -2.9283400    -0.6051620    -0.0964900
  C        3.5272930    -0.5029810    -0.4769650
  H       -0.0118380    -2.2529100     0.4809780
  H       -3.0973410     1.5164000    -0.4561860
  H       -2.4584240    -2.6782030     0.2778980
  H       -4.0484303    -0.7801346    -0.1869542
  H        1.6477640    -1.1074140    -1.2860730
  H        3.8478870     0.3529870    -1.0808760
  H        3.9959260    -1.4118430    -0.8588240
  H        3.8425270    -0.3337350     0.5522170
  H       -1.2204240     2.8028430    -0.4486720
units angstrom
no_reorient  #important for SAPT in psi4, default
symmetry c1  #important for SAPT in psi4, default
}

set PROPERTIES_ORIGIN ["COM"]
properties('MP2/aug-cc-pvtz', properties = ['dipole'])
--------------------------------------------------------------------------

    Molecular point group: c1
  Charge       = 0
  Multiplicity = 1
  Basis Set: AUG-CC-PVTZ
    Blend: AUG-CC-PVTZ
  Basis Set: (AUG-CC-PVTZ AUX)
    Blend: AUG-CC-PVTZ-JKFIT

    Orbital Energies [Eh]
    ---------------------

    Doubly Occupied:

       1A    -20.597967     2A    -20.513235     3A    -15.584027
       4A    -11.350167     5A    -11.320719     6A    -11.262416
       7A    -11.257679     8A    -11.256061     9A    -11.249677
      10A    -11.247019    11A    -11.240868    12A     -1.410166
      13A     -1.367161    14A     -1.225450    15A     -1.160029
      16A     -1.045794    17A     -1.017957    18A     -0.949895
      19A     -0.863575    20A     -0.843592    21A     -0.782910
      22A     -0.741641    23A     -0.723308    24A     -0.672453
      25A     -0.646844    26A     -0.636063    27A     -0.618129
      28A     -0.612781    29A     -0.595951    30A     -0.584429
      31A     -0.575315    32A     -0.545307    33A     -0.535706
      34A     -0.520275    35A     -0.510668    36A     -0.490061
      37A     -0.421570    38A     -0.388931    39A     -0.354589
      40A     -0.326406

  @DF-RHF Final Energy:  -512.54961329801165

   => Energetics <=

    Nuclear Repulsion Energy =            586.9073255695084299
    One-Electron Energy =               -1862.8202982039792914
    Two-Electron Energy =                 763.3633593364592116
    Total Energy =                       -512.5496132980116499
  Basis Set: (AUG-CC-PVTZ AUX)
    Blend: AUG-CC-PVTZ-RI
    Molecular point group: c1

    Geometry (in Angstrom), charge = 0, multiplicity = 1:

       Center              X                  Y                   Z               Mass
    ------------   -----------------  -----------------  -----------------  -----------------
         O           -0.481316258536     2.140737724857    -0.320462976186    15.994914619570
         O            1.761001741464     0.859880724857     1.139943023814    15.994914619570
         N            2.101722741464    -0.694725275143    -0.505178976186    14.003074004430
         C           -0.157664258536    -0.167888275143     0.110523023814    12.000000000000
         C           -1.033093258536     0.898708724857    -0.149441976186    12.000000000000
         C           -0.678036258536    -1.459830275143     0.244802023814    12.000000000000
         C            1.309676741464     0.080445724857     0.300043023814    12.000000000000
         C           -2.405292258536     0.661812724857    -0.266274976186    12.000000000000
         C           -2.049566258536    -1.697250275143     0.137684023814    12.000000000000
         C           -2.911284258536    -0.630506275143    -0.116144976186    12.000000000000
         C            3.544348741464    -0.528325275143    -0.496619976186    12.000000000000
         H            0.005217741464    -2.278254275143     0.461323023814     1.007825032230
         H           -3.080285258536     1.491055724857    -0.475840976186     1.007825032230
         H           -2.441368258536    -2.703547275143     0.258243023814     1.007825032230
         H           -4.031374558536    -0.805478875143    -0.206609176186     1.007825032230
         H            1.664819741464    -1.132758275143    -1.305727976186     1.007825032230
         H            3.864942741464     0.327642724857    -1.100530976186     1.007825032230
         H            4.012981741464    -1.437187275143    -0.878478976186     1.007825032230
         H            3.859582741464    -0.359079275143     0.532562023814     1.007825032230
         H           -1.203368258536     2.777498724857    -0.468326976186     1.007825032230

  Basis Set: AUG-CC-PVTZ
    Blend: AUG-CC-PVTZ
  Basis Set: (AUG-CC-PVTZ AUX)
    Blend: AUG-CC-PVTZ-JKFIT
	 Reference Energy          =    -512.5496132980116499 [Eh]
	 Singles Energy            =      -0.0000000000000000 [Eh]
	 Same-Spin Energy          =      -0.5371492220555009 [Eh]
	 Opposite-Spin Energy      =      -1.6464851186800897 [Eh]
	 Correlation Energy        =      -2.1836343407355905 [Eh]
	 Total Energy              =    -514.7332476387472298 [Eh]

	 ================> DF-SCS-MP2 Energies <==================
	-----------------------------------------------------------
	 SCS Same-Spin Scale       =       0.3333333333333333 [-]
	 SCS Opposite-Spin Scale   =       1.2000000000000000 [-]
	 SCS Same-Spin Energy      =      -0.1790497406851669 [Eh]
	 SCS Opposite-Spin Energy  =      -1.9757821424161075 [Eh]
	 SCS Correlation Energy    =      -2.1548318831012745 [Eh]
	 SCS Total Energy          =    -514.7044451811128738 [Eh]
	-----------------------------------------------------------

  Dipole Moment: [D]
     X:    -1.6881      Y:    -1.5766      Z:    -2.9725     Total:     3.7645

*** Psi4 exiting successfully. Buy a developer a beer!
