                               Psi4 1.4a3.dev225

  ==> Input File <==

--------------------------------------------------------------------------
#psi4
#
memory 32 gb

molecule  {
0 1
  O       -0.4983720     2.1660820    -0.3008080
  O        1.7439460     0.8852250     1.1595980
  N        2.0846670    -0.6693810    -0.4855240
  C       -0.1747200    -0.1425440     0.1301780
  C       -0.9695856     1.1053981    -0.1547573
  C       -0.6950920    -1.4344860     0.2644570
  C        1.2926210     0.1057900     0.3196980
  C       -2.4223480     0.6871570    -0.2466200
  C       -2.0666220    -1.6719060     0.1573390
  C       -2.9283400    -0.6051620    -0.0964900
  C        3.5272930    -0.5029810    -0.4769650
  H       -0.0118380    -2.2529100     0.4809780
  H       -3.0973410     1.5164000    -0.4561860
  H       -2.4584240    -2.6782030     0.2778980
  H       -3.9991860    -0.7724420    -0.1829770
  H        1.6477640    -1.1074140    -1.2860730
  H        3.8478870     0.3529870    -1.0808760
  H        3.9959260    -1.4118430    -0.8588240
  H        3.8425270    -0.3337350     0.5522170
  H       -1.2204240     2.8028430    -0.4486720
units angstrom
no_reorient  #important for SAPT in psi4, default
symmetry c1  #important for SAPT in psi4, default
}

set PROPERTIES_ORIGIN ["COM"]
properties('MP2/aug-cc-pvtz', properties = ['dipole'])
--------------------------------------------------------------------------

    Molecular point group: c1
  Charge       = 0
  Multiplicity = 1
  Basis Set: AUG-CC-PVTZ
    Blend: AUG-CC-PVTZ
  Basis Set: (AUG-CC-PVTZ AUX)
    Blend: AUG-CC-PVTZ-JKFIT

    Orbital Energies [Eh]
    ---------------------

    Doubly Occupied:

       1A    -20.647100     2A    -20.509249     3A    -15.578736
       4A    -11.347032     5A    -11.341383     6A    -11.253139
       7A    -11.251592     8A    -11.251312     9A    -11.244380
      10A    -11.243737    11A    -11.224392    12A     -1.549041
      13A     -1.364245    14A     -1.220610    15A     -1.134957
      16A     -1.032705    17A     -0.998083    18A     -0.945221
      19A     -0.892812    20A     -0.850782    21A     -0.778874
      22A     -0.770874    23A     -0.726154    24A     -0.705908
      25A     -0.678809    26A     -0.647869    27A     -0.632572
      28A     -0.617079    29A     -0.604727    30A     -0.580787
      31A     -0.571840    32A     -0.542318    33A     -0.533920
      34A     -0.519242    35A     -0.479266    36A     -0.476391
      37A     -0.411459    38A     -0.385901    39A     -0.346293
      40A     -0.293471

  @DF-RHF Final Energy:  -512.49200829552251

   => Energetics <=

    Nuclear Repulsion Energy =            587.0129179159551995
    One-Electron Energy =               -1862.6413258880820649
    Two-Electron Energy =                 763.1363996766042419
    Total Energy =                       -512.4920082955225098
  Basis Set: (AUG-CC-PVTZ AUX)
    Blend: AUG-CC-PVTZ-RI
    Molecular point group: c1

    Geometry (in Angstrom), charge = 0, multiplicity = 1:

       Center              X                  Y                   Z               Mass
    ------------   -----------------  -----------------  -----------------  -----------------
         O           -0.488044499256     2.126280913823    -0.318505947427    15.994914619570
         O            1.754273500744     0.845423913823     1.141900052573    15.994914619570
         N            2.094994500744    -0.709182086177    -0.503221947427    14.003074004430
         C           -0.164392499256    -0.182345086177     0.112480052573    12.000000000000
         C           -0.959258099256     1.065597013823    -0.172455247427    12.000000000000
         C           -0.684764499256    -1.474287086177     0.246759052573    12.000000000000
         C            1.302948500744     0.065988913823     0.302000052573    12.000000000000
         C           -2.412020499256     0.647355913823    -0.264317947427    12.000000000000
         C           -2.056294499256    -1.711707086177     0.139641052573    12.000000000000
         C           -2.918012499256    -0.644963086177    -0.114187947427    12.000000000000
         C            3.537620500744    -0.542782086177    -0.494662947427    12.000000000000
         H           -0.001510499256    -2.292711086177     0.463280052573     1.007825032230
         H           -3.087013499256     1.476598913823    -0.473883947427     1.007825032230
         H           -2.448096499256    -2.718004086177     0.260200052573     1.007825032230
         H           -3.988858499256    -0.812243086177    -0.200674947427     1.007825032230
         H            1.658091500744    -1.147215086177    -1.303770947427     1.007825032230
         H            3.858214500744     0.313185913823    -1.098573947427     1.007825032230
         H            4.006253500744    -1.451644086177    -0.876521947427     1.007825032230
         H            3.852854500744    -0.373536086177     0.534519052573     1.007825032230
         H           -1.210096499256     2.763041913823    -0.466369947427     1.007825032230

  Basis Set: AUG-CC-PVTZ
    Blend: AUG-CC-PVTZ
  Basis Set: (AUG-CC-PVTZ AUX)
    Blend: AUG-CC-PVTZ-JKFIT
	 Reference Energy          =    -512.4920082955225098 [Eh]
	 Singles Energy            =      -0.0000000000000000 [Eh]
	 Same-Spin Energy          =      -0.5378561135094486 [Eh]
	 Opposite-Spin Energy      =      -1.6454986703479320 [Eh]
	 Correlation Energy        =      -2.1833547838573804 [Eh]
	 Total Energy              =    -514.6753630793798493 [Eh]

	 ================> DF-SCS-MP2 Energies <==================
	-----------------------------------------------------------
	 SCS Same-Spin Scale       =       0.3333333333333333 [-]
	 SCS Opposite-Spin Scale   =       1.2000000000000000 [-]
	 SCS Same-Spin Energy      =      -0.1792853711698162 [Eh]
	 SCS Opposite-Spin Energy  =      -1.9745984044175182 [Eh]
	 SCS Correlation Energy    =      -2.1538837755873343 [Eh]
	 SCS Total Energy          =    -514.6458920711098699 [Eh]
	-----------------------------------------------------------

  Dipole Moment: [D]
     X:    -1.3017      Y:    -0.1344      Z:    -3.1840     Total:     3.4424

*** Psi4 exiting successfully. Buy a developer a beer!
