                               Psi4 1.4a3.dev225

  ==> Input File <==

--------------------------------------------------------------------------
#psi4
#
memory 32 gb

molecule  {
0 1
  O       -0.4983720     2.1660820    -0.3008080
  O        1.7439460     0.8852250     1.1595980
  N        2.0846670    -0.6693810    -0.4855240
  C       -0.1747200    -0.1425440     0.1301780
  C       -1.0501490     0.9240530    -0.1297870
  C       -0.6950920    -1.4344860     0.2644570
  C        1.2926210     0.1057900     0.3196980
  C       -2.4223480     0.6871570    -0.2466200
  C       -2.0666220    -1.6719060     0.1573390
  C       -3.0519186    -0.4521807    -0.1328915
  C        3.5272930    -0.5029810    -0.4769650
  H       -0.0118380    -2.2529100     0.4809780
  H       -3.0973410     1.5164000    -0.4561860
  H       -2.4584240    -2.6782030     0.2778980
  H       -3.9991860    -0.7724420    -0.1829770
  H        1.6477640    -1.1074140    -1.2860730
  H        3.8478870     0.3529870    -1.0808760
  H        3.9959260    -1.4118430    -0.8588240
  H        3.8425270    -0.3337350     0.5522170
  H       -1.2204240     2.8028430    -0.4486720
units angstrom
no_reorient  #important for SAPT in psi4, default
symmetry c1  #important for SAPT in psi4, default
}

set PROPERTIES_ORIGIN ["COM"]
properties('MP2/aug-cc-pvtz', properties = ['dipole'])
--------------------------------------------------------------------------

    Molecular point group: c1
  Charge       = 0
  Multiplicity = 1
  Basis Set: AUG-CC-PVTZ
    Blend: AUG-CC-PVTZ
  Basis Set: (AUG-CC-PVTZ AUX)
    Blend: AUG-CC-PVTZ-JKFIT

    Orbital Energies [Eh]
    ---------------------

    Doubly Occupied:

       1A    -20.600639     2A    -20.512477     3A    -15.583228
       4A    -11.349021     5A    -11.323397     6A    -11.260688
       7A    -11.255580     8A    -11.254586     9A    -11.252995
      10A    -11.247273    11A    -11.245422    12A     -1.412102
      13A     -1.366354    14A     -1.224699    15A     -1.154525
      16A     -1.059214    17A     -1.002733    18A     -0.952001
      19A     -0.866572    20A     -0.843695    21A     -0.783965
      22A     -0.741140    23A     -0.723370    24A     -0.703497
      25A     -0.643765    26A     -0.633924    27A     -0.620940
      28A     -0.606528    29A     -0.597670    30A     -0.588589
      31A     -0.576974    32A     -0.552002    33A     -0.544610
      34A     -0.520035    35A     -0.484138    36A     -0.475533
      37A     -0.420950    38A     -0.388378    39A     -0.372702
      40A     -0.309189

  @DF-RHF Final Energy:  -512.50952998704884

   => Energetics <=

    Nuclear Repulsion Energy =            585.4786699161027173
    One-Electron Energy =               -1859.8661974258097871
    Two-Electron Energy =                 761.8779975226582337
    Total Energy =                       -512.5095299870488361
  Basis Set: (AUG-CC-PVTZ AUX)
    Blend: AUG-CC-PVTZ-RI
    Molecular point group: c1

    Geometry (in Angstrom), charge = 0, multiplicity = 1:

       Center              X                  Y                   Z               Mass
    ------------   -----------------  -----------------  -----------------  -----------------
         O           -0.471828095024     2.128534045693    -0.317597888527    15.994914619570
         O            1.770489904976     0.847677045693     1.142808111473    15.994914619570
         N            2.111210904976    -0.706928954307    -0.502313888527    14.003074004430
         C           -0.148176095024    -0.180091954307     0.113388111473    12.000000000000
         C           -1.023605095024     0.886505045693    -0.146576888527    12.000000000000
         C           -0.668548095024    -1.472033954307     0.247667111473    12.000000000000
         C            1.319164904976     0.068242045693     0.302908111473    12.000000000000
         C           -2.395804095024     0.649609045693    -0.263409888527    12.000000000000
         C           -2.040078095024    -1.709453954307     0.140549111473    12.000000000000
         C           -3.025374695024    -0.489728654307    -0.149681388527    12.000000000000
         C            3.553836904976    -0.540528954307    -0.493754888527    12.000000000000
         H            0.014705904976    -2.290457954307     0.464188111473     1.007825032230
         H           -3.070797095024     1.478852045693    -0.472975888527     1.007825032230
         H           -2.431880095024    -2.715750954307     0.261108111473     1.007825032230
         H           -3.972642095024    -0.809989954307    -0.199766888527     1.007825032230
         H            1.674307904976    -1.144961954307    -1.302862888527     1.007825032230
         H            3.874430904976     0.315439045693    -1.097665888527     1.007825032230
         H            4.022469904976    -1.449390954307    -0.875613888527     1.007825032230
         H            3.869070904976    -0.371282954307     0.535427111473     1.007825032230
         H           -1.193880095024     2.765295045693    -0.465461888527     1.007825032230

  Basis Set: AUG-CC-PVTZ
    Blend: AUG-CC-PVTZ
  Basis Set: (AUG-CC-PVTZ AUX)
    Blend: AUG-CC-PVTZ-JKFIT
	 Reference Energy          =    -512.5095299870488361 [Eh]
	 Singles Energy            =      -0.0000000000000000 [Eh]
	 Same-Spin Energy          =      -0.5370725518570824 [Eh]
	 Opposite-Spin Energy      =      -1.6490535543480176 [Eh]
	 Correlation Energy        =      -2.1861261062051001 [Eh]
	 Total Energy              =    -514.6956560932538878 [Eh]

	 ================> DF-SCS-MP2 Energies <==================
	-----------------------------------------------------------
	 SCS Same-Spin Scale       =       0.3333333333333333 [-]
	 SCS Opposite-Spin Scale   =       1.2000000000000000 [-]
	 SCS Same-Spin Energy      =      -0.1790241839523608 [Eh]
	 SCS Opposite-Spin Energy  =      -1.9788642652176209 [Eh]
	 SCS Correlation Energy    =      -2.1578884491699819 [Eh]
	 SCS Total Energy          =    -514.6674184362187816 [Eh]
	-----------------------------------------------------------

  Dipole Moment: [D]
     X:    -1.8025      Y:    -1.5298      Z:    -2.9900     Total:     3.8118

*** Psi4 exiting successfully. Buy a developer a beer!
