                               Psi4 1.4a3.dev225

  ==> Input File <==

--------------------------------------------------------------------------
#psi4
#
memory 32 gb

molecule  {
0 1
  O       -0.4983720     2.1660820    -0.3008080
  O        1.7439460     0.8852250     1.1595980
  N        2.0846670    -0.6693810    -0.4855240
  C       -0.1747200    -0.1425440     0.1301780
  C       -1.0501490     0.9240530    -0.1297870
  C       -0.6950920    -1.4344860     0.2644570
  C        1.2559732     0.0424996     0.2514978
  C       -2.4223480     0.6871570    -0.2466200
  C       -2.0666220    -1.6719060     0.1573390
  C       -2.9283400    -0.6051620    -0.0964900
  C        3.5272930    -0.5029810    -0.4769650
  H       -0.0118380    -2.2529100     0.4809780
  H       -3.0973410     1.5164000    -0.4561860
  H       -2.4584240    -2.6782030     0.2778980
  H       -3.9991860    -0.7724420    -0.1829770
  H        1.6477640    -1.1074140    -1.2860730
  H        3.8478870     0.3529870    -1.0808760
  H        3.9959260    -1.4118430    -0.8588240
  H        3.8425270    -0.3337350     0.5522170
  H       -1.2204240     2.8028430    -0.4486720
units angstrom
no_reorient  #important for SAPT in psi4, default
symmetry c1  #important for SAPT in psi4, default
}

set PROPERTIES_ORIGIN ["COM"]
properties('MP2/aug-cc-pvtz', properties = ['dipole'])
--------------------------------------------------------------------------

    Molecular point group: c1
  Charge       = 0
  Multiplicity = 1
  Basis Set: AUG-CC-PVTZ
    Blend: AUG-CC-PVTZ
  Basis Set: (AUG-CC-PVTZ AUX)
    Blend: AUG-CC-PVTZ-JKFIT

    Orbital Energies [Eh]
    ---------------------

    Doubly Occupied:

       1A    -20.597745     2A    -20.492345     3A    -15.598429
       4A    -11.349125     5A    -11.324382     6A    -11.263157
       7A    -11.260519     8A    -11.259649     9A    -11.251443
      10A    -11.248737    11A    -11.242469    12A     -1.409651
      13A     -1.326326    14A     -1.219774    15A     -1.164118
      16A     -1.055322    17A     -1.020309    18A     -0.965219
      19A     -0.870624    20A     -0.850990    21A     -0.789300
      22A     -0.746073    23A     -0.730451    24A     -0.676353
      25A     -0.656795    26A     -0.635564    27A     -0.617081
      28A     -0.615738    29A     -0.595826    30A     -0.587452
      31A     -0.565659    32A     -0.541663    33A     -0.530102
      34A     -0.515643    35A     -0.505807    36A     -0.487041
      37A     -0.408209    38A     -0.380680    39A     -0.354678
      40A     -0.327499

  @DF-RHF Final Energy:  -512.53002735567190

   => Energetics <=

    Nuclear Repulsion Energy =            587.2643060351371105
    One-Electron Energy =               -1863.5127783692603316
    Two-Electron Energy =                 763.7184449784512026
    Total Energy =                       -512.5300273556719048
  Basis Set: (AUG-CC-PVTZ AUX)
    Blend: AUG-CC-PVTZ-RI
    Molecular point group: c1

    Geometry (in Angstrom), charge = 0, multiplicity = 1:

       Center              X                  Y                   Z               Mass
    ------------   -----------------  -----------------  -----------------  -----------------
         O           -0.478733606839     2.145713995488    -0.315071898906    15.994914619570
         O            1.763584393161     0.864856995488     1.145334101094    15.994914619570
         N            2.104305393161    -0.689749004512    -0.499787898906    14.003074004430
         C           -0.155081606839    -0.162912004512     0.115914101094    12.000000000000
         C           -1.030510606839     0.903684995488    -0.144050898906    12.000000000000
         C           -0.675453606839    -1.454854004512     0.250193101094    12.000000000000
         C            1.275611593161     0.022131595488     0.237233901094    12.000000000000
         C           -2.402709606839     0.666788995488    -0.260883898906    12.000000000000
         C           -2.046983606839    -1.692274004512     0.143075101094    12.000000000000
         C           -2.908701606839    -0.625530004512    -0.110753898906    12.000000000000
         C            3.546931393161    -0.523349004512    -0.491228898906    12.000000000000
         H            0.007800393161    -2.273278004512     0.466714101094     1.007825032230
         H           -3.077702606839     1.496031995488    -0.470449898906     1.007825032230
         H           -2.438785606839    -2.698571004512     0.263634101094     1.007825032230
         H           -3.979547606839    -0.792810004512    -0.197240898906     1.007825032230
         H            1.667402393161    -1.127782004512    -1.300336898906     1.007825032230
         H            3.867525393161     0.332618995488    -1.095139898906     1.007825032230
         H            4.015564393161    -1.432211004512    -0.873087898906     1.007825032230
         H            3.862165393161    -0.354103004512     0.537953101094     1.007825032230
         H           -1.200785606839     2.782474995488    -0.462935898906     1.007825032230

  Basis Set: AUG-CC-PVTZ
    Blend: AUG-CC-PVTZ
  Basis Set: (AUG-CC-PVTZ AUX)
    Blend: AUG-CC-PVTZ-JKFIT
	 Reference Energy          =    -512.5300273556719048 [Eh]
	 Singles Energy            =      -0.0000000000000000 [Eh]
	 Same-Spin Energy          =      -0.5395355372193529 [Eh]
	 Opposite-Spin Energy      =      -1.6508166074561683 [Eh]
	 Correlation Energy        =      -2.1903521446755212 [Eh]
	 Total Energy              =    -514.7203795003474625 [Eh]

	 ================> DF-SCS-MP2 Energies <==================
	-----------------------------------------------------------
	 SCS Same-Spin Scale       =       0.3333333333333333 [-]
	 SCS Opposite-Spin Scale   =       1.2000000000000000 [-]
	 SCS Same-Spin Energy      =      -0.1798451790731176 [Eh]
	 SCS Opposite-Spin Energy  =      -1.9809799289474019 [Eh]
	 SCS Correlation Energy    =      -2.1608251080205196 [Eh]
	 SCS Total Energy          =    -514.6908524636924085 [Eh]
	-----------------------------------------------------------

  Dipole Moment: [D]
     X:    -1.7489      Y:    -1.9814      Z:    -3.4606     Total:     4.3544

*** Psi4 exiting successfully. Buy a developer a beer!
