                               Psi4 1.4a3.dev225

  ==> Input File <==

--------------------------------------------------------------------------
#psi4
#
memory 32 gb

molecule  {
0 1
  O       -0.4983720     2.1660820    -0.3008080
  O        1.7439460     0.8852250     1.1595980
  N        2.0846670    -0.6693810    -0.4855240
  C       -0.1747200    -0.1425440     0.1301780
  C       -1.0501490     0.9240530    -0.1297870
  C       -0.6950920    -1.4344860     0.2644570
  C        1.2926210     0.1057900     0.3196980
  C       -2.4223480     0.6871570    -0.2466200
  C       -2.0666220    -1.6719060     0.1573390
  C       -2.9283400    -0.6051620    -0.0964900
  C        3.5272930    -0.5029810    -0.4769650
  H       -0.0118380    -2.2529100     0.4809780
  H       -3.1283160     1.5544534    -0.4658029
  H       -2.4584240    -2.6782030     0.2778980
  H       -3.9991860    -0.7724420    -0.1829770
  H        1.6477640    -1.1074140    -1.2860730
  H        3.8478870     0.3529870    -1.0808760
  H        3.9959260    -1.4118430    -0.8588240
  H        3.8425270    -0.3337350     0.5522170
  H       -1.2204240     2.8028430    -0.4486720
units angstrom
no_reorient  #important for SAPT in psi4, default
symmetry c1  #important for SAPT in psi4, default
}

set PROPERTIES_ORIGIN ["COM"]
properties('MP2/aug-cc-pvtz', properties = ['dipole'])
--------------------------------------------------------------------------

    Molecular point group: c1
  Charge       = 0
  Multiplicity = 1
  Basis Set: AUG-CC-PVTZ
    Blend: AUG-CC-PVTZ
  Basis Set: (AUG-CC-PVTZ AUX)
    Blend: AUG-CC-PVTZ-JKFIT

    Orbital Energies [Eh]
    ---------------------

    Doubly Occupied:

       1A    -20.597567     2A    -20.513271     3A    -15.584064
       4A    -11.350252     5A    -11.320937     6A    -11.257575
       7A    -11.257324     8A    -11.256079     9A    -11.252318
      10A    -11.249907    11A    -11.240812    12A     -1.409814
      13A     -1.367187    14A     -1.225484    15A     -1.160160
      16A     -1.046253    17A     -1.017038    18A     -0.950370
      19A     -0.864003    20A     -0.843703    21A     -0.782992
      22A     -0.740336    23A     -0.723319    24A     -0.675076
      25A     -0.647249    26A     -0.635843    27A     -0.617759
      28A     -0.608859    29A     -0.595755    30A     -0.586299
      31A     -0.574992    32A     -0.545297    33A     -0.535474
      34A     -0.522590    35A     -0.509726    36A     -0.490049
      37A     -0.421635    38A     -0.388951    39A     -0.354654
      40A     -0.326435

  @DF-RHF Final Energy:  -512.54963021008189

   => Energetics <=

    Nuclear Repulsion Energy =            586.9043383239988998
    One-Electron Energy =               -1862.8131145175543679
    Two-Electron Energy =                 763.3591459834735815
    Total Energy =                       -512.5496302100818866
  Basis Set: (AUG-CC-PVTZ AUX)
    Blend: AUG-CC-PVTZ-RI
    Molecular point group: c1

    Geometry (in Angstrom), charge = 0, multiplicity = 1:

       Center              X                  Y                   Z               Mass
    ------------   -----------------  -----------------  -----------------  -----------------
         O           -0.481438142901     2.140432528590    -0.320425350702    15.994914619570
         O            1.760879857099     0.859575528590     1.139980649298    15.994914619570
         N            2.101600857099    -0.695030471410    -0.505141350702    14.003074004430
         C           -0.157786142901    -0.168193471410     0.110560649298    12.000000000000
         C           -1.033215142901     0.898403528590    -0.149404350702    12.000000000000
         C           -0.678158142901    -1.460135471410     0.244839649298    12.000000000000
         C            1.309554857099     0.080140528590     0.300080649298    12.000000000000
         C           -2.405414142901     0.661507528590    -0.266237350702    12.000000000000
         C           -2.049688142901    -1.697555471410     0.137721649298    12.000000000000
         C           -2.911406142901    -0.630811471410    -0.116107350702    12.000000000000
         C            3.544226857099    -0.528630471410    -0.496582350702    12.000000000000
         H            0.005095857099    -2.278559471410     0.461360649298     1.007825032230
         H           -3.111382142901     1.528803928590    -0.485420250702     1.007825032230
         H           -2.441490142901    -2.703852471410     0.258280649298     1.007825032230
         H           -3.982252142901    -0.798091471410    -0.202594350702     1.007825032230
         H            1.664697857099    -1.133063471410    -1.305690350702     1.007825032230
         H            3.864820857099     0.327337528590    -1.100493350702     1.007825032230
         H            4.012859857099    -1.437492471410    -0.878441350702     1.007825032230
         H            3.859460857099    -0.359384471410     0.532599649298     1.007825032230
         H           -1.203490142901     2.777193528590    -0.468289350702     1.007825032230

  Basis Set: AUG-CC-PVTZ
    Blend: AUG-CC-PVTZ
  Basis Set: (AUG-CC-PVTZ AUX)
    Blend: AUG-CC-PVTZ-JKFIT
	 Reference Energy          =    -512.5496302100818866 [Eh]
	 Singles Energy            =      -0.0000000000000000 [Eh]
	 Same-Spin Energy          =      -0.5371621348786220 [Eh]
	 Opposite-Spin Energy      =      -1.6464559652773818 [Eh]
	 Correlation Energy        =      -2.1836181001560035 [Eh]
	 Total Energy              =    -514.7332483102378546 [Eh]

	 ================> DF-SCS-MP2 Energies <==================
	-----------------------------------------------------------
	 SCS Same-Spin Scale       =       0.3333333333333333 [-]
	 SCS Opposite-Spin Scale   =       1.2000000000000000 [-]
	 SCS Same-Spin Energy      =      -0.1790540449595406 [Eh]
	 SCS Opposite-Spin Energy  =      -1.9757471583328581 [Eh]
	 SCS Correlation Energy    =      -2.1548012032923989 [Eh]
	 SCS Total Energy          =    -514.7044314133743228 [Eh]
	-----------------------------------------------------------

  Dipole Moment: [D]
     X:    -1.6978      Y:    -1.6002      Z:    -2.9697     Total:     3.7765

*** Psi4 exiting successfully. Buy a developer a beer!
