                               Psi4 1.4a3.dev225

  ==> Input File <==

--------------------------------------------------------------------------
#psi4
#
memory 32 gb

molecule  {
0 1
  O       -0.4983720     2.1660820    -0.3008080
  O        1.7439460     0.8852250     1.1595980
  N        2.0846670    -0.6693810    -0.4855240
  C       -0.1747200    -0.1425440     0.1301780
  C       -1.0501490     0.9240530    -0.1297870
  C       -0.6950920    -1.4344860     0.2644570
  C        1.2926210     0.1057900     0.3196980
  C       -2.4223480     0.6871570    -0.2466200
  C       -2.0666220    -1.6719060     0.1573390
  C       -2.9283400    -0.6051620    -0.0964900
  C        3.5272930    -0.5029810    -0.4769650
  H       -0.0118380    -2.2529100     0.4809780
  H       -3.0973410     1.5164000    -0.4561860
  H       -2.4584240    -2.6782030     0.2778980
  H       -3.9991860    -0.7724420    -0.1829770
  H        1.6477640    -1.1074140    -1.2860730
  H        3.8478870     0.3529870    -1.0808760
  H        3.9959260    -1.4118430    -0.8588240
  H        3.8425270    -0.3337350     0.5522170
  H       -1.2945562     2.8682185    -0.4638530
units angstrom
no_reorient  #important for SAPT in psi4, default
symmetry c1  #important for SAPT in psi4, default
}

set PROPERTIES_ORIGIN ["COM"]
properties('MP2/aug-cc-pvtz', properties = ['dipole'])
--------------------------------------------------------------------------

    Molecular point group: c1
  Charge       = 0
  Multiplicity = 1
  Basis Set: AUG-CC-PVTZ
    Blend: AUG-CC-PVTZ
  Basis Set: (AUG-CC-PVTZ AUX)
    Blend: AUG-CC-PVTZ-JKFIT

    Orbital Energies [Eh]
    ---------------------

    Doubly Occupied:

       1A    -20.604872     2A    -20.512757     3A    -15.583564
       4A    -11.349653     5A    -11.319582     6A    -11.256972
       7A    -11.256231     8A    -11.255714     9A    -11.248972
      10A    -11.245751    11A    -11.239691    12A     -1.392836
      13A     -1.365971    14A     -1.224980    15A     -1.158263
      16A     -1.045925    17A     -1.014630    18A     -0.949578
      19A     -0.863418    20A     -0.838419    21A     -0.782613
      22A     -0.734980    23A     -0.715286    24A     -0.673401
      25A     -0.646388    26A     -0.635530    27A     -0.617483
      28A     -0.611670    29A     -0.593217    30A     -0.583649
      31A     -0.570490    32A     -0.544935    33A     -0.535013
      34A     -0.520829    35A     -0.510344    36A     -0.488656
      37A     -0.421023    38A     -0.388494    39A     -0.353904
      40A     -0.324957

  @DF-RHF Final Energy:  -512.53845117373658

   => Energetics <=

    Nuclear Repulsion Energy =            586.5512024903247266
    One-Electron Energy =               -1862.2180269209216021
    Two-Electron Energy =                 763.1283732568604137
    Total Energy =                       -512.5384511737365756
  Basis Set: (AUG-CC-PVTZ AUX)
    Blend: AUG-CC-PVTZ-RI
    Molecular point group: c1

    Geometry (in Angstrom), charge = 0, multiplicity = 1:

       Center              X                  Y                   Z               Mass
    ------------   -----------------  -----------------  -----------------  -----------------
         O           -0.481150217917     2.140250248108    -0.320388229586    15.994914619570
         O            1.761167782083     0.859393248108     1.140017770414    15.994914619570
         N            2.101888782083    -0.695212751892    -0.505104229586    14.003074004430
         C           -0.157498217917    -0.168375751892     0.110597770414    12.000000000000
         C           -1.032927217917     0.898221248108    -0.149367229586    12.000000000000
         C           -0.677870217917    -1.460317751892     0.244876770414    12.000000000000
         C            1.309842782083     0.079958248108     0.300117770414    12.000000000000
         C           -2.405126217917     0.661325248108    -0.266200229586    12.000000000000
         C           -2.049400217917    -1.697737751892     0.137758770414    12.000000000000
         C           -2.911118217917    -0.630993751892    -0.116070229586    12.000000000000
         C            3.544514782083    -0.528812751892    -0.496545229586    12.000000000000
         H            0.005383782083    -2.278741751892     0.461397770414     1.007825032230
         H           -3.080119217917     1.490568248108    -0.475766229586     1.007825032230
         H           -2.441202217917    -2.704034751892     0.258317770414     1.007825032230
         H           -3.981964217917    -0.798273751892    -0.202557229586     1.007825032230
         H            1.664985782083    -1.133245751892    -1.305653229586     1.007825032230
         H            3.865108782083     0.327155248108    -1.100456229586     1.007825032230
         H            4.013147782083    -1.437674751892    -0.878404229586     1.007825032230
         H            3.859748782083    -0.359566751892     0.532636770414     1.007825032230
         H           -1.277334417917     2.842386748108    -0.483433229586     1.007825032230

  Basis Set: AUG-CC-PVTZ
    Blend: AUG-CC-PVTZ
  Basis Set: (AUG-CC-PVTZ AUX)
    Blend: AUG-CC-PVTZ-JKFIT
	 Reference Energy          =    -512.5384511737365756 [Eh]
	 Singles Energy            =      -0.0000000000000000 [Eh]
	 Same-Spin Energy          =      -0.5383229133247199 [Eh]
	 Opposite-Spin Energy      =      -1.6493839289280634 [Eh]
	 Correlation Energy        =      -2.1877068422527834 [Eh]
	 Total Energy              =    -514.7261580159893128 [Eh]

	 ================> DF-SCS-MP2 Energies <==================
	-----------------------------------------------------------
	 SCS Same-Spin Scale       =       0.3333333333333333 [-]
	 SCS Opposite-Spin Scale   =       1.2000000000000000 [-]
	 SCS Same-Spin Energy      =      -0.1794409711082400 [Eh]
	 SCS Opposite-Spin Energy  =      -1.9792607147136760 [Eh]
	 SCS Correlation Energy    =      -2.1587016858219159 [Eh]
	 SCS Total Energy          =    -514.6971528595585141 [Eh]
	-----------------------------------------------------------

  Dipole Moment: [D]
     X:    -1.7538      Y:    -1.4839      Z:    -2.9892     Total:     3.7700

*** Psi4 exiting successfully. Buy a developer a beer!
