                               Psi4 1.4a3.dev225

  ==> Input File <==

--------------------------------------------------------------------------
#psi4
#
memory 32 gb

molecule  {
0 1
  O       -0.4983720     2.1660820    -0.3008080
  O        1.7439460     0.8852250     1.1595980
  N        2.0846670    -0.6693810    -0.4855240
  C       -0.1747200    -0.1425440     0.1301780
  C       -1.1360801     0.9642894    -0.1415443
  C       -0.6950920    -1.4344860     0.2644570
  C        1.2926210     0.1057900     0.3196980
  C       -2.4223480     0.6871570    -0.2466200
  C       -2.0666220    -1.6719060     0.1573390
  C       -2.9283400    -0.6051620    -0.0964900
  C        3.5272930    -0.5029810    -0.4769650
  H       -0.0118380    -2.2529100     0.4809780
  H       -3.0973410     1.5164000    -0.4561860
  H       -2.4584240    -2.6782030     0.2778980
  H       -3.9991860    -0.7724420    -0.1829770
  H        1.6477640    -1.1074140    -1.2860730
  H        3.8478870     0.3529870    -1.0808760
  H        3.9959260    -1.4118430    -0.8588240
  H        3.8425270    -0.3337350     0.5522170
  H       -1.2204240     2.8028430    -0.4486720
units angstrom
no_reorient  #important for SAPT in psi4, default
symmetry c1  #important for SAPT in psi4, default
}

set PROPERTIES_ORIGIN ["COM"]
properties('MP2/aug-cc-pvtz', properties = ['dipole'])
--------------------------------------------------------------------------

    Molecular point group: c1
  Charge       = 0
  Multiplicity = 1
  Basis Set: AUG-CC-PVTZ
    Blend: AUG-CC-PVTZ
  Basis Set: (AUG-CC-PVTZ AUX)
    Blend: AUG-CC-PVTZ-JKFIT

    Orbital Energies [Eh]
    ---------------------

    Doubly Occupied:

       1A    -20.601154     2A    -20.512448     3A    -15.583590
       4A    -11.350329     5A    -11.318684     6A    -11.257466
       7A    -11.257369     8A    -11.255724     9A    -11.255580
      10A    -11.240901    11A    -11.237342    12A     -1.413421
      13A     -1.366500    14A     -1.224788    15A     -1.160108
      16A     -1.047189    17A     -1.020618    18A     -0.948625
      19A     -0.867347    20A     -0.839841    21A     -0.784145
      22A     -0.736936    23A     -0.727685    24A     -0.676993
      25A     -0.640591    26A     -0.631050    27A     -0.618981
      28A     -0.615903    29A     -0.598099    30A     -0.587353
      31A     -0.576685    32A     -0.544866    33A     -0.540713
      34A     -0.524080    35A     -0.500634    36A     -0.490273
      37A     -0.421749    38A     -0.388342    39A     -0.359624
      40A     -0.323155

  @DF-RHF Final Energy:  -512.53962823712504

   => Energetics <=

    Nuclear Repulsion Energy =            586.4281946877249538
    One-Electron Energy =               -1861.8418811557535264
    Two-Electron Energy =                 762.8740582309035290
    Total Energy =                       -512.5396282371250436
  Basis Set: (AUG-CC-PVTZ AUX)
    Blend: AUG-CC-PVTZ-RI
    Molecular point group: c1

    Geometry (in Angstrom), charge = 0, multiplicity = 1:

       Center              X                  Y                   Z               Mass
    ------------   -----------------  -----------------  -----------------  -----------------
         O           -0.474818695089     2.137490149157    -0.319555546966    15.994914619570
         O            1.767499304911     0.856633149157     1.140850453034    15.994914619570
         N            2.108220304911    -0.697972850843    -0.504271546966    14.003074004430
         C           -0.151166695089    -0.171135850843     0.111430453034    12.000000000000
         C           -1.112526795089     0.935697549157    -0.160291846966    12.000000000000
         C           -0.671538695089    -1.463077850843     0.245709453034    12.000000000000
         C            1.316174304911     0.077198149157     0.300950453034    12.000000000000
         C           -2.398794695089     0.658565149157    -0.265367546966    12.000000000000
         C           -2.043068695089    -1.700497850843     0.138591453034    12.000000000000
         C           -2.904786695089    -0.633753850843    -0.115237546966    12.000000000000
         C            3.550846304911    -0.531572850843    -0.495712546966    12.000000000000
         H            0.011715304911    -2.281501850843     0.462230453034     1.007825032230
         H           -3.073787695089     1.487808149157    -0.474933546966     1.007825032230
         H           -2.434870695089    -2.706794850843     0.259150453034     1.007825032230
         H           -3.975632695089    -0.801033850843    -0.201724546966     1.007825032230
         H            1.671317304911    -1.136005850843    -1.304820546966     1.007825032230
         H            3.871440304911     0.324395149157    -1.099623546966     1.007825032230
         H            4.019479304911    -1.440434850843    -0.877571546966     1.007825032230
         H            3.866080304911    -0.362326850843     0.533469453034     1.007825032230
         H           -1.196870695089     2.774251149157    -0.467419546966     1.007825032230

  Basis Set: AUG-CC-PVTZ
    Blend: AUG-CC-PVTZ
  Basis Set: (AUG-CC-PVTZ AUX)
    Blend: AUG-CC-PVTZ-JKFIT
	 Reference Energy          =    -512.5396282371250436 [Eh]
	 Singles Energy            =      -0.0000000000000000 [Eh]
	 Same-Spin Energy          =      -0.5369810608316320 [Eh]
	 Opposite-Spin Energy      =      -1.6470680397474331 [Eh]
	 Correlation Energy        =      -2.1840491005790650 [Eh]
	 Total Energy              =    -514.7236773377040890 [Eh]

	 ================> DF-SCS-MP2 Energies <==================
	-----------------------------------------------------------
	 SCS Same-Spin Scale       =       0.3333333333333333 [-]
	 SCS Opposite-Spin Scale   =       1.2000000000000000 [-]
	 SCS Same-Spin Energy      =      -0.1789936869438773 [Eh]
	 SCS Opposite-Spin Energy  =      -1.9764816476969196 [Eh]
	 SCS Correlation Energy    =      -2.1554753346407969 [Eh]
	 SCS Total Energy          =    -514.6951035717657987 [Eh]
	-----------------------------------------------------------

  Dipole Moment: [D]
     X:    -1.7197      Y:    -1.5466      Z:    -2.9842     Total:     3.7756

*** Psi4 exiting successfully. Buy a developer a beer!
