                               Psi4 1.4a3.dev225

  ==> Input File <==

--------------------------------------------------------------------------
#psi4
#
memory 32 gb

molecule  {
0 1
  O       -0.4983720     2.1660820    -0.3008080
  O        1.7439460     0.8852250     1.1595980
  N        2.0846670    -0.6693810    -0.4855240
  C       -0.1747200    -0.1425440     0.1301780
  C       -1.0501490     0.9240530    -0.1297870
  C       -0.6950920    -1.4344860     0.2644570
  C        1.2926210     0.1057900     0.3196980
  C       -2.4223480     0.6871570    -0.2466200
  C       -2.0666220    -1.6719060     0.1573390
  C       -2.9283400    -0.6051620    -0.0964900
  C        3.5272930    -0.5029810    -0.4769650
  H       -0.0118380    -2.2529100     0.4809780
  H       -3.0973410     1.5164000    -0.4561860
  H       -2.4584240    -2.6782030     0.2778980
  H       -3.9006973    -0.7570568    -0.1750225
  H        1.6477640    -1.1074140    -1.2860730
  H        3.8478870     0.3529870    -1.0808760
  H        3.9959260    -1.4118430    -0.8588240
  H        3.8425270    -0.3337350     0.5522170
  H       -1.2204240     2.8028430    -0.4486720
units angstrom
no_reorient  #important for SAPT in psi4, default
symmetry c1  #important for SAPT in psi4, default
}

set PROPERTIES_ORIGIN ["COM"]
properties('MP2/aug-cc-pvtz', properties = ['dipole'])
--------------------------------------------------------------------------

    Molecular point group: c1
  Charge       = 0
  Multiplicity = 1
  Basis Set: AUG-CC-PVTZ
    Blend: AUG-CC-PVTZ
  Basis Set: (AUG-CC-PVTZ AUX)
    Blend: AUG-CC-PVTZ-JKFIT

    Orbital Energies [Eh]
    ---------------------

    Doubly Occupied:

       1A    -20.597334     2A    -20.512957     3A    -15.583759
       4A    -11.349869     5A    -11.319853     6A    -11.256775
       7A    -11.255865     8A    -11.249276     9A    -11.246166
      10A    -11.244603    11A    -11.239652    12A     -1.409580
      13A     -1.366877    14A     -1.225183    15A     -1.160393
      16A     -1.049522    17A     -1.017274    18A     -0.951398
      19A     -0.870232    20A     -0.845568    21A     -0.783971
      22A     -0.744227    23A     -0.724673    24A     -0.682636
      25A     -0.650900    26A     -0.636140    27A     -0.621268
      28A     -0.612140    29A     -0.595414    30A     -0.589082
      31A     -0.575192    32A     -0.545108    33A     -0.536597
      34A     -0.526180    35A     -0.511421    36A     -0.489322
      37A     -0.421395    38A     -0.388681    39A     -0.353995
      40A     -0.325710

  @DF-RHF Final Energy:  -512.54624380809946

   => Energetics <=

    Nuclear Repulsion Energy =            587.7215680705472778
    One-Electron Energy =               -1864.4032490489971678
    Two-Electron Energy =                 764.1354371703505421
    Total Energy =                       -512.5462438080994616
  Basis Set: (AUG-CC-PVTZ AUX)
    Blend: AUG-CC-PVTZ-RI
    Molecular point group: c1

    Geometry (in Angstrom), charge = 0, multiplicity = 1:

       Center              X                  Y                   Z               Mass
    ------------   -----------------  -----------------  -----------------  -----------------
         O           -0.482301865149     2.140583760392    -0.320542578999    15.994914619570
         O            1.760016134851     0.859726760392     1.139863421001    15.994914619570
         N            2.100737134851    -0.694879239608    -0.505258578999    14.003074004430
         C           -0.158649865149    -0.168042239608     0.110443421001    12.000000000000
         C           -1.034078865149     0.898554760392    -0.149521578999    12.000000000000
         C           -0.679021865149    -1.459984239608     0.244722421001    12.000000000000
         C            1.308691134851     0.080291760392     0.299963421001    12.000000000000
         C           -2.406277865149     0.661658760392    -0.266354578999    12.000000000000
         C           -2.050551865149    -1.697404239608     0.137604421001    12.000000000000
         C           -2.912269865149    -0.630660239608    -0.116224578999    12.000000000000
         C            3.543363134851    -0.528479239608    -0.496699578999    12.000000000000
         H            0.004232134851    -2.278408239608     0.461243421001     1.007825032230
         H           -3.081270865149     1.490901760392    -0.475920578999     1.007825032230
         H           -2.442353865149    -2.703701239608     0.258163421001     1.007825032230
         H           -3.884627165149    -0.782555039608    -0.194757078999     1.007825032230
         H            1.663834134851    -1.132912239608    -1.305807578999     1.007825032230
         H            3.863957134851     0.327488760392    -1.100610578999     1.007825032230
         H            4.011996134851    -1.437341239608    -0.878558578999     1.007825032230
         H            3.858597134851    -0.359233239608     0.532482421001     1.007825032230
         H           -1.204353865149     2.777344760392    -0.468406578999     1.007825032230

  Basis Set: AUG-CC-PVTZ
    Blend: AUG-CC-PVTZ
  Basis Set: (AUG-CC-PVTZ AUX)
    Blend: AUG-CC-PVTZ-JKFIT
	 Reference Energy          =    -512.5462438080994616 [Eh]
	 Singles Energy            =      -0.0000000000000000 [Eh]
	 Same-Spin Energy          =      -0.5369122091754432 [Eh]
	 Opposite-Spin Energy      =      -1.6455607141045245 [Eh]
	 Correlation Energy        =      -2.1824729232799678 [Eh]
	 Total Energy              =    -514.7287167313794498 [Eh]

	 ================> DF-SCS-MP2 Energies <==================
	-----------------------------------------------------------
	 SCS Same-Spin Scale       =       0.3333333333333333 [-]
	 SCS Opposite-Spin Scale   =       1.2000000000000000 [-]
	 SCS Same-Spin Energy      =      -0.1789707363918144 [Eh]
	 SCS Opposite-Spin Energy  =      -1.9746728569254293 [Eh]
	 SCS Correlation Energy    =      -2.1536435933172435 [Eh]
	 SCS Total Energy          =    -514.6998874014167313 [Eh]
	-----------------------------------------------------------

  Dipole Moment: [D]
     X:    -1.7367      Y:    -1.5858      Z:    -2.9758     Total:     3.7930

*** Psi4 exiting successfully. Buy a developer a beer!
