                               Psi4 1.4a3.dev225

  ==> Input File <==

--------------------------------------------------------------------------
#psi4
#
memory 32 gb

molecule  {
0 1
  O       -0.4983720     2.1660820    -0.3008080
  O        1.7439460     0.8852250     1.1595980
  N        2.0846670    -0.6693810    -0.4855240
  C       -0.1747200    -0.1425440     0.1301780
  C       -1.0376797     0.9088607    -0.1260841
  C       -0.6950920    -1.4344860     0.2644570
  C        1.2926210     0.1057900     0.3196980
  C       -2.4223480     0.6871570    -0.2466200
  C       -2.0666220    -1.6719060     0.1573390
  C       -2.9283400    -0.6051620    -0.0964900
  C        3.5272930    -0.5029810    -0.4769650
  H       -0.0118380    -2.2529100     0.4809780
  H       -3.0973410     1.5164000    -0.4561860
  H       -2.4584240    -2.6782030     0.2778980
  H       -3.9991860    -0.7724420    -0.1829770
  H        1.6477640    -1.1074140    -1.2860730
  H        3.8478870     0.3529870    -1.0808760
  H        3.9959260    -1.4118430    -0.8588240
  H        3.8425270    -0.3337350     0.5522170
  H       -1.2204240     2.8028430    -0.4486720
units angstrom
no_reorient  #important for SAPT in psi4, default
symmetry c1  #important for SAPT in psi4, default
}

set PROPERTIES_ORIGIN ["COM"]
properties('MP2/aug-cc-pvtz', properties = ['dipole'])
--------------------------------------------------------------------------

    Molecular point group: c1
  Charge       = 0
  Multiplicity = 1
  Basis Set: AUG-CC-PVTZ
    Blend: AUG-CC-PVTZ
  Basis Set: (AUG-CC-PVTZ AUX)
    Blend: AUG-CC-PVTZ-JKFIT

    Orbital Energies [Eh]
    ---------------------

    Doubly Occupied:

       1A    -20.595204     2A    -20.513408     3A    -15.584182
       4A    -11.350354     5A    -11.319486     6A    -11.257800
       7A    -11.256795     8A    -11.256142     9A    -11.248200
      10A    -11.248009    11A    -11.240975    12A     -1.404427
      13A     -1.367166    14A     -1.225639    15A     -1.161510
      16A     -1.048420    17A     -1.017338    18A     -0.950853
      19A     -0.865389    20A     -0.844000    21A     -0.783296
      22A     -0.742408    23A     -0.722001    24A     -0.674199
      25A     -0.650521    26A     -0.636653    27A     -0.619382
      28A     -0.612170    29A     -0.593259    30A     -0.585913
      31A     -0.574238    32A     -0.545403    33A     -0.535083
      34A     -0.521855    35A     -0.513113    36A     -0.489959
      37A     -0.421666    38A     -0.389042    39A     -0.354711
      40A     -0.327598

  @DF-RHF Final Energy:  -512.55166125894573

   => Energetics <=

    Nuclear Repulsion Energy =            587.3376492032685974
    One-Electron Energy =               -1863.6830847173664552
    Two-Electron Energy =                 763.7937742551522433
    Total Energy =                       -512.5516612589457282
  Basis Set: (AUG-CC-PVTZ AUX)
    Blend: AUG-CC-PVTZ-RI
    Molecular point group: c1

    Geometry (in Angstrom), charge = 0, multiplicity = 1:

       Center              X                  Y                   Z               Mass
    ------------   -----------------  -----------------  -----------------  -----------------
         O           -0.482635316180     2.141893232331    -0.320783657070    15.994914619570
         O            1.759682683820     0.861036232331     1.139622342930    15.994914619570
         N            2.100403683820    -0.693569767669    -0.505499657070    14.003074004430
         C           -0.158983316180    -0.166732767669     0.110202342930    12.000000000000
         C           -1.021943016180     0.884671932331    -0.146059757070    12.000000000000
         C           -0.679355316180    -1.458674767669     0.244481342930    12.000000000000
         C            1.308357683820     0.081601232331     0.299722342930    12.000000000000
         C           -2.406611316180     0.662968232331    -0.266595657070    12.000000000000
         C           -2.050885316180    -1.696094767669     0.137363342930    12.000000000000
         C           -2.912603316180    -0.629350767669    -0.116465657070    12.000000000000
         C            3.543029683820    -0.527169767669    -0.496940657070    12.000000000000
         H            0.003898683820    -2.277098767669     0.461002342930     1.007825032230
         H           -3.081604316180     1.492211232331    -0.476161657070     1.007825032230
         H           -2.442687316180    -2.702391767669     0.257922342930     1.007825032230
         H           -3.983449316180    -0.796630767669    -0.202952657070     1.007825032230
         H            1.663500683820    -1.131602767669    -1.306048657070     1.007825032230
         H            3.863623683820     0.328798232331    -1.100851657070     1.007825032230
         H            4.011662683820    -1.436031767669    -0.878799657070     1.007825032230
         H            3.858263683820    -0.357923767669     0.532241342930     1.007825032230
         H           -1.204687316180     2.778654232331    -0.468647657070     1.007825032230

  Basis Set: AUG-CC-PVTZ
    Blend: AUG-CC-PVTZ
  Basis Set: (AUG-CC-PVTZ AUX)
    Blend: AUG-CC-PVTZ-JKFIT
	 Reference Energy          =    -512.5516612589457282 [Eh]
	 Singles Energy            =      -0.0000000000000000 [Eh]
	 Same-Spin Energy          =      -0.5369957637377526 [Eh]
	 Opposite-Spin Energy      =      -1.6460702403932230 [Eh]
	 Correlation Energy        =      -2.1830660041309757 [Eh]
	 Total Energy              =    -514.7347272630767065 [Eh]

	 ================> DF-SCS-MP2 Energies <==================
	-----------------------------------------------------------
	 SCS Same-Spin Scale       =       0.3333333333333333 [-]
	 SCS Opposite-Spin Scale   =       1.2000000000000000 [-]
	 SCS Same-Spin Energy      =      -0.1789985879125842 [Eh]
	 SCS Opposite-Spin Energy  =      -1.9752842884718675 [Eh]
	 SCS Correlation Energy    =      -2.1542828763844519 [Eh]
	 SCS Total Energy          =    -514.7059441353301281 [Eh]
	-----------------------------------------------------------

  Dipole Moment: [D]
     X:    -1.7227      Y:    -1.6452      Z:    -2.9632     Total:     3.8019

*** Psi4 exiting successfully. Buy a developer a beer!
