                               Psi4 1.4a3.dev225

  ==> Input File <==

--------------------------------------------------------------------------
#psi4
#
memory 32 gb

molecule  {
0 1
  O       -0.4983720     2.1660820    -0.3008080
  O        1.7439460     0.8852250     1.1595980
  N        2.0846670    -0.6693810    -0.4855240
  C       -0.1747200    -0.1425440     0.1301780
  C       -1.0501490     0.9240530    -0.1297870
  C       -0.6950920    -1.4344860     0.2644570
  C        1.2730594     0.1024794     0.3171714
  C       -2.4223480     0.6871570    -0.2466200
  C       -2.0666220    -1.6719060     0.1573390
  C       -2.9283400    -0.6051620    -0.0964900
  C        3.5272930    -0.5029810    -0.4769650
  H       -0.0118380    -2.2529100     0.4809780
  H       -3.0973410     1.5164000    -0.4561860
  H       -2.4584240    -2.6782030     0.2778980
  H       -3.9991860    -0.7724420    -0.1829770
  H        1.6477640    -1.1074140    -1.2860730
  H        3.8478870     0.3529870    -1.0808760
  H        3.9959260    -1.4118430    -0.8588240
  H        3.8425270    -0.3337350     0.5522170
  H       -1.2204240     2.8028430    -0.4486720
units angstrom
no_reorient  #important for SAPT in psi4, default
symmetry c1  #important for SAPT in psi4, default
}

set PROPERTIES_ORIGIN ["COM"]
properties('MP2/aug-cc-pvtz', properties = ['dipole'])
--------------------------------------------------------------------------

    Molecular point group: c1
  Charge       = 0
  Multiplicity = 1
  Basis Set: AUG-CC-PVTZ
    Blend: AUG-CC-PVTZ
  Basis Set: (AUG-CC-PVTZ AUX)
    Blend: AUG-CC-PVTZ-JKFIT

    Orbital Energies [Eh]
    ---------------------

    Doubly Occupied:

       1A    -20.598666     2A    -20.511895     3A    -15.583176
       4A    -11.350572     5A    -11.322010     6A    -11.258905
       7A    -11.258166     8A    -11.255349     9A    -11.249940
      10A    -11.247562    11A    -11.241422    12A     -1.410856
      13A     -1.360098    14A     -1.221142    15A     -1.161616
      16A     -1.049825    17A     -1.019036    18A     -0.949521
      19A     -0.867721    20A     -0.846376    21A     -0.781184
      22A     -0.743003    23A     -0.724401    24A     -0.676313
      25A     -0.648885    26A     -0.634416    27A     -0.618787
      28A     -0.611978    29A     -0.596062    30A     -0.586845
      31A     -0.576081    32A     -0.543290    33A     -0.535950
      34A     -0.522015    35A     -0.510196    36A     -0.489867
      37A     -0.421737    38A     -0.386403    39A     -0.355553
      40A     -0.327305

  @DF-RHF Final Energy:  -512.55018607603324

   => Energetics <=

    Nuclear Repulsion Energy =            587.2118873644054702
    One-Electron Energy =               -1863.4159039614623907
    Two-Electron Energy =                 763.6538305210237922
    Total Energy =                       -512.5501860760332420
  Basis Set: (AUG-CC-PVTZ AUX)
    Blend: AUG-CC-PVTZ-RI
    Molecular point group: c1

    Geometry (in Angstrom), charge = 0, multiplicity = 1:

       Center              X                  Y                   Z               Mass
    ------------   -----------------  -----------------  -----------------  -----------------
         O           -0.480090881315     2.140949387115    -0.320288805005    15.994914619570
         O            1.762227118685     0.860092387115     1.140117194995    15.994914619570
         N            2.102948118685    -0.694513612885    -0.505004805005    14.003074004430
         C           -0.156438881315    -0.167676612885     0.110697194995    12.000000000000
         C           -1.031867881315     0.898920387115    -0.149267805005    12.000000000000
         C           -0.676810881315    -1.459618612885     0.244976194995    12.000000000000
         C            1.291340518685     0.077346787115     0.297690594995    12.000000000000
         C           -2.404066881315     0.662024387115    -0.266100805005    12.000000000000
         C           -2.048340881315    -1.697038612885     0.137858194995    12.000000000000
         C           -2.910058881315    -0.630294612885    -0.115970805005    12.000000000000
         C            3.545574118685    -0.528113612885    -0.496445805005    12.000000000000
         H            0.006443118685    -2.278042612885     0.461497194995     1.007825032230
         H           -3.079059881315     1.491267387115    -0.475666805005     1.007825032230
         H           -2.440142881315    -2.703335612885     0.258417194995     1.007825032230
         H           -3.980904881315    -0.797574612885    -0.202457805005     1.007825032230
         H            1.666045118685    -1.132546612885    -1.305553805005     1.007825032230
         H            3.866168118685     0.327854387115    -1.100356805005     1.007825032230
         H            4.014207118685    -1.436975612885    -0.878304805005     1.007825032230
         H            3.860808118685    -0.358867612885     0.532736194995     1.007825032230
         H           -1.202142881315     2.777710387115    -0.468152805005     1.007825032230

  Basis Set: AUG-CC-PVTZ
    Blend: AUG-CC-PVTZ
  Basis Set: (AUG-CC-PVTZ AUX)
    Blend: AUG-CC-PVTZ-JKFIT
	 Reference Energy          =    -512.5501860760332420 [Eh]
	 Singles Energy            =      -0.0000000000000000 [Eh]
	 Same-Spin Energy          =      -0.5374491614255452 [Eh]
	 Opposite-Spin Energy      =      -1.6468806112572358 [Eh]
	 Correlation Energy        =      -2.1843297726827808 [Eh]
	 Total Energy              =    -514.7345158487160006 [Eh]

	 ================> DF-SCS-MP2 Energies <==================
	-----------------------------------------------------------
	 SCS Same-Spin Scale       =       0.3333333333333333 [-]
	 SCS Opposite-Spin Scale   =       1.2000000000000000 [-]
	 SCS Same-Spin Energy      =      -0.1791497204751817 [Eh]
	 SCS Opposite-Spin Energy  =      -1.9762567335086829 [Eh]
	 SCS Correlation Energy    =      -2.1554064539838644 [Eh]
	 SCS Total Energy          =    -514.7055925300171566 [Eh]
	-----------------------------------------------------------

  Dipole Moment: [D]
     X:    -1.8432      Y:    -1.5918      Z:    -2.9851     Total:     3.8526

*** Psi4 exiting successfully. Buy a developer a beer!
