                               Psi4 1.4a3.dev225

  ==> Input File <==

--------------------------------------------------------------------------
#psi4
#
memory 32 gb

molecule  {
0 1
  O       -0.4983720     2.1660820    -0.3008080
  O        1.7439460     0.8852250     1.1595980
  N        2.0846670    -0.6693810    -0.4855240
  C       -0.1747200    -0.1425440     0.1301780
  C       -1.0501490     0.9240530    -0.1297870
  C       -0.6950920    -1.4344860     0.2644570
  C        1.2926210     0.1057900     0.3196980
  C       -2.4223480     0.6871570    -0.2466200
  C       -2.0666220    -1.6719060     0.1573390
  C       -2.9283400    -0.6051620    -0.0964900
  C        3.5272930    -0.5029810    -0.4769650
  H       -0.0118380    -2.2529100     0.4809780
  H       -3.0973410     1.5164000    -0.4561860
  H       -2.4584240    -2.6782030     0.2778980
  H       -3.9991860    -0.7724420    -0.1829770
  H        1.6693555    -1.0857667    -1.2465104
  H        3.8478870     0.3529870    -1.0808760
  H        3.9959260    -1.4118430    -0.8588240
  H        3.8425270    -0.3337350     0.5522170
  H       -1.2204240     2.8028430    -0.4486720
units angstrom
no_reorient  #important for SAPT in psi4, default
symmetry c1  #important for SAPT in psi4, default
}

set PROPERTIES_ORIGIN ["COM"]
properties('MP2/aug-cc-pvtz', properties = ['dipole'])
--------------------------------------------------------------------------

    Molecular point group: c1
  Charge       = 0
  Multiplicity = 1
  Basis Set: AUG-CC-PVTZ
    Blend: AUG-CC-PVTZ
  Basis Set: (AUG-CC-PVTZ AUX)
    Blend: AUG-CC-PVTZ-JKFIT

    Orbital Energies [Eh]
    ---------------------

    Doubly Occupied:

       1A    -20.597872     2A    -20.513268     3A    -15.579037
       4A    -11.350162     5A    -11.320593     6A    -11.257567
       7A    -11.256911     8A    -11.256037     9A    -11.249682
      10A    -11.246658    11A    -11.240506    12A     -1.410094
      13A     -1.367617    14A     -1.231639    15A     -1.160285
      16A     -1.046941    17A     -1.017819    18A     -0.951433
      19A     -0.865969    20A     -0.845753    21A     -0.792163
      22A     -0.742962    23A     -0.725470    24A     -0.675428
      25A     -0.649175    26A     -0.636471    27A     -0.619671
      28A     -0.612792    29A     -0.595887    30A     -0.586854
      31A     -0.576080    32A     -0.547342    33A     -0.536052
      34A     -0.522757    35A     -0.511337    36A     -0.489942
      37A     -0.421793    38A     -0.389697    39A     -0.354566
      40A     -0.326277

  @DF-RHF Final Energy:  -512.55173211883368

   => Energetics <=

    Nuclear Repulsion Energy =            587.4498621047864617
    One-Electron Energy =               -1863.8460693371459911
    Two-Electron Energy =                 763.8444751135258457
    Total Energy =                       -512.5517321188336837
  Basis Set: (AUG-CC-PVTZ AUX)
    Blend: AUG-CC-PVTZ-RI
    Molecular point group: c1

    Geometry (in Angstrom), charge = 0, multiplicity = 1:

       Center              X                  Y                   Z               Mass
    ------------   -----------------  -----------------  -----------------  -----------------
         O           -0.481788842406     2.140541982542    -0.320753453701    15.994914619570
         O            1.760529157594     0.859684982542     1.139652546299    15.994914619570
         N            2.101250157594    -0.694921017458    -0.505469453701    14.003074004430
         C           -0.158136842406    -0.168084017458     0.110232546299    12.000000000000
         C           -1.033565842406     0.898512982542    -0.149732453701    12.000000000000
         C           -0.678508842406    -1.460026017458     0.244511546299    12.000000000000
         C            1.309204157594     0.080249982542     0.299752546299    12.000000000000
         C           -2.405764842406     0.661616982542    -0.266565453701    12.000000000000
         C           -2.050038842406    -1.697446017458     0.137393546299    12.000000000000
         C           -2.911756842406    -0.630702017458    -0.116435453701    12.000000000000
         C            3.543876157594    -0.528521017458    -0.496910453701    12.000000000000
         H            0.004745157594    -2.278450017458     0.461032546299     1.007825032230
         H           -3.080757842406     1.490859982542    -0.476131453701     1.007825032230
         H           -2.441840842406    -2.703743017458     0.257952546299     1.007825032230
         H           -3.982602842406    -0.797982017458    -0.202922453701     1.007825032230
         H            1.685938657594    -1.111306717458    -1.266455853701     1.007825032230
         H            3.864470157594     0.327446982542    -1.100821453701     1.007825032230
         H            4.012509157594    -1.437383017458    -0.878769453701     1.007825032230
         H            3.859110157594    -0.359275017458     0.532271546299     1.007825032230
         H           -1.203840842406     2.777302982542    -0.468617453701     1.007825032230

  Basis Set: AUG-CC-PVTZ
    Blend: AUG-CC-PVTZ
  Basis Set: (AUG-CC-PVTZ AUX)
    Blend: AUG-CC-PVTZ-JKFIT
	 Reference Energy          =    -512.5517321188336837 [Eh]
	 Singles Energy            =      -0.0000000000000000 [Eh]
	 Same-Spin Energy          =      -0.5366684356699101 [Eh]
	 Opposite-Spin Energy      =      -1.6452142285340292 [Eh]
	 Correlation Energy        =      -2.1818826642039393 [Eh]
	 Total Energy              =    -514.7336147830376376 [Eh]

	 ================> DF-SCS-MP2 Energies <==================
	-----------------------------------------------------------
	 SCS Same-Spin Scale       =       0.3333333333333333 [-]
	 SCS Opposite-Spin Scale   =       1.2000000000000000 [-]
	 SCS Same-Spin Energy      =      -0.1788894785566367 [Eh]
	 SCS Opposite-Spin Energy  =      -1.9742570742408350 [Eh]
	 SCS Correlation Energy    =      -2.1531465527974718 [Eh]
	 SCS Total Energy          =    -514.7048786716311497 [Eh]
	-----------------------------------------------------------

  Dipole Moment: [D]
     X:    -1.7111      Y:    -1.5620      Z:    -2.9406     Total:     3.7437

*** Psi4 exiting successfully. Buy a developer a beer!
