                               Psi4 1.4a3.dev225

  ==> Input File <==

--------------------------------------------------------------------------
#psi4
#
memory 32 gb

molecule  {
0 1
  O       -0.4983720     2.1660820    -0.3008080
  O        1.7439460     0.8852250     1.1595980
  N        2.0846670    -0.6693810    -0.4855240
  C       -0.1747200    -0.1425440     0.1301780
  C       -1.0501490     0.9240530    -0.1297870
  C       -0.6950920    -1.4344860     0.2644570
  C        1.2926210     0.1057900     0.3196980
  C       -2.4714466     0.6786806    -0.2508004
  C       -2.0666220    -1.6719060     0.1573390
  C       -2.9283400    -0.6051620    -0.0964900
  C        3.5272930    -0.5029810    -0.4769650
  H       -0.0118380    -2.2529100     0.4809780
  H       -3.0973410     1.5164000    -0.4561860
  H       -2.4584240    -2.6782030     0.2778980
  H       -3.9991860    -0.7724420    -0.1829770
  H        1.6477640    -1.1074140    -1.2860730
  H        3.8478870     0.3529870    -1.0808760
  H        3.9959260    -1.4118430    -0.8588240
  H        3.8425270    -0.3337350     0.5522170
  H       -1.2204240     2.8028430    -0.4486720
units angstrom
no_reorient  #important for SAPT in psi4, default
symmetry c1  #important for SAPT in psi4, default
}

set PROPERTIES_ORIGIN ["COM"]
properties('MP2/aug-cc-pvtz', properties = ['dipole'])
--------------------------------------------------------------------------

    Molecular point group: c1
  Charge       = 0
  Multiplicity = 1
  Basis Set: AUG-CC-PVTZ
    Blend: AUG-CC-PVTZ
  Basis Set: (AUG-CC-PVTZ AUX)
    Blend: AUG-CC-PVTZ-JKFIT

    Orbital Energies [Eh]
    ---------------------

    Doubly Occupied:

       1A    -20.600547     2A    -20.512900     3A    -15.583731
       4A    -11.349765     5A    -11.326477     6A    -11.257452
       7A    -11.255904     8A    -11.254014     9A    -11.248032
      10A    -11.248011    11A    -11.239372    12A     -1.411320
      13A     -1.366868    14A     -1.225168    15A     -1.158271
      16A     -1.049676    17A     -1.012634    18A     -0.950268
      19A     -0.863123    20A     -0.845352    21A     -0.782609
      22A     -0.743005    23A     -0.724188    24A     -0.673928
      25A     -0.650683    26A     -0.636526    27A     -0.620467
      28A     -0.614003    29A     -0.595189    30A     -0.585644
      31A     -0.576175    32A     -0.545224    33A     -0.539243
      34A     -0.519640    35A     -0.509580    36A     -0.490117
      37A     -0.420890    38A     -0.388726    39A     -0.357678
      40A     -0.321207

  @DF-RHF Final Energy:  -512.54895459832164

   => Energetics <=

    Nuclear Repulsion Energy =            586.4156550895506825
    One-Electron Energy =               -1861.8220042000214107
    Two-Electron Energy =                 762.8573945121490851
    Total Energy =                       -512.5489545983216431
  Basis Set: (AUG-CC-PVTZ AUX)
    Blend: AUG-CC-PVTZ-RI
    Molecular point group: c1

    Geometry (in Angstrom), charge = 0, multiplicity = 1:

       Center              X                  Y                   Z               Mass
    ------------   -----------------  -----------------  -----------------  -----------------
         O           -0.477744554093     2.141359742166    -0.320157432287    15.994914619570
         O            1.764573445907     0.860502742166     1.140248567713    15.994914619570
         N            2.105294445907    -0.694103257834    -0.504873432287    14.003074004430
         C           -0.154092554093    -0.167266257834     0.110828567713    12.000000000000
         C           -1.029521554093     0.899330742166    -0.149136432287    12.000000000000
         C           -0.674464554093    -1.459208257834     0.245107567713    12.000000000000
         C            1.313248445907     0.081067742166     0.300348567713    12.000000000000
         C           -2.450819154093     0.653958342166    -0.270149832287    12.000000000000
         C           -2.045994554093    -1.696628257834     0.137989567713    12.000000000000
         C           -2.907712554093    -0.629884257834    -0.115839432287    12.000000000000
         C            3.547920445907    -0.527703257834    -0.496314432287    12.000000000000
         H            0.008789445907    -2.277632257834     0.461628567713     1.007825032230
         H           -3.076713554093     1.491677742166    -0.475535432287     1.007825032230
         H           -2.437796554093    -2.702925257834     0.258548567713     1.007825032230
         H           -3.978558554093    -0.797164257834    -0.202326432287     1.007825032230
         H            1.668391445907    -1.132136257834    -1.305422432287     1.007825032230
         H            3.868514445907     0.328264742166    -1.100225432287     1.007825032230
         H            4.016553445907    -1.436565257834    -0.878173432287     1.007825032230
         H            3.863154445907    -0.358457257834     0.532867567713     1.007825032230
         H           -1.199796554093     2.778120742166    -0.468021432287     1.007825032230

  Basis Set: AUG-CC-PVTZ
    Blend: AUG-CC-PVTZ
  Basis Set: (AUG-CC-PVTZ AUX)
    Blend: AUG-CC-PVTZ-JKFIT
	 Reference Energy          =    -512.5489545983216431 [Eh]
	 Singles Energy            =      -0.0000000000000000 [Eh]
	 Same-Spin Energy          =      -0.5369489039824850 [Eh]
	 Opposite-Spin Energy      =      -1.6462113440530008 [Eh]
	 Correlation Energy        =      -2.1831602480354859 [Eh]
	 Total Energy              =    -514.7321148463571490 [Eh]

	 ================> DF-SCS-MP2 Energies <==================
	-----------------------------------------------------------
	 SCS Same-Spin Scale       =       0.3333333333333333 [-]
	 SCS Opposite-Spin Scale   =       1.2000000000000000 [-]
	 SCS Same-Spin Energy      =      -0.1789829679941616 [Eh]
	 SCS Opposite-Spin Energy  =      -1.9754536128636009 [Eh]
	 SCS Correlation Energy    =      -2.1544365808577624 [Eh]
	 SCS Total Energy          =    -514.7033911791794480 [Eh]
	-----------------------------------------------------------

  Dipole Moment: [D]
     X:    -1.6977      Y:    -1.5011      Z:    -2.9859     Total:     3.7485

*** Psi4 exiting successfully. Buy a developer a beer!
