                               Psi4 1.4a3.dev225

  ==> Input File <==

--------------------------------------------------------------------------
#psi4
#
memory 32 gb

molecule  {
0 1
  O       -0.4983720     2.1660820    -0.3008080
  O        1.7439460     0.8852250     1.1595980
  N        2.0846670    -0.6693810    -0.4855240
  C       -0.1747200    -0.1425440     0.1301780
  C       -1.0501490     0.9240530    -0.1297870
  C       -0.6950920    -1.4344860     0.2644570
  C        1.2926210     0.1057900     0.3196980
  C       -2.4223480     0.6871570    -0.2466200
  C       -2.0666220    -1.6719060     0.1573390
  C       -2.9283400    -0.6051620    -0.0964900
  C        3.5272930    -0.5029810    -0.4769650
  H       -0.1374472    -2.1024511     0.4411728
  H       -3.0973410     1.5164000    -0.4561860
  H       -2.4584240    -2.6782030     0.2778980
  H       -3.9991860    -0.7724420    -0.1829770
  H        1.6477640    -1.1074140    -1.2860730
  H        3.8478870     0.3529870    -1.0808760
  H        3.9959260    -1.4118430    -0.8588240
  H        3.8425270    -0.3337350     0.5522170
  H       -1.2204240     2.8028430    -0.4486720
units angstrom
no_reorient  #important for SAPT in psi4, default
symmetry c1  #important for SAPT in psi4, default
}

set PROPERTIES_ORIGIN ["COM"]
properties('MP2/aug-cc-pvtz', properties = ['dipole'])
--------------------------------------------------------------------------

    Molecular point group: c1
  Charge       = 0
  Multiplicity = 1
  Basis Set: AUG-CC-PVTZ
    Blend: AUG-CC-PVTZ
  Basis Set: (AUG-CC-PVTZ AUX)
    Blend: AUG-CC-PVTZ-JKFIT

    Orbital Energies [Eh]
    ---------------------

    Doubly Occupied:

       1A    -20.597157     2A    -20.513220     3A    -15.584556
       4A    -11.350130     5A    -11.319407     6A    -11.256234
       7A    -11.255822     8A    -11.248473     9A    -11.246317
      10A    -11.239516    11A    -11.233848    12A     -1.409405
      13A     -1.367204    14A     -1.225858    15A     -1.161776
      16A     -1.050697    17A     -1.022400    18A     -0.951145
      19A     -0.878717    20A     -0.845785    21A     -0.783318
      22A     -0.758928    23A     -0.725179    24A     -0.676981
      25A     -0.648333    26A     -0.638269    27A     -0.634456
      28A     -0.615275    29A     -0.595233    30A     -0.588300
      31A     -0.575041    32A     -0.545484    33A     -0.538969
      34A     -0.524481    35A     -0.513739    36A     -0.489162
      37A     -0.421543    38A     -0.389449    39A     -0.353990
      40A     -0.325432

  @DF-RHF Final Energy:  -512.51768186194386

   => Energetics <=

    Nuclear Repulsion Energy =            588.3057202839798947
    One-Electron Energy =               -1865.4483467669090260
    Two-Electron Energy =                 764.6249446209853886
    Total Energy =                       -512.5176818619438563
  Basis Set: (AUG-CC-PVTZ AUX)
    Blend: AUG-CC-PVTZ-RI
    Molecular point group: c1

    Geometry (in Angstrom), charge = 0, multiplicity = 1:

       Center              X                  Y                   Z               Mass
    ------------   -----------------  -----------------  -----------------  -----------------
         O           -0.480806787055     2.139682610806    -0.320223948252    15.994914619570
         O            1.761511212945     0.858825610806     1.140182051748    15.994914619570
         N            2.102232212945    -0.695780389194    -0.504939948252    14.003074004430
         C           -0.157154787055    -0.168943389194     0.110762051748    12.000000000000
         C           -1.032583787055     0.897653610806    -0.149202948252    12.000000000000
         C           -0.677526787055    -1.460885389194     0.245041051748    12.000000000000
         C            1.310186212945     0.079390610806     0.300282051748    12.000000000000
         C           -2.404782787055     0.660757610806    -0.266035948252    12.000000000000
         C           -2.049056787055    -1.698305389194     0.137923051748    12.000000000000
         C           -2.910774787055    -0.631561389194    -0.115905948252    12.000000000000
         C            3.544858212945    -0.529380389194    -0.496380948252    12.000000000000
         H           -0.119881987055    -2.128850489194     0.421756851748     1.007825032230
         H           -3.079775787055     1.490000610806    -0.475601948252     1.007825032230
         H           -2.440858787055    -2.704602389194     0.258482051748     1.007825032230
         H           -3.981620787055    -0.798841389194    -0.202392948252     1.007825032230
         H            1.665329212945    -1.133813389194    -1.305488948252     1.007825032230
         H            3.865452212945     0.326587610806    -1.100291948252     1.007825032230
         H            4.013491212945    -1.438242389194    -0.878239948252     1.007825032230
         H            3.860092212945    -0.360134389194     0.532801051748     1.007825032230
         H           -1.202858787055     2.776443610806    -0.468087948252     1.007825032230

  Basis Set: AUG-CC-PVTZ
    Blend: AUG-CC-PVTZ
  Basis Set: (AUG-CC-PVTZ AUX)
    Blend: AUG-CC-PVTZ-JKFIT
	 Reference Energy          =    -512.5176818619438563 [Eh]
	 Singles Energy            =      -0.0000000000000000 [Eh]
	 Same-Spin Energy          =      -0.5367591976598294 [Eh]
	 Opposite-Spin Energy      =      -1.6455441515030464 [Eh]
	 Correlation Energy        =      -2.1823033491628756 [Eh]
	 Total Energy              =    -514.6999852111067639 [Eh]

	 ================> DF-SCS-MP2 Energies <==================
	-----------------------------------------------------------
	 SCS Same-Spin Scale       =       0.3333333333333333 [-]
	 SCS Opposite-Spin Scale   =       1.2000000000000000 [-]
	 SCS Same-Spin Energy      =      -0.1789197325532765 [Eh]
	 SCS Opposite-Spin Energy  =      -1.9746529818036556 [Eh]
	 SCS Correlation Energy    =      -2.1535727143569319 [Eh]
	 SCS Total Energy          =    -514.6712545763008393 [Eh]
	-----------------------------------------------------------

  Dipole Moment: [D]
     X:    -1.6916      Y:    -1.5931      Z:    -2.9728     Total:     3.7732

*** Psi4 exiting successfully. Buy a developer a beer!
