                               Psi4 1.4a3.dev225

  ==> Input File <==

--------------------------------------------------------------------------
#psi4
#
memory 32 gb

molecule  {
0 1
  O       -0.4983720     2.1660820    -0.3008080
  O        1.7439460     0.8852250     1.1595980
  N        2.0846670    -0.6693810    -0.4855240
  C       -0.1747200    -0.1425440     0.1301780
  C       -1.0501490     0.9240530    -0.1297870
  C       -0.6950920    -1.4344860     0.2644570
  C        1.2926210     0.1057900     0.3196980
  C       -2.4223480     0.6871570    -0.2466200
  C       -2.0666220    -1.6719060     0.1573390
  C       -2.9283400    -0.6051620    -0.0964900
  C        3.4776232    -0.5087102    -0.4772597
  H       -0.0118380    -2.2529100     0.4809780
  H       -3.0973410     1.5164000    -0.4561860
  H       -2.4584240    -2.6782030     0.2778980
  H       -3.9991860    -0.7724420    -0.1829770
  H        1.6477640    -1.1074140    -1.2860730
  H        3.8478870     0.3529870    -1.0808760
  H        3.9959260    -1.4118430    -0.8588240
  H        3.8425270    -0.3337350     0.5522170
  H       -1.2204240     2.8028430    -0.4486720
units angstrom
no_reorient  #important for SAPT in psi4, default
symmetry c1  #important for SAPT in psi4, default
}

set PROPERTIES_ORIGIN ["COM"]
properties('MP2/aug-cc-pvtz', properties = ['dipole'])
--------------------------------------------------------------------------

    Molecular point group: c1
  Charge       = 0
  Multiplicity = 1
  Basis Set: AUG-CC-PVTZ
    Blend: AUG-CC-PVTZ
  Basis Set: (AUG-CC-PVTZ AUX)
    Blend: AUG-CC-PVTZ-JKFIT

    Orbital Energies [Eh]
    ---------------------

    Doubly Occupied:

       1A    -20.598450     2A    -20.515235     3A    -15.585144
       4A    -11.351668     5A    -11.321269     6A    -11.258293
       7A    -11.257538     8A    -11.255784     9A    -11.250458
      10A    -11.247296    11A    -11.241185    12A     -1.410713
      13A     -1.370025    14A     -1.236898    15A     -1.161262
      16A     -1.048535    17A     -1.018512    18A     -0.949042
      19A     -0.865441    20A     -0.844223    21A     -0.786992
      22A     -0.743535    23A     -0.725997    24A     -0.676177
      25A     -0.655902    26A     -0.639723    27A     -0.620249
      28A     -0.613753    29A     -0.596285    30A     -0.589293
      31A     -0.578236    32A     -0.535524    33A     -0.533249
      34A     -0.522103    35A     -0.509729    36A     -0.489904
      37A     -0.423606    38A     -0.387290    39A     -0.355299
      40A     -0.326938

  @DF-RHF Final Energy:  -512.54934071023365

   => Energetics <=

    Nuclear Repulsion Energy =            588.1271431096643028
    One-Electron Energy =               -1865.1594567619272311
    Two-Electron Energy =                 764.4829729420292779
    Total Energy =                       -512.5493407102336505
  Basis Set: (AUG-CC-PVTZ AUX)
    Blend: AUG-CC-PVTZ-RI
    Molecular point group: c1

    Geometry (in Angstrom), charge = 0, multiplicity = 1:

       Center              X                  Y                   Z               Mass
    ------------   -----------------  -----------------  -----------------  -----------------
         O           -0.477699179745     2.141141513161    -0.320466100185    15.994914619570
         O            1.764618820255     0.860284513161     1.139939899815    15.994914619570
         N            2.105339820255    -0.694321486839    -0.505182100185    14.003074004430
         C           -0.154047179745    -0.167484486839     0.110519899815    12.000000000000
         C           -1.029476179745     0.899112513161    -0.149445100185    12.000000000000
         C           -0.674419179745    -1.459426486839     0.244798899815    12.000000000000
         C            1.313293820255     0.080849513161     0.300039899815    12.000000000000
         C           -2.401675179745     0.662216513161    -0.266278100185    12.000000000000
         C           -2.045949179745    -1.696846486839     0.137680899815    12.000000000000
         C           -2.907667179745    -0.630102486839    -0.116148100185    12.000000000000
         C            3.498296020255    -0.533650686839    -0.496917800185    12.000000000000
         H            0.008834820255    -2.277850486839     0.461319899815     1.007825032230
         H           -3.076668179745     1.491459513161    -0.475844100185     1.007825032230
         H           -2.437751179745    -2.703143486839     0.258239899815     1.007825032230
         H           -3.978513179745    -0.797382486839    -0.202635100185     1.007825032230
         H            1.668436820255    -1.132354486839    -1.305731100185     1.007825032230
         H            3.868559820255     0.328046513161    -1.100534100185     1.007825032230
         H            4.016598820255    -1.436783486839    -0.878482100185     1.007825032230
         H            3.863199820255    -0.358675486839     0.532558899815     1.007825032230
         H           -1.199751179745     2.777902513161    -0.468330100185     1.007825032230

  Basis Set: AUG-CC-PVTZ
    Blend: AUG-CC-PVTZ
  Basis Set: (AUG-CC-PVTZ AUX)
    Blend: AUG-CC-PVTZ-JKFIT
	 Reference Energy          =    -512.5493407102336505 [Eh]
	 Singles Energy            =      -0.0000000000000000 [Eh]
	 Same-Spin Energy          =      -0.5374150098044468 [Eh]
	 Opposite-Spin Energy      =      -1.6462010302884338 [Eh]
	 Correlation Energy        =      -2.1836160400928808 [Eh]
	 Total Energy              =    -514.7329567503264798 [Eh]

	 ================> DF-SCS-MP2 Energies <==================
	-----------------------------------------------------------
	 SCS Same-Spin Scale       =       0.3333333333333333 [-]
	 SCS Opposite-Spin Scale   =       1.2000000000000000 [-]
	 SCS Same-Spin Energy      =      -0.1791383366014823 [Eh]
	 SCS Opposite-Spin Energy  =      -1.9754412363461205 [Eh]
	 SCS Correlation Energy    =      -2.1545795729476027 [Eh]
	 SCS Total Energy          =    -514.7039202831812190 [Eh]
	-----------------------------------------------------------

  Dipole Moment: [D]
     X:    -1.8664      Y:    -1.5826      Z:    -2.9401     Total:     3.8252

*** Psi4 exiting successfully. Buy a developer a beer!
