                               Psi4 1.4a3.dev225

  ==> Input File <==

--------------------------------------------------------------------------
#psi4
#
memory 32 gb

molecule  {
0 1
  O       -0.4983720     2.1660820    -0.3008080
  O        1.7439460     0.8852250     1.1595980
  N        2.0846670    -0.6693810    -0.4855240
  C       -0.1747200    -0.1425440     0.1301780
  C       -1.0501490     0.9240530    -0.1297870
  C       -0.6950920    -1.4344860     0.2644570
  C        1.2926210     0.1057900     0.3196980
  C       -2.4223480     0.6871570    -0.2466200
  C       -2.1157440    -1.6804093     0.1535025
  C       -2.9283400    -0.6051620    -0.0964900
  C        3.5272930    -0.5029810    -0.4769650
  H       -0.0118380    -2.2529100     0.4809780
  H       -3.0973410     1.5164000    -0.4561860
  H       -2.4584240    -2.6782030     0.2778980
  H       -3.9991860    -0.7724420    -0.1829770
  H        1.6477640    -1.1074140    -1.2860730
  H        3.8478870     0.3529870    -1.0808760
  H        3.9959260    -1.4118430    -0.8588240
  H        3.8425270    -0.3337350     0.5522170
  H       -1.2204240     2.8028430    -0.4486720
units angstrom
no_reorient  #important for SAPT in psi4, default
symmetry c1  #important for SAPT in psi4, default
}

set PROPERTIES_ORIGIN ["COM"]
properties('MP2/aug-cc-pvtz', properties = ['dipole'])
--------------------------------------------------------------------------

    Molecular point group: c1
  Charge       = 0
  Multiplicity = 1
  Basis Set: AUG-CC-PVTZ
    Blend: AUG-CC-PVTZ
  Basis Set: (AUG-CC-PVTZ AUX)
    Blend: AUG-CC-PVTZ-JKFIT

    Orbital Energies [Eh]
    ---------------------

    Doubly Occupied:

       1A    -20.598015     2A    -20.513681     3A    -15.584392
       4A    -11.350734     5A    -11.320985     6A    -11.263172
       7A    -11.256280     8A    -11.253515     9A    -11.251001
      10A    -11.245112    11A    -11.240843    12A     -1.410206
      13A     -1.367608    14A     -1.225760    15A     -1.157682
      16A     -1.048702    17A     -1.014042    18A     -0.950353
      19A     -0.865628    20A     -0.844412    21A     -0.783678
      22A     -0.741880    23A     -0.725547    24A     -0.673857
      25A     -0.651854    26A     -0.637327    27A     -0.619119
      28A     -0.612024    29A     -0.595803    30A     -0.581693
      31A     -0.575060    32A     -0.545774    33A     -0.542825
      34A     -0.518226    35A     -0.512788    36A     -0.488139
      37A     -0.421590    38A     -0.389190    39A     -0.354341
      40A     -0.325247

  @DF-RHF Final Energy:  -512.54909889798785

   => Energetics <=

    Nuclear Repulsion Energy =            586.5329843506161751
    One-Electron Energy =               -1862.0479976177721255
    Two-Electron Energy =                 762.9659143691682175
    Total Energy =                       -512.5490988979878466
  Basis Set: (AUG-CC-PVTZ AUX)
    Blend: AUG-CC-PVTZ-RI
    Molecular point group: c1

    Geometry (in Angstrom), charge = 0, multiplicity = 1:

       Center              X                  Y                   Z               Mass
    ------------   -----------------  -----------------  -----------------  -----------------
         O           -0.477742695270     2.141361879018    -0.320184750632    15.994914619570
         O            1.764575304730     0.860504879018     1.140221249368    15.994914619570
         N            2.105296304730    -0.694101120982    -0.504900750632    14.003074004430
         C           -0.154090695270    -0.167264120982     0.110801249368    12.000000000000
         C           -1.029519695270     0.899332879018    -0.149163750632    12.000000000000
         C           -0.674462695270    -1.459206120982     0.245080249368    12.000000000000
         C            1.313250304730     0.081069879018     0.300321249368    12.000000000000
         C           -2.401718695270     0.662436879018    -0.265996750632    12.000000000000
         C           -2.095114695270    -1.705129420982     0.134125749368    12.000000000000
         C           -2.907710695270    -0.629882120982    -0.115866750632    12.000000000000
         C            3.547922304730    -0.527701120982    -0.496341750632    12.000000000000
         H            0.008791304730    -2.277630120982     0.461601249368     1.007825032230
         H           -3.076711695270     1.491679879018    -0.475562750632     1.007825032230
         H           -2.437794695270    -2.702923120982     0.258521249368     1.007825032230
         H           -3.978556695270    -0.797162120982    -0.202353750632     1.007825032230
         H            1.668393304730    -1.132134120982    -1.305449750632     1.007825032230
         H            3.868516304730     0.328266879018    -1.100252750632     1.007825032230
         H            4.016555304730    -1.436563120982    -0.878200750632     1.007825032230
         H            3.863156304730    -0.358455120982     0.532840249368     1.007825032230
         H           -1.199794695270     2.778122879018    -0.468048750632     1.007825032230

  Basis Set: AUG-CC-PVTZ
    Blend: AUG-CC-PVTZ
  Basis Set: (AUG-CC-PVTZ AUX)
    Blend: AUG-CC-PVTZ-JKFIT
	 Reference Energy          =    -512.5490988979878466 [Eh]
	 Singles Energy            =      -0.0000000000000000 [Eh]
	 Same-Spin Energy          =      -0.5368736190107430 [Eh]
	 Opposite-Spin Energy      =      -1.6462142230813046 [Eh]
	 Correlation Energy        =      -2.1830878420920476 [Eh]
	 Total Energy              =    -514.7321867400798965 [Eh]

	 ================> DF-SCS-MP2 Energies <==================
	-----------------------------------------------------------
	 SCS Same-Spin Scale       =       0.3333333333333333 [-]
	 SCS Opposite-Spin Scale   =       1.2000000000000000 [-]
	 SCS Same-Spin Energy      =      -0.1789578730035810 [Eh]
	 SCS Opposite-Spin Energy  =      -1.9754570676975653 [Eh]
	 SCS Correlation Energy    =      -2.1544149407011464 [Eh]
	 SCS Total Energy          =    -514.7035138386889912 [Eh]
	-----------------------------------------------------------

  Dipole Moment: [D]
     X:    -1.6682      Y:    -1.5912      Z:    -2.9688     Total:     3.7588

*** Psi4 exiting successfully. Buy a developer a beer!
