                               Psi4 1.4a3.dev225

  ==> Input File <==

--------------------------------------------------------------------------
#psi4
#
memory 32 gb

molecule  {
0 1
  O       -0.4983720     2.1660820    -0.3008080
  O        1.7439460     0.8852250     1.1595980
  N        2.0846670    -0.6693810    -0.4855240
  C       -0.1747200    -0.1425440     0.1301780
  C       -1.0501490     0.9240530    -0.1297870
  C       -0.6950920    -1.4344860     0.2644570
  C        1.2926210     0.1057900     0.3196980
  C       -2.4223480     0.6871570    -0.2466200
  C       -2.0666220    -1.6719060     0.1573390
  C       -2.9283400    -0.6051620    -0.0964900
  C        3.5272930    -0.5029810    -0.4769650
  H       -0.0118380    -2.2529100     0.4809780
  H       -3.0973410     1.5164000    -0.4561860
  H       -2.4584240    -2.6782030     0.2778980
  H       -4.0188837    -0.7755190    -0.1845679
  H        1.6477640    -1.1074140    -1.2860730
  H        3.8478870     0.3529870    -1.0808760
  H        3.9959260    -1.4118430    -0.8588240
  H        3.8425270    -0.3337350     0.5522170
  H       -1.2204240     2.8028430    -0.4486720
units angstrom
no_reorient  #important for SAPT in psi4, default
symmetry c1  #important for SAPT in psi4, default
}

set PROPERTIES_ORIGIN ["COM"]
properties('MP2/aug-cc-pvtz', properties = ['dipole'])
--------------------------------------------------------------------------

    Molecular point group: c1
  Charge       = 0
  Multiplicity = 1
  Basis Set: AUG-CC-PVTZ
    Blend: AUG-CC-PVTZ
  Basis Set: (AUG-CC-PVTZ AUX)
    Blend: AUG-CC-PVTZ-JKFIT

    Orbital Energies [Eh]
    ---------------------

    Doubly Occupied:

       1A    -20.597820     2A    -20.513161     3A    -15.583957
       4A    -11.350088     5A    -11.320518     6A    -11.259035
       7A    -11.257469     8A    -11.256009     9A    -11.249564
      10A    -11.246730    11A    -11.240582    12A     -1.410027
      13A     -1.367086    14A     -1.225380    15A     -1.160009
      16A     -1.046315    17A     -1.017783    18A     -0.950098
      19A     -0.864478    20A     -0.843979    21A     -0.783042
      22A     -0.741981    23A     -0.723486    24A     -0.674008
      25A     -0.647749    26A     -0.636081    27A     -0.618812
      28A     -0.612631    29A     -0.595817    30A     -0.585471
      31A     -0.575310    32A     -0.545253    33A     -0.535776
      34A     -0.521702    35A     -0.511020    36A     -0.489880
      37A     -0.421520    38A     -0.388866    39A     -0.354432
      40A     -0.326239

  @DF-RHF Final Energy:  -512.55144003586543

   => Energetics <=

    Nuclear Repulsion Energy =            587.0587810061899745
    One-Electron Energy =               -1863.1221096587364627
    Two-Electron Energy =                 763.5118886166810626
    Total Energy =                       -512.5514400358654257
  Basis Set: (AUG-CC-PVTZ AUX)
    Blend: AUG-CC-PVTZ-RI
    Molecular point group: c1

    Geometry (in Angstrom), charge = 0, multiplicity = 1:

       Center              X                  Y                   Z               Mass
    ------------   -----------------  -----------------  -----------------  -----------------
         O           -0.481513379859     2.140706931697    -0.320478896481    15.994914619570
         O            1.760804620141     0.859849931697     1.139927103519    15.994914619570
         N            2.101525620141    -0.694756068303    -0.505194896481    14.003074004430
         C           -0.157861379859    -0.167919068303     0.110507103519    12.000000000000
         C           -1.033290379859     0.898677931697    -0.149457896481    12.000000000000
         C           -0.678233379859    -1.459861068303     0.244786103519    12.000000000000
         C            1.309479620141     0.080414931697     0.300027103519    12.000000000000
         C           -2.405489379859     0.661781931697    -0.266290896481    12.000000000000
         C           -2.049763379859    -1.697281068303     0.137668103519    12.000000000000
         C           -2.911481379859    -0.630537068303    -0.116160896481    12.000000000000
         C            3.544151620141    -0.528356068303    -0.496635896481    12.000000000000
         H            0.005020620141    -2.278285068303     0.461307103519     1.007825032230
         H           -3.080482379859     1.491024931697    -0.475856896481     1.007825032230
         H           -2.441565379859    -2.703578068303     0.258227103519     1.007825032230
         H           -4.002025079859    -0.800894068303    -0.204238796481     1.007825032230
         H            1.664622620141    -1.132789068303    -1.305743896481     1.007825032230
         H            3.864745620141     0.327611931697    -1.100546896481     1.007825032230
         H            4.012784620141    -1.437218068303    -0.878494896481     1.007825032230
         H            3.859385620141    -0.359110068303     0.532546103519     1.007825032230
         H           -1.203565379859     2.777467931697    -0.468342896481     1.007825032230

  Basis Set: AUG-CC-PVTZ
    Blend: AUG-CC-PVTZ
  Basis Set: (AUG-CC-PVTZ AUX)
    Blend: AUG-CC-PVTZ-JKFIT
	 Reference Energy          =    -512.5514400358654257 [Eh]
	 Singles Energy            =      -0.0000000000000000 [Eh]
	 Same-Spin Energy          =      -0.5370860423792158 [Eh]
	 Opposite-Spin Energy      =      -1.6462164923167748 [Eh]
	 Correlation Energy        =      -2.1833025346959904 [Eh]
	 Total Energy              =    -514.7347425705613659 [Eh]

	 ================> DF-SCS-MP2 Energies <==================
	-----------------------------------------------------------
	 SCS Same-Spin Scale       =       0.3333333333333333 [-]
	 SCS Opposite-Spin Scale   =       1.2000000000000000 [-]
	 SCS Same-Spin Energy      =      -0.1790286807930719 [Eh]
	 SCS Opposite-Spin Energy  =      -1.9754597907801297 [Eh]
	 SCS Correlation Energy    =      -2.1544884715732016 [Eh]
	 SCS Total Energy          =    -514.7059285074386707 [Eh]
	-----------------------------------------------------------

  Dipole Moment: [D]
     X:    -1.7011      Y:    -1.5790      Z:    -2.9734     Total:     3.7720

*** Psi4 exiting successfully. Buy a developer a beer!
