                               Psi4 1.4a3.dev225

  ==> Input File <==

--------------------------------------------------------------------------
#psi4
#
memory 32 gb

molecule  {
0 1
  O       -0.4983720     2.1660820    -0.3008080
  O        1.7439460     0.8852250     1.1595980
  N        2.0846670    -0.6693810    -0.4855240
  C       -0.1747200    -0.1425440     0.1301780
  C       -1.0501490     0.9240530    -0.1297870
  C       -0.6950920    -1.4344860     0.2644570
  C        1.2926210     0.1057900     0.3196980
  C       -2.4223480     0.6871570    -0.2466200
  C       -2.0666220    -1.6719060     0.1573390
  C       -2.9283400    -0.6051620    -0.0964900
  C        3.5272930    -0.5029810    -0.4769650
  H       -0.0118380    -2.2529100     0.4809780
  H       -3.0973410     1.5164000    -0.4561860
  H       -2.4584240    -2.6782030     0.2778980
  H       -3.9991860    -0.7724420    -0.1829770
  H        1.6477640    -1.1074140    -1.2860730
  H        3.7822107     0.4178829    -1.0128726
  H        3.9959260    -1.4118430    -0.8588240
  H        3.8425270    -0.3337350     0.5522170
  H       -1.2204240     2.8028430    -0.4486720
units angstrom
no_reorient  #important for SAPT in psi4, default
symmetry c1  #important for SAPT in psi4, default
}

set PROPERTIES_ORIGIN ["COM"]
properties('MP2/aug-cc-pvtz', properties = ['dipole'])
--------------------------------------------------------------------------

    Molecular point group: c1
  Charge       = 0
  Multiplicity = 1
  Basis Set: AUG-CC-PVTZ
    Blend: AUG-CC-PVTZ
  Basis Set: (AUG-CC-PVTZ AUX)
    Blend: AUG-CC-PVTZ-JKFIT

    Orbital Energies [Eh]
    ---------------------

    Doubly Occupied:

       1A    -20.597672     2A    -20.513057     3A    -15.582856
       4A    -11.349647     5A    -11.320231     6A    -11.257164
       7A    -11.256616     8A    -11.255889     9A    -11.249297
      10A    -11.246425    11A    -11.240271    12A     -1.409879
      13A     -1.366962    14A     -1.225240    15A     -1.159884
      16A     -1.046620    17A     -1.017546    18A     -0.950030
      19A     -0.864945    20A     -0.843928    21A     -0.783184
      22A     -0.742001    23A     -0.722885    24A     -0.675022
      25A     -0.646920    26A     -0.636305    27A     -0.619633
      28A     -0.613678    29A     -0.596257    30A     -0.587085
      31A     -0.574743    32A     -0.546808    33A     -0.534891
      34A     -0.522414    35A     -0.509670    36A     -0.489638
      37A     -0.421231    38A     -0.388047    39A     -0.354188
      40A     -0.326014

  @DF-RHF Final Energy:  -512.55071324880828

   => Energetics <=

    Nuclear Repulsion Energy =            587.3385065052182199
    One-Electron Energy =               -1863.6888992073577356
    Two-Electron Energy =                 763.7996794533312368
    Total Energy =                       -512.5507132488082789
  Basis Set: (AUG-CC-PVTZ AUX)
    Blend: AUG-CC-PVTZ-RI
    Molecular point group: c1

    Geometry (in Angstrom), charge = 0, multiplicity = 1:

       Center              X                  Y                   Z               Mass
    ------------   -----------------  -----------------  -----------------  -----------------
         O           -0.481206631792     2.140253447779    -0.320943197635    15.994914619570
         O            1.761111368208     0.859396447779     1.139462802365    15.994914619570
         N            2.101832368208    -0.695209552221    -0.505659197635    14.003074004430
         C           -0.157554631792    -0.168372552221     0.110042802365    12.000000000000
         C           -1.032983631792     0.898224447779    -0.149922197635    12.000000000000
         C           -0.677926631792    -1.460314552221     0.244321802365    12.000000000000
         C            1.309786368208     0.079961447779     0.299562802365    12.000000000000
         C           -2.405182631792     0.661328447779    -0.266755197635    12.000000000000
         C           -2.049456631792    -1.697734552221     0.137203802365    12.000000000000
         C           -2.911174631792    -0.630990552221    -0.116625197635    12.000000000000
         C            3.544458368208    -0.528809552221    -0.497100197635    12.000000000000
         H            0.005327368208    -2.278738552221     0.460842802365     1.007825032230
         H           -3.080175631792     1.490571447779    -0.476321197635     1.007825032230
         H           -2.441258631792    -2.704031552221     0.257762802365     1.007825032230
         H           -3.982020631792    -0.798270552221    -0.203112197635     1.007825032230
         H            1.664929368208    -1.133242552221    -1.306208197635     1.007825032230
         H            3.799376068208     0.392054347779    -1.033007797635     1.007825032230
         H            4.013091368208    -1.437671552221    -0.878959197635     1.007825032230
         H            3.859692368208    -0.359563552221     0.532081802365     1.007825032230
         H           -1.203258631792     2.777014447779    -0.468807197635     1.007825032230

  Basis Set: AUG-CC-PVTZ
    Blend: AUG-CC-PVTZ
  Basis Set: (AUG-CC-PVTZ AUX)
    Blend: AUG-CC-PVTZ-JKFIT
	 Reference Energy          =    -512.5507132488082789 [Eh]
	 Singles Energy            =      -0.0000000000000000 [Eh]
	 Same-Spin Energy          =      -0.5371838536783905 [Eh]
	 Opposite-Spin Energy      =      -1.6462567277715356 [Eh]
	 Correlation Energy        =      -2.1834405814499260 [Eh]
	 Total Energy              =    -514.7341538302581512 [Eh]

	 ================> DF-SCS-MP2 Energies <==================
	-----------------------------------------------------------
	 SCS Same-Spin Scale       =       0.3333333333333333 [-]
	 SCS Opposite-Spin Scale   =       1.2000000000000000 [-]
	 SCS Same-Spin Energy      =      -0.1790612845594635 [Eh]
	 SCS Opposite-Spin Energy  =      -1.9755080733258428 [Eh]
	 SCS Correlation Energy    =      -2.1545693578853062 [Eh]
	 SCS Total Energy          =    -514.7052826066935722 [Eh]
	-----------------------------------------------------------

  Dipole Moment: [D]
     X:    -1.6966      Y:    -1.5821      Z:    -2.9535     Total:     3.7556

*** Psi4 exiting successfully. Buy a developer a beer!
