                               Psi4 1.4a3.dev225

  ==> Input File <==

--------------------------------------------------------------------------
#psi4
#
memory 32 gb

molecule  {
0 1
  O       -0.4983720     2.1660820    -0.3008080
  O        1.7439460     0.8852250     1.1595980
  N        2.0846670    -0.6693810    -0.4855240
  C       -0.1747200    -0.1425440     0.1301780
  C       -1.0501490     0.9240530    -0.1297870
  C       -0.6950920    -1.4344860     0.2644570
  C        1.2926210     0.1057900     0.3196980
  C       -2.4223480     0.6871570    -0.2466200
  C       -2.0666220    -1.6719060     0.1573390
  C       -2.9283400    -0.6051620    -0.0964900
  C        3.5272930    -0.5029810    -0.4769650
  H       -0.0746426    -2.1776806     0.4610754
  H       -3.0973410     1.5164000    -0.4561860
  H       -2.4584240    -2.6782030     0.2778980
  H       -3.9991860    -0.7724420    -0.1829770
  H        1.6477640    -1.1074140    -1.2860730
  H        3.8478870     0.3529870    -1.0808760
  H        3.9959260    -1.4118430    -0.8588240
  H        3.8425270    -0.3337350     0.5522170
  H       -1.2204240     2.8028430    -0.4486720
units angstrom
no_reorient  #important for SAPT in psi4, default
symmetry c1  #important for SAPT in psi4, default
}

set PROPERTIES_ORIGIN ["COM"]
properties('MP2/aug-cc-pvtz', properties = ['dipole'])
--------------------------------------------------------------------------

    Molecular point group: c1
  Charge       = 0
  Multiplicity = 1
  Basis Set: AUG-CC-PVTZ
    Blend: AUG-CC-PVTZ
  Basis Set: (AUG-CC-PVTZ AUX)
    Blend: AUG-CC-PVTZ-JKFIT

    Orbital Energies [Eh]
    ---------------------

    Doubly Occupied:

       1A    -20.597393     2A    -20.513155     3A    -15.584256
       4A    -11.350060     5A    -11.319828     6A    -11.256213
       7A    -11.256118     8A    -11.248950     9A    -11.246352
      10A    -11.245573    11A    -11.239733    12A     -1.409623
      13A     -1.367112    14A     -1.225603    15A     -1.160544
      16A     -1.048032    17A     -1.019655    18A     -0.950617
      19A     -0.870530    20A     -0.845024    21A     -0.783219
      22A     -0.749604    23A     -0.724532    24A     -0.675898
      25A     -0.648259    26A     -0.636320    27A     -0.627261
      28A     -0.614846    29A     -0.595433    30A     -0.587500
      31A     -0.575146    32A     -0.545365    33A     -0.537432
      34A     -0.523732    35A     -0.512876    36A     -0.489383
      37A     -0.421499    38A     -0.389172    39A     -0.354058
      40A     -0.325719

  @DF-RHF Final Energy:  -512.54636198460094

   => Energetics <=

    Nuclear Repulsion Energy =            587.6973117713177999
    One-Electron Energy =               -1864.3440985079057555
    Two-Electron Energy =                 764.1004247519870205
    Total Energy =                       -512.5463619846009351
  Basis Set: (AUG-CC-PVTZ AUX)
    Blend: AUG-CC-PVTZ-RI
    Molecular point group: c1

    Geometry (in Angstrom), charge = 0, multiplicity = 1:

       Center              X                  Y                   Z               Mass
    ------------   -----------------  -----------------  -----------------  -----------------
         O           -0.481225790453     2.140184507421    -0.320356729243    15.994914619570
         O            1.761092209547     0.859327507421     1.140049270757    15.994914619570
         N            2.101813209547    -0.695278492579    -0.505072729243    14.003074004430
         C           -0.157573790453    -0.168441492579     0.110629270757    12.000000000000
         C           -1.033002790453     0.898155507421    -0.149335729243    12.000000000000
         C           -0.677945790453    -1.460383492579     0.244908270757    12.000000000000
         C            1.309767209547     0.079892507421     0.300149270757    12.000000000000
         C           -2.405201790453     0.661259507421    -0.266168729243    12.000000000000
         C           -2.049475790453    -1.697803492579     0.137790270757    12.000000000000
         C           -2.911193790453    -0.631059492579    -0.116038729243    12.000000000000
         C            3.544439209547    -0.528878492579    -0.496513729243    12.000000000000
         H           -0.057496390453    -2.203578092579     0.441526670757     1.007825032230
         H           -3.080194790453     1.490502507421    -0.475734729243     1.007825032230
         H           -2.441277790453    -2.704100492579     0.258349270757     1.007825032230
         H           -3.982039790453    -0.798339492579    -0.202525729243     1.007825032230
         H            1.664910209547    -1.133311492579    -1.305621729243     1.007825032230
         H            3.865033209547     0.327089507421    -1.100424729243     1.007825032230
         H            4.013072209547    -1.437740492579    -0.878372729243     1.007825032230
         H            3.859673209547    -0.359632492579     0.532668270757     1.007825032230
         H           -1.203277790453     2.776945507421    -0.468220729243     1.007825032230

  Basis Set: AUG-CC-PVTZ
    Blend: AUG-CC-PVTZ
  Basis Set: (AUG-CC-PVTZ AUX)
    Blend: AUG-CC-PVTZ-JKFIT
	 Reference Energy          =    -512.5463619846009351 [Eh]
	 Singles Energy            =      -0.0000000000000000 [Eh]
	 Same-Spin Energy          =      -0.5368433625478042 [Eh]
	 Opposite-Spin Energy      =      -1.6455605995296159 [Eh]
	 Correlation Energy        =      -2.1824039620774203 [Eh]
	 Total Energy              =    -514.7287659466783225 [Eh]

	 ================> DF-SCS-MP2 Energies <==================
	-----------------------------------------------------------
	 SCS Same-Spin Scale       =       0.3333333333333333 [-]
	 SCS Opposite-Spin Scale   =       1.2000000000000000 [-]
	 SCS Same-Spin Energy      =      -0.1789477875159347 [Eh]
	 SCS Opposite-Spin Energy  =      -1.9746727194355389 [Eh]
	 SCS Correlation Energy    =      -2.1536205069514738 [Eh]
	 SCS Total Energy          =    -514.6999824915524187 [Eh]
	-----------------------------------------------------------

  Dipole Moment: [D]
     X:    -1.6965      Y:    -1.5921      Z:    -2.9720     Total:     3.7743

*** Psi4 exiting successfully. Buy a developer a beer!
