                               Psi4 1.4a3.dev225

  ==> Input File <==

--------------------------------------------------------------------------
#psi4
#
memory 32 gb

molecule  {
0 1
  O       -0.4983720     2.1660820    -0.3008080
  O        1.7439460     0.8852250     1.1595980
  N        2.0846670    -0.6693810    -0.4855240
  C       -0.1747200    -0.1425440     0.1301780
  C       -1.0501490     0.9240530    -0.1297870
  C       -0.6950920    -1.4344860     0.2644570
  C        1.2926210     0.1057900     0.3196980
  C       -2.4223480     0.6871570    -0.2466200
  C       -2.0666220    -1.6719060     0.1573390
  C       -2.9283400    -0.6051620    -0.0964900
  C        3.5272930    -0.5029810    -0.4769650
  H       -0.0118380    -2.2529100     0.4809780
  H       -3.0973410     1.5164000    -0.4561860
  H       -2.4584240    -2.6782030     0.2778980
  H       -3.9991860    -0.7724420    -0.1829770
  H        1.6477640    -1.1074140    -1.2860730
  H        3.8478870     0.3529870    -1.0808760
  H        3.9959260    -1.4118430    -0.8588240
  H        3.8425270    -0.3337350     0.5522170
  H       -1.2574901     2.8355307    -0.4562625
units angstrom
no_reorient  #important for SAPT in psi4, default
symmetry c1  #important for SAPT in psi4, default
}

set PROPERTIES_ORIGIN ["COM"]
properties('MP2/aug-cc-pvtz', properties = ['dipole'])
--------------------------------------------------------------------------

    Molecular point group: c1
  Charge       = 0
  Multiplicity = 1
  Basis Set: AUG-CC-PVTZ
    Blend: AUG-CC-PVTZ
  Basis Set: (AUG-CC-PVTZ AUX)
    Blend: AUG-CC-PVTZ-JKFIT

    Orbital Energies [Eh]
    ---------------------

    Doubly Occupied:

       1A    -20.601532     2A    -20.512928     3A    -15.583732
       4A    -11.349838     5A    -11.319972     6A    -11.257146
       7A    -11.256480     8A    -11.255842     9A    -11.249213
      10A    -11.246133    11A    -11.240034    12A     -1.400591
      13A     -1.366555    14A     -1.225152    15A     -1.159090
      16A     -1.046298    17A     -1.016046    18A     -0.949897
      19A     -0.864192    20A     -0.841122    21A     -0.782869
      22A     -0.737814    23A     -0.720073    24A     -0.674307
      25A     -0.647379    26A     -0.635802    27A     -0.618365
      28A     -0.612116    29A     -0.594405    30A     -0.584786
      31A     -0.573167    32A     -0.545073    33A     -0.535423
      34A     -0.521764    35A     -0.510766    36A     -0.489190
      37A     -0.421249    38A     -0.388654    39A     -0.354113
      40A     -0.325522

  @DF-RHF Final Energy:  -512.54683412252268

   => Energetics <=

    Nuclear Repulsion Energy =            586.8464157310198743
    One-Electron Energy =               -1862.7572409174890709
    Two-Electron Energy =                 763.3639910639464006
    Total Energy =                       -512.5468341225226823
  Basis Set: (AUG-CC-PVTZ AUX)
    Blend: AUG-CC-PVTZ-RI
    Molecular point group: c1

    Geometry (in Angstrom), charge = 0, multiplicity = 1:

       Center              X                  Y                   Z               Mass
    ------------   -----------------  -----------------  -----------------  -----------------
         O           -0.481397505884     2.140468326072    -0.320438869910    15.994914619570
         O            1.760920494116     0.859611326072     1.139967130090    15.994914619570
         N            2.101641494116    -0.694994673928    -0.505154869910    14.003074004430
         C           -0.157745505884    -0.168157673928     0.110547130090    12.000000000000
         C           -1.033174505884     0.898439326072    -0.149417869910    12.000000000000
         C           -0.678117505884    -1.460099673928     0.244826130090    12.000000000000
         C            1.309595494116     0.080176326072     0.300067130090    12.000000000000
         C           -2.405373505884     0.661543326072    -0.266250869910    12.000000000000
         C           -2.049647505884    -1.697519673928     0.137708130090    12.000000000000
         C           -2.911365505884    -0.630775673928    -0.116120869910    12.000000000000
         C            3.544267494116    -0.528594673928    -0.496595869910    12.000000000000
         H            0.005136494116    -2.278523673928     0.461347130090     1.007825032230
         H           -3.080366505884     1.490786326072    -0.475816869910     1.007825032230
         H           -2.441449505884    -2.703816673928     0.258267130090     1.007825032230
         H           -3.982211505884    -0.798055673928    -0.202607869910     1.007825032230
         H            1.664738494116    -1.133027673928    -1.305703869910     1.007825032230
         H            3.864861494116     0.327373326072    -1.100506869910     1.007825032230
         H            4.012900494116    -1.437456673928    -0.878454869910     1.007825032230
         H            3.859501494116    -0.359348673928     0.532586130090     1.007825032230
         H           -1.240515605884     2.809917026072    -0.475893369910     1.007825032230

  Basis Set: AUG-CC-PVTZ
    Blend: AUG-CC-PVTZ
  Basis Set: (AUG-CC-PVTZ AUX)
    Blend: AUG-CC-PVTZ-JKFIT
	 Reference Energy          =    -512.5468341225226823 [Eh]
	 Singles Energy            =      -0.0000000000000000 [Eh]
	 Same-Spin Energy          =      -0.5376899751270219 [Eh]
	 Opposite-Spin Energy      =      -1.6476843054232178 [Eh]
	 Correlation Energy        =      -2.1853742805502394 [Eh]
	 Total Energy              =    -514.7322084030729457 [Eh]

	 ================> DF-SCS-MP2 Energies <==================
	-----------------------------------------------------------
	 SCS Same-Spin Scale       =       0.3333333333333333 [-]
	 SCS Opposite-Spin Scale   =       1.2000000000000000 [-]
	 SCS Same-Spin Energy      =      -0.1792299917090073 [Eh]
	 SCS Opposite-Spin Energy  =      -1.9772211665078612 [Eh]
	 SCS Correlation Energy    =      -2.1564511582168686 [Eh]
	 SCS Total Energy          =    -514.7032852807395784 [Eh]
	-----------------------------------------------------------

  Dipole Moment: [D]
     X:    -1.7314      Y:    -1.5302      Z:    -2.9819     Total:     3.7723

*** Psi4 exiting successfully. Buy a developer a beer!
