                               Psi4 1.4a3.dev225

  ==> Input File <==

--------------------------------------------------------------------------
#psi4
#
memory 32 gb

molecule  {
0 1
  O       -0.4983720     2.1660820    -0.3008080
  O        1.7439460     0.8852250     1.1595980
  N        2.0846670    -0.6693810    -0.4855240
  C       -0.1747200    -0.1425440     0.1301780
  C       -1.0501490     0.9240530    -0.1297870
  C       -0.6950920    -1.4344860     0.2644570
  C        1.2926210     0.1057900     0.3196980
  C       -2.4223480     0.6871570    -0.2466200
  C       -2.0666220    -1.6719060     0.1573390
  C       -2.9283400    -0.6051620    -0.0964900
  C        3.5272930    -0.5029810    -0.4769650
  H       -0.0118380    -2.2529100     0.4809780
  H       -3.0973410     1.5164000    -0.4561860
  H       -2.4584240    -2.6782030     0.2778980
  H       -3.9991860    -0.7724420    -0.1829770
  H        1.7341299    -1.0208247    -1.1278225
  H        3.8478870     0.3529870    -1.0808760
  H        3.9959260    -1.4118430    -0.8588240
  H        3.8425270    -0.3337350     0.5522170
  H       -1.2204240     2.8028430    -0.4486720
units angstrom
no_reorient  #important for SAPT in psi4, default
symmetry c1  #important for SAPT in psi4, default
}

set PROPERTIES_ORIGIN ["COM"]
properties('MP2/aug-cc-pvtz', properties = ['dipole'])
--------------------------------------------------------------------------

    Molecular point group: c1
  Charge       = 0
  Multiplicity = 1
  Basis Set: AUG-CC-PVTZ
    Blend: AUG-CC-PVTZ
  Basis Set: (AUG-CC-PVTZ AUX)
    Blend: AUG-CC-PVTZ-JKFIT

    Orbital Energies [Eh]
    ---------------------

    Doubly Occupied:

       1A    -20.598294     2A    -20.514021     3A    -15.562504
       4A    -11.350789     5A    -11.321167     6A    -11.258203
       7A    -11.257384     8A    -11.256363     9A    -11.250232
      10A    -11.246954    11A    -11.240776    12A     -1.410557
      13A     -1.370526    14A     -1.257615    15A     -1.161049
      16A     -1.047620    17A     -1.018210    18A     -0.956616
      19A     -0.872240    20A     -0.853627    21A     -0.817286
      22A     -0.744478    23A     -0.728727    24A     -0.676074
      25A     -0.651359    26A     -0.637662    27A     -0.620923
      28A     -0.613596    29A     -0.596338    30A     -0.589240
      31A     -0.578087    32A     -0.552085    33A     -0.536569
      34A     -0.523220    35A     -0.511885    36A     -0.490417
      37A     -0.422833    38A     -0.392819    39A     -0.355151
      40A     -0.326679

  @DF-RHF Final Energy:  -512.50733331690242

   => Energetics <=

    Nuclear Repulsion Energy =            588.4571727250821596
    One-Electron Energy =               -1865.5886632553688287
    Two-Electron Energy =                 764.6241572133841373
    Total Energy =                       -512.5073333169024181
  Basis Set: (AUG-CC-PVTZ AUX)
    Blend: AUG-CC-PVTZ-RI
    Molecular point group: c1

    Geometry (in Angstrom), charge = 0, multiplicity = 1:

       Center              X                  Y                   Z               Mass
    ------------   -----------------  -----------------  -----------------  -----------------
         O           -0.482220987404     2.140108719394    -0.321545284768    15.994914619570
         O            1.760097012596     0.859251719394     1.138860715232    15.994914619570
         N            2.100818012596    -0.695354280606    -0.506261284768    14.003074004430
         C           -0.158568987404    -0.168517280606     0.109440715232    12.000000000000
         C           -1.033997987404     0.898079719394    -0.150524284768    12.000000000000
         C           -0.678940987404    -1.460459280606     0.243719715232    12.000000000000
         C            1.308772012596     0.079816719394     0.298960715232    12.000000000000
         C           -2.406196987404     0.661183719394    -0.267357284768    12.000000000000
         C           -2.050470987404    -1.697879280606     0.136601715232    12.000000000000
         C           -2.912188987404    -0.631135280606    -0.117227284768    12.000000000000
         C            3.543444012596    -0.528954280606    -0.497702284768    12.000000000000
         H            0.004313012596    -2.278883280606     0.460240715232     1.007825032230
         H           -3.081189987404     1.490426719394    -0.476923284768     1.007825032230
         H           -2.442272987404    -2.704176280606     0.257160715232     1.007825032230
         H           -3.983034987404    -0.798415280606    -0.203714284768     1.007825032230
         H            1.750280912596    -1.046797980606    -1.148559784768     1.007825032230
         H            3.864038012596     0.327013719394    -1.101613284768     1.007825032230
         H            4.012077012596    -1.437816280606    -0.879561284768     1.007825032230
         H            3.858678012596    -0.359708280606     0.531479715232     1.007825032230
         H           -1.204272987404     2.776869719394    -0.469409284768     1.007825032230

  Basis Set: AUG-CC-PVTZ
    Blend: AUG-CC-PVTZ
  Basis Set: (AUG-CC-PVTZ AUX)
    Blend: AUG-CC-PVTZ-JKFIT
	 Reference Energy          =    -512.5073333169024181 [Eh]
	 Singles Energy            =      -0.0000000000000000 [Eh]
	 Same-Spin Energy          =      -0.5356997970616576 [Eh]
	 Opposite-Spin Energy      =      -1.6433708142847512 [Eh]
	 Correlation Energy        =      -2.1790706113464089 [Eh]
	 Total Energy              =    -514.6864039282488648 [Eh]

	 ================> DF-SCS-MP2 Energies <==================
	-----------------------------------------------------------
	 SCS Same-Spin Scale       =       0.3333333333333333 [-]
	 SCS Opposite-Spin Scale   =       1.2000000000000000 [-]
	 SCS Same-Spin Energy      =      -0.1785665990205525 [Eh]
	 SCS Opposite-Spin Energy  =      -1.9720449771417012 [Eh]
	 SCS Correlation Energy    =      -2.1506115761622540 [Eh]
	 SCS Total Energy          =    -514.6579448930647231 [Eh]
	-----------------------------------------------------------

  Dipole Moment: [D]
     X:    -1.7164      Y:    -1.5027      Z:    -2.8375     Total:     3.6408

*** Psi4 exiting successfully. Buy a developer a beer!
