                               Psi4 1.4a3.dev225

  ==> Input File <==

--------------------------------------------------------------------------
#psi4
#
memory 32 gb

molecule  {
0 1
  O       -0.4983720     2.1660820    -0.3008080
  O        1.7439460     0.8852250     1.1595980
  N        2.0846670    -0.6693810    -0.4855240
  C       -0.1747200    -0.1425440     0.1301780
  C       -1.0501490     0.9240530    -0.1297870
  C       -0.7831841    -1.3973994     0.2443768
  C        1.2926210     0.1057900     0.3196980
  C       -2.4223480     0.6871570    -0.2466200
  C       -2.0666220    -1.6719060     0.1573390
  C       -2.9283400    -0.6051620    -0.0964900
  C        3.5272930    -0.5029810    -0.4769650
  H       -0.0118380    -2.2529100     0.4809780
  H       -3.0973410     1.5164000    -0.4561860
  H       -2.4584240    -2.6782030     0.2778980
  H       -3.9991860    -0.7724420    -0.1829770
  H        1.6477640    -1.1074140    -1.2860730
  H        3.8478870     0.3529870    -1.0808760
  H        3.9959260    -1.4118430    -0.8588240
  H        3.8425270    -0.3337350     0.5522170
  H       -1.2204240     2.8028430    -0.4486720
units angstrom
no_reorient  #important for SAPT in psi4, default
symmetry c1  #important for SAPT in psi4, default
}

set PROPERTIES_ORIGIN ["COM"]
properties('MP2/aug-cc-pvtz', properties = ['dipole'])
--------------------------------------------------------------------------

    Molecular point group: c1
  Charge       = 0
  Multiplicity = 1
  Basis Set: AUG-CC-PVTZ
    Blend: AUG-CC-PVTZ
  Basis Set: (AUG-CC-PVTZ AUX)
    Blend: AUG-CC-PVTZ-JKFIT

    Orbital Energies [Eh]
    ---------------------

    Doubly Occupied:

       1A    -20.597595     2A    -20.514014     3A    -15.584054
       4A    -11.351961     5A    -11.320169     6A    -11.258226
       7A    -11.255927     8A    -11.254281     9A    -11.247091
      10A    -11.246249    11A    -11.231140    12A     -1.409892
      13A     -1.367585    14A     -1.225325    15A     -1.169785
      16A     -1.044475    17A     -1.027553    18A     -0.950888
      19A     -0.864821    20A     -0.842011    21A     -0.785515
      22A     -0.739697    23A     -0.722355    24A     -0.681963
      25A     -0.649643    26A     -0.636485    27A     -0.617070
      28A     -0.602175    29A     -0.596201    30A     -0.590028
      31A     -0.576559    32A     -0.545208    33A     -0.536070
      34A     -0.523539    35A     -0.498093    36A     -0.493662
      37A     -0.423833    38A     -0.388772    39A     -0.354970
      40A     -0.331198

  @DF-RHF Final Energy:  -512.54001477832105

   => Energetics <=

    Nuclear Repulsion Energy =            588.1308719970977563
    One-Electron Energy =               -1865.2296155993485627
    Two-Electron Energy =                 764.5587288239297550
    Total Energy =                       -512.5400147783210514
  Basis Set: (AUG-CC-PVTZ AUX)
    Blend: AUG-CC-PVTZ-RI
    Molecular point group: c1

    Geometry (in Angstrom), charge = 0, multiplicity = 1:

       Center              X                  Y                   Z               Mass
    ------------   -----------------  -----------------  -----------------  -----------------
         O           -0.474647031984     2.137740359452    -0.318894401730    15.994914619570
         O            1.767670968016     0.856883359452     1.141511598270    15.994914619570
         N            2.108391968016    -0.697722640548    -0.503610401730    14.003074004430
         C           -0.150995031984    -0.170885640548     0.112091598270    12.000000000000
         C           -1.026424031984     0.895711359452    -0.147873401730    12.000000000000
         C           -0.759459131984    -1.425741040548     0.226290398270    12.000000000000
         C            1.316345968016     0.077448359452     0.301611598270    12.000000000000
         C           -2.398623031984     0.658815359452    -0.264706401730    12.000000000000
         C           -2.042897031984    -1.700247640548     0.139252598270    12.000000000000
         C           -2.904615031984    -0.633503640548    -0.114576401730    12.000000000000
         C            3.551017968016    -0.531322640548    -0.495051401730    12.000000000000
         H            0.011886968016    -2.281251640548     0.462891598270     1.007825032230
         H           -3.073616031984     1.488058359452    -0.474272401730     1.007825032230
         H           -2.434699031984    -2.706544640548     0.259811598270     1.007825032230
         H           -3.975461031984    -0.800783640548    -0.201063401730     1.007825032230
         H            1.671488968016    -1.135755640548    -1.304159401730     1.007825032230
         H            3.871611968016     0.324645359452    -1.098962401730     1.007825032230
         H            4.019650968016    -1.440184640548    -0.876910401730     1.007825032230
         H            3.866251968016    -0.362076640548     0.534130598270     1.007825032230
         H           -1.196699031984     2.774501359452    -0.466758401730     1.007825032230

  Basis Set: AUG-CC-PVTZ
    Blend: AUG-CC-PVTZ
  Basis Set: (AUG-CC-PVTZ AUX)
    Blend: AUG-CC-PVTZ-JKFIT
	 Reference Energy          =    -512.5400147783210514 [Eh]
	 Singles Energy            =      -0.0000000000000000 [Eh]
	 Same-Spin Energy          =      -0.5372773009689953 [Eh]
	 Opposite-Spin Energy      =      -1.6463494864313573 [Eh]
	 Correlation Energy        =      -2.1836267874003523 [Eh]
	 Total Energy              =    -514.7236415657214366 [Eh]

	 ================> DF-SCS-MP2 Energies <==================
	-----------------------------------------------------------
	 SCS Same-Spin Scale       =       0.3333333333333333 [-]
	 SCS Opposite-Spin Scale   =       1.2000000000000000 [-]
	 SCS Same-Spin Energy      =      -0.1790924336563318 [Eh]
	 SCS Opposite-Spin Energy  =      -1.9756193837176286 [Eh]
	 SCS Correlation Energy    =      -2.1547118173739603 [Eh]
	 SCS Total Energy          =    -514.6947265956949877 [Eh]
	-----------------------------------------------------------

  Dipole Moment: [D]
     X:    -1.7244      Y:    -1.5457      Z:    -2.9852     Total:     3.7782

*** Psi4 exiting successfully. Buy a developer a beer!
