                               Psi4 1.4a3.dev225

  ==> Input File <==

--------------------------------------------------------------------------
#psi4
#
memory 32 gb

molecule  {
0 1
  O       -0.4983720     2.1660820    -0.3008080
  O        1.7439460     0.8852250     1.1595980
  N        2.0846670    -0.6693810    -0.4855240
  C       -0.1747200    -0.1425440     0.1301780
  C       -1.0501490     0.9240530    -0.1297870
  C       -0.6950920    -1.4344860     0.2644570
  C        1.2926210     0.1057900     0.3196980
  C       -2.4223480     0.6871570    -0.2466200
  C       -2.0666220    -1.6719060     0.1573390
  C       -2.9283400    -0.6051620    -0.0964900
  C        3.5272930    -0.5029810    -0.4769650
  H       -0.0118380    -2.2529100     0.4809780
  H       -3.0973410     1.5164000    -0.4561860
  H       -2.4584240    -2.6782030     0.2778980
  H       -3.9991860    -0.7724420    -0.1829770
  H        1.6477640    -1.1074140    -1.2860730
  H        3.8478870     0.3529870    -1.0808760
  H        3.9959260    -1.4118430    -0.8588240
  H        3.8425270    -0.3337350     0.5522170
  H       -1.2204240     2.8028430    -0.4486720
units angstrom
no_reorient  #important for SAPT in psi4, default
symmetry c1  #important for SAPT in psi4, default
}

set PROPERTIES_ORIGIN ["COM"]
properties('MP2/aug-cc-pvtz', properties = ['dipole'])
--------------------------------------------------------------------------

    Molecular point group: c1
  Charge       = 0
  Multiplicity = 1
  Basis Set: AUG-CC-PVTZ
    Blend: AUG-CC-PVTZ
  Basis Set: (AUG-CC-PVTZ AUX)
    Blend: AUG-CC-PVTZ-JKFIT

    Orbital Energies [Eh]
    ---------------------

    Doubly Occupied:

       1A    -20.597727     2A    -20.513117     3A    -15.583914
       4A    -11.350040     5A    -11.320391     6A    -11.257338
       7A    -11.256743     8A    -11.255979     9A    -11.249498
      10A    -11.246550    11A    -11.240404    12A     -1.409941
      13A     -1.367042    14A     -1.225338    15A     -1.160019
      16A     -1.046718    17A     -1.017678    18A     -0.950258
      19A     -0.865186    20A     -0.844244    21A     -0.783151
      22A     -0.742251    23A     -0.723631    24A     -0.675194
      25A     -0.648342    26A     -0.636091    27A     -0.619258
      28A     -0.612537    29A     -0.595736    30A     -0.586144
      31A     -0.575297    32A     -0.545222    33A     -0.535851
      34A     -0.522609    35A     -0.511165    36A     -0.489769
      37A     -0.421491    38A     -0.388826    39A     -0.354338
      40A     -0.326135

  @DF-RHF Final Energy:  -512.55208994998111

   => Energetics <=

    Nuclear Repulsion Energy =            587.1626712923255127
    One-Electron Energy =               -1863.3272019271341833
    Two-Electron Energy =                 763.6124406848275612
    Total Energy =                       -512.5520899499811094
  Basis Set: (AUG-CC-PVTZ AUX)
    Blend: AUG-CC-PVTZ-RI
    Molecular point group: c1

    Geometry (in Angstrom), charge = 0, multiplicity = 1:

       Center              X                  Y                   Z               Mass
    ------------   -----------------  -----------------  -----------------  -----------------
         O           -0.481644793851     2.140686403369    -0.320489510234    15.994914619570
         O            1.760673206149     0.859829403369     1.139916489766    15.994914619570
         N            2.101394206149    -0.694776596631    -0.505205510234    14.003074004430
         C           -0.157992793851    -0.167939596631     0.110496489766    12.000000000000
         C           -1.033421793851     0.898657403369    -0.149468510234    12.000000000000
         C           -0.678364793851    -1.459881596631     0.244775489766    12.000000000000
         C            1.309348206149     0.080394403369     0.300016489766    12.000000000000
         C           -2.405620793851     0.661761403369    -0.266301510234    12.000000000000
         C           -2.049894793851    -1.697301596631     0.137657489766    12.000000000000
         C           -2.911612793851    -0.630557596631    -0.116171510234    12.000000000000
         C            3.544020206149    -0.528376596631    -0.496646510234    12.000000000000
         H            0.004889206149    -2.278305596631     0.461296489766     1.007825032230
         H           -3.080613793851     1.491004403369    -0.475867510234     1.007825032230
         H           -2.441696793851    -2.703598596631     0.258216489766     1.007825032230
         H           -3.982458793851    -0.797837596631    -0.202658510234     1.007825032230
         H            1.664491206149    -1.132809596631    -1.305754510234     1.007825032230
         H            3.864614206149     0.327591403369    -1.100557510234     1.007825032230
         H            4.012653206149    -1.437238596631    -0.878505510234     1.007825032230
         H            3.859254206149    -0.359130596631     0.532535489766     1.007825032230
         H           -1.203696793851     2.777447403369    -0.468353510234     1.007825032230

  Basis Set: AUG-CC-PVTZ
    Blend: AUG-CC-PVTZ
  Basis Set: (AUG-CC-PVTZ AUX)
    Blend: AUG-CC-PVTZ-JKFIT
	 Reference Energy          =    -512.5520899499811094 [Eh]
	 Singles Energy            =      -0.0000000000000000 [Eh]
	 Same-Spin Energy          =      -0.5370476646512286 [Eh]
	 Opposite-Spin Energy      =      -1.6460586688578251 [Eh]
	 Correlation Energy        =      -2.1831063335090537 [Eh]
	 Total Energy              =    -514.7351962834901542 [Eh]

	 ================> DF-SCS-MP2 Energies <==================
	-----------------------------------------------------------
	 SCS Same-Spin Scale       =       0.3333333333333333 [-]
	 SCS Opposite-Spin Scale   =       1.2000000000000000 [-]
	 SCS Same-Spin Energy      =      -0.1790158882170762 [Eh]
	 SCS Opposite-Spin Energy  =      -1.9752704026293901 [Eh]
	 SCS Correlation Energy    =      -2.1542862908464664 [Eh]
	 SCS Total Energy          =    -514.7063762408275807 [Eh]
	-----------------------------------------------------------

  Dipole Moment: [D]
     X:    -1.7089      Y:    -1.5804      Z:    -2.9739     Total:     3.7765

*** Psi4 exiting successfully. Buy a developer a beer!
