                               Psi4 1.4a3.dev225

  ==> Input File <==

--------------------------------------------------------------------------
#psi4
#
memory 32 gb

molecule  {
0 1
  O       -0.4983720     2.1660820    -0.3008080
  O        1.7439460     0.8852250     1.1595980
  N        2.0846670    -0.6693810    -0.4855240
  C       -0.1747200    -0.1425440     0.1301780
  C       -1.0501490     0.9240530    -0.1297870
  C       -0.6950920    -1.4344860     0.2644570
  C        1.2926210     0.1057900     0.3196980
  C       -2.4223480     0.6871570    -0.2466200
  C       -2.0666220    -1.6719060     0.1573390
  C       -2.9283400    -0.6051620    -0.0964900
  C        3.5272930    -0.5029810    -0.4769650
  H       -0.0118380    -2.2529100     0.4809780
  H       -3.0973410     1.5164000    -0.4561860
  H       -2.4584240    -2.6782030     0.2778980
  H       -3.9991860    -0.7724420    -0.1829770
  H        1.6477640    -1.1074140    -1.2860730
  H        3.8625190     0.3920536    -1.1084387
  H        3.9959260    -1.4118430    -0.8588240
  H        3.8425270    -0.3337350     0.5522170
  H       -1.2204240     2.8028430    -0.4486720
units angstrom
no_reorient  #important for SAPT in psi4, default
symmetry c1  #important for SAPT in psi4, default
}

set PROPERTIES_ORIGIN ["COM"]
properties('MP2/aug-cc-pvtz', properties = ['dipole'])
--------------------------------------------------------------------------

    Molecular point group: c1
  Charge       = 0
  Multiplicity = 1
  Basis Set: AUG-CC-PVTZ
    Blend: AUG-CC-PVTZ
  Basis Set: (AUG-CC-PVTZ AUX)
    Blend: AUG-CC-PVTZ-JKFIT

    Orbital Energies [Eh]
    ---------------------

    Doubly Occupied:

       1A    -20.597844     2A    -20.513524     3A    -15.584700
       4A    -11.350367     5A    -11.320564     6A    -11.261919
       7A    -11.257536     8A    -11.256899     9A    -11.249709
      10A    -11.246696    11A    -11.240564    12A     -1.410066
      13A     -1.367373    14A     -1.225629    15A     -1.160180
      16A     -1.046741    17A     -1.017835    18A     -0.947261
      19A     -0.865004    20A     -0.843899    21A     -0.783253
      22A     -0.742400    23A     -0.723697    24A     -0.675292
      25A     -0.647945    26A     -0.634922    27A     -0.617224
      28A     -0.610671    29A     -0.595368    30A     -0.586030
      31A     -0.575557    32A     -0.545902    33A     -0.534985
      34A     -0.521867    35A     -0.510031    36A     -0.489629
      37A     -0.421775    38A     -0.388106    39A     -0.354519
      40A     -0.326286

  @DF-RHF Final Energy:  -512.54997005493419

   => Energetics <=

    Nuclear Repulsion Energy =            586.9497701782205468
    One-Electron Energy =               -1862.8999402568365440
    Two-Electron Energy =                 763.4002000236816912
    Total Energy =                       -512.5499700549341924
  Basis Set: (AUG-CC-PVTZ AUX)
    Blend: AUG-CC-PVTZ-RI
    Molecular point group: c1

    Geometry (in Angstrom), charge = 0, multiplicity = 1:

       Center              X                  Y                   Z               Mass
    ------------   -----------------  -----------------  -----------------  -----------------
         O           -0.481742411824     2.140425768986    -0.320305624580    15.994914619570
         O            1.760575588176     0.859568768986     1.140100375420    15.994914619570
         N            2.101296588176    -0.695037231014    -0.505021624580    14.003074004430
         C           -0.158090411824    -0.168200231014     0.110680375420    12.000000000000
         C           -1.033519411824     0.898396768986    -0.149284624580    12.000000000000
         C           -0.678462411824    -1.460142231014     0.244959375420    12.000000000000
         C            1.309250588176     0.080133768986     0.300200375420    12.000000000000
         C           -2.405718411824     0.661500768986    -0.266117624580    12.000000000000
         C           -2.049992411824    -1.697562231014     0.137841375420    12.000000000000
         C           -2.911710411824    -0.630818231014    -0.115987624580    12.000000000000
         C            3.543922588176    -0.528637231014    -0.496462624580    12.000000000000
         H            0.004791588176    -2.278566231014     0.461480375420     1.007825032230
         H           -3.080711411824     1.490743768986    -0.475683624580     1.007825032230
         H           -2.441794411824    -2.703859231014     0.258400375420     1.007825032230
         H           -3.982556411824    -0.798098231014    -0.202474624580     1.007825032230
         H            1.664393588176    -1.133070231014    -1.305570624580     1.007825032230
         H            3.879148588176     0.366397368986    -1.127936324580     1.007825032230
         H            4.012555588176    -1.437499231014    -0.878321624580     1.007825032230
         H            3.859156588176    -0.359391231014     0.532719375420     1.007825032230
         H           -1.203794411824     2.777186768986    -0.468169624580     1.007825032230

  Basis Set: AUG-CC-PVTZ
    Blend: AUG-CC-PVTZ
  Basis Set: (AUG-CC-PVTZ AUX)
    Blend: AUG-CC-PVTZ-JKFIT
	 Reference Energy          =    -512.5499700549341924 [Eh]
	 Singles Energy            =      -0.0000000000000000 [Eh]
	 Same-Spin Energy          =      -0.5370548453211058 [Eh]
	 Opposite-Spin Energy      =      -1.6463931778879703 [Eh]
	 Correlation Energy        =      -2.1834480232090763 [Eh]
	 Total Energy              =    -514.7334180781432451 [Eh]

	 ================> DF-SCS-MP2 Energies <==================
	-----------------------------------------------------------
	 SCS Same-Spin Scale       =       0.3333333333333333 [-]
	 SCS Opposite-Spin Scale   =       1.2000000000000000 [-]
	 SCS Same-Spin Energy      =      -0.1790182817737019 [Eh]
	 SCS Opposite-Spin Energy  =      -1.9756718134655644 [Eh]
	 SCS Correlation Energy    =      -2.1546900952392662 [Eh]
	 SCS Total Energy          =    -514.7046601501734813 [Eh]
	-----------------------------------------------------------

  Dipole Moment: [D]
     X:    -1.7444      Y:    -1.5965      Z:    -2.9523     Total:     3.7826

*** Psi4 exiting successfully. Buy a developer a beer!
