                               Psi4 1.4a3.dev225

  ==> Input File <==

--------------------------------------------------------------------------
#psi4
#
memory 32 gb

molecule  {
0 1
  O       -0.4983720     2.1660820    -0.3008080
  O        1.7439460     0.8852250     1.1595980
  N        2.0846670    -0.6693810    -0.4855240
  C       -0.1747200    -0.1425440     0.1301780
  C       -1.0501490     0.9240530    -0.1297870
  C       -0.6950920    -1.4344860     0.2644570
  C        1.2926210     0.1057900     0.3196980
  C       -2.4223480     0.6871570    -0.2466200
  C       -2.0666220    -1.6719060     0.1573390
  C       -2.9283400    -0.6051620    -0.0964900
  C        3.5272930    -0.5029810    -0.4769650
  H       -0.0118380    -2.2529100     0.4809780
  H       -3.0973410     1.5164000    -0.4561860
  H       -2.4584240    -2.6782030     0.2778980
  H       -3.9991860    -0.7724420    -0.1829770
  H        1.6477640    -1.1074140    -1.2860730
  H        3.8478870     0.3529870    -1.0808760
  H        4.0817923    -1.5783711    -0.9287909
  H        3.8425270    -0.3337350     0.5522170
  H       -1.2204240     2.8028430    -0.4486720
units angstrom
no_reorient  #important for SAPT in psi4, default
symmetry c1  #important for SAPT in psi4, default
}

set PROPERTIES_ORIGIN ["COM"]
properties('MP2/aug-cc-pvtz', properties = ['dipole'])
--------------------------------------------------------------------------

    Molecular point group: c1
  Charge       = 0
  Multiplicity = 1
  Basis Set: AUG-CC-PVTZ
    Blend: AUG-CC-PVTZ
  Basis Set: (AUG-CC-PVTZ AUX)
    Blend: AUG-CC-PVTZ-JKFIT

    Orbital Energies [Eh]
    ---------------------

    Doubly Occupied:

       1A    -20.598554     2A    -20.514906     3A    -15.586697
       4A    -11.352131     5A    -11.321308     6A    -11.279257
       7A    -11.258196     8A    -11.257516     9A    -11.250533
      10A    -11.247266    11A    -11.241091    12A     -1.410796
      13A     -1.368970    14A     -1.226760    15A     -1.160813
      16A     -1.047128    17A     -1.018438    18A     -0.940242
      19A     -0.864985    20A     -0.843450    21A     -0.784819
      22A     -0.742482    23A     -0.722020    24A     -0.676108
      25A     -0.647956    26A     -0.637590    27A     -0.620632
      28A     -0.612147    29A     -0.595975    30A     -0.584379
      31A     -0.573811    32A     -0.537580    33A     -0.526780
      34A     -0.513719    35A     -0.511293    36A     -0.489743
      37A     -0.423184    38A     -0.389309    39A     -0.355194
      40A     -0.326927

  @DF-RHF Final Energy:  -512.53185972650840

   => Energetics <=

    Nuclear Repulsion Energy =            586.3253235561008978
    One-Electron Energy =               -1861.5929932304095473
    Two-Electron Energy =                 762.7358099478003624
    Total Energy =                       -512.5318597265084009
  Basis Set: (AUG-CC-PVTZ AUX)
    Blend: AUG-CC-PVTZ-RI
    Molecular point group: c1

    Geometry (in Angstrom), charge = 0, multiplicity = 1:

       Center              X                  Y                   Z               Mass
    ------------   -----------------  -----------------  -----------------  -----------------
         O           -0.482217654303     2.141797402242    -0.320022723265    15.994914619570
         O            1.760100345697     0.860940402242     1.140383276735    15.994914619570
         N            2.100821345697    -0.693665597758    -0.504738723265    14.003074004430
         C           -0.158565654303    -0.166828597758     0.110963276735    12.000000000000
         C           -1.033994654303     0.899768402242    -0.149001723265    12.000000000000
         C           -0.678937654303    -1.458770597758     0.245242276735    12.000000000000
         C            1.308775345697     0.081505402242     0.300483276735    12.000000000000
         C           -2.406193654303     0.662872402242    -0.265834723265    12.000000000000
         C           -2.050467654303    -1.696190597758     0.138124276735    12.000000000000
         C           -2.912185654303    -0.629446597758    -0.115704723265    12.000000000000
         C            3.543447345697    -0.527265597758    -0.496179723265    12.000000000000
         H            0.004316345697    -2.277194597758     0.461763276735     1.007825032230
         H           -3.081186654303     1.492115402242    -0.475400723265     1.007825032230
         H           -2.442269654303    -2.702487597758     0.258683276735     1.007825032230
         H           -3.983031654303    -0.796726597758    -0.202191723265     1.007825032230
         H            1.663918345697    -1.131698597758    -1.305287723265     1.007825032230
         H            3.864041345697     0.328702402242    -1.100090723265     1.007825032230
         H            4.097946645697    -1.602655697758    -0.948005623265     1.007825032230
         H            3.858681345697    -0.358019597758     0.533002276735     1.007825032230
         H           -1.204269654303     2.778558402242    -0.467886723265     1.007825032230

  Basis Set: AUG-CC-PVTZ
    Blend: AUG-CC-PVTZ
  Basis Set: (AUG-CC-PVTZ AUX)
    Blend: AUG-CC-PVTZ-JKFIT
	 Reference Energy          =    -512.5318597265084009 [Eh]
	 Singles Energy            =      -0.0000000000000000 [Eh]
	 Same-Spin Energy          =      -0.5369772149113613 [Eh]
	 Opposite-Spin Energy      =      -1.6475887112182108 [Eh]
	 Correlation Energy        =      -2.1845659261295722 [Eh]
	 Total Energy              =    -514.7164256526380086 [Eh]

	 ================> DF-SCS-MP2 Energies <==================
	-----------------------------------------------------------
	 SCS Same-Spin Scale       =       0.3333333333333333 [-]
	 SCS Opposite-Spin Scale   =       1.2000000000000000 [-]
	 SCS Same-Spin Energy      =      -0.1789924049704538 [Eh]
	 SCS Opposite-Spin Energy  =      -1.9771064534618530 [Eh]
	 SCS Correlation Energy    =      -2.1560988584323066 [Eh]
	 SCS Total Energy          =    -514.6879585849407022 [Eh]
	-----------------------------------------------------------

  Dipole Moment: [D]
     X:    -1.8429      Y:    -1.4848      Z:    -2.9215     Total:     3.7598

*** Psi4 exiting successfully. Buy a developer a beer!
