                               Psi4 1.4a3.dev225

  ==> Input File <==

--------------------------------------------------------------------------
#psi4
#
memory 32 gb

molecule  {
0 1
  O       -0.4983720     2.1660820    -0.3008080
  O        1.7439460     0.8852250     1.1595980
  N        2.0846670    -0.6693810    -0.4855240
  C       -0.1747200    -0.1425440     0.1301780
  C       -1.0501490     0.9240530    -0.1297870
  C       -0.6950920    -1.4344860     0.2644570
  C        1.2926210     0.1057900     0.3196980
  C       -2.4223480     0.6871570    -0.2466200
  C       -2.0666220    -1.6719060     0.1573390
  C       -2.9283400    -0.6051620    -0.0964900
  C        3.4279534    -0.5144393    -0.4775544
  H       -0.0118380    -2.2529100     0.4809780
  H       -3.0973410     1.5164000    -0.4561860
  H       -2.4584240    -2.6782030     0.2778980
  H       -3.9991860    -0.7724420    -0.1829770
  H        1.6477640    -1.1074140    -1.2860730
  H        3.8478870     0.3529870    -1.0808760
  H        3.9959260    -1.4118430    -0.8588240
  H        3.8425270    -0.3337350     0.5522170
  H       -1.2204240     2.8028430    -0.4486720
units angstrom
no_reorient  #important for SAPT in psi4, default
symmetry c1  #important for SAPT in psi4, default
}

set PROPERTIES_ORIGIN ["COM"]
properties('MP2/aug-cc-pvtz', properties = ['dipole'])
--------------------------------------------------------------------------

    Molecular point group: c1
  Charge       = 0
  Multiplicity = 1
  Basis Set: AUG-CC-PVTZ
    Blend: AUG-CC-PVTZ
  Basis Set: (AUG-CC-PVTZ AUX)
    Blend: AUG-CC-PVTZ-JKFIT

    Orbital Energies [Eh]
    ---------------------

    Doubly Occupied:

       1A    -20.599205     2A    -20.517558     3A    -15.586095
       4A    -11.353367     5A    -11.322183     6A    -11.259295
       7A    -11.258369     8A    -11.256465     9A    -11.251470
      10A    -11.248077    11A    -11.242006    12A     -1.411528
      13A     -1.373552    14A     -1.250153    15A     -1.162506
      16A     -1.050490    17A     -1.019386    18A     -0.948707
      19A     -0.865693    20A     -0.843944    21A     -0.791300
      22A     -0.744953    23A     -0.728467    24A     -0.677246
      25A     -0.665955    26A     -0.642137    27A     -0.621953
      28A     -0.615558    29A     -0.597075    30A     -0.592685
      31A     -0.580147    32A     -0.535552    33A     -0.523474
      34A     -0.519361    35A     -0.507176    36A     -0.489668
      37A     -0.425802    38A     -0.384356    39A     -0.356281
      40A     -0.327766

  @DF-RHF Final Energy:  -512.54075485377552

   => Energetics <=

    Nuclear Repulsion Energy =            589.1329297853666276
    One-Electron Energy =               -1867.0534464945289983
    Two-Electron Energy =                 765.3797618553867323
    Total Energy =                       -512.5407548537755247
  Basis Set: (AUG-CC-PVTZ AUX)
    Blend: AUG-CC-PVTZ-RI
    Molecular point group: c1

    Geometry (in Angstrom), charge = 0, multiplicity = 1:

       Center              X                  Y                   Z               Mass
    ------------   -----------------  -----------------  -----------------  -----------------
         O           -0.473753565639     2.141596615009    -0.320442690135    15.994914619570
         O            1.768564434361     0.860739615009     1.139963309865    15.994914619570
         N            2.109285434361    -0.693866384991    -0.505158690135    14.003074004430
         C           -0.150101565639    -0.167029384991     0.110543309865    12.000000000000
         C           -1.025530565639     0.899567615009    -0.149421690135    12.000000000000
         C           -0.670473565639    -1.458971384991     0.244822309865    12.000000000000
         C            1.317239434361     0.081304615009     0.300063309865    12.000000000000
         C           -2.397729565639     0.662671615009    -0.266254690135    12.000000000000
         C           -2.042003565639    -1.696391384991     0.137704309865    12.000000000000
         C           -2.903721565639    -0.629647384991    -0.116124690135    12.000000000000
         C            3.452571834361    -0.538924684991    -0.497189090135    12.000000000000
         H            0.012780434361    -2.277395384991     0.461343309865     1.007825032230
         H           -3.072722565639     1.491914615009    -0.475820690135     1.007825032230
         H           -2.433805565639    -2.702688384991     0.258263309865     1.007825032230
         H           -3.974567565639    -0.796927384991    -0.202611690135     1.007825032230
         H            1.672382434361    -1.131899384991    -1.305707690135     1.007825032230
         H            3.872505434361     0.328501615009    -1.100510690135     1.007825032230
         H            4.020544434361    -1.436328384991    -0.878458690135     1.007825032230
         H            3.867145434361    -0.358220384991     0.532582309865     1.007825032230
         H           -1.195805565639     2.778357615009    -0.468306690135     1.007825032230

  Basis Set: AUG-CC-PVTZ
    Blend: AUG-CC-PVTZ
  Basis Set: (AUG-CC-PVTZ AUX)
    Blend: AUG-CC-PVTZ-JKFIT
	 Reference Energy          =    -512.5407548537755247 [Eh]
	 Singles Energy            =      -0.0000000000000000 [Eh]
	 Same-Spin Energy          =      -0.5379678246489412 [Eh]
	 Opposite-Spin Energy      =      -1.6466558817957129 [Eh]
	 Correlation Energy        =      -2.1846237064446541 [Eh]
	 Total Energy              =    -514.7253785602201788 [Eh]

	 ================> DF-SCS-MP2 Energies <==================
	-----------------------------------------------------------
	 SCS Same-Spin Scale       =       0.3333333333333333 [-]
	 SCS Opposite-Spin Scale   =       1.2000000000000000 [-]
	 SCS Same-Spin Energy      =      -0.1793226082163137 [Eh]
	 SCS Opposite-Spin Energy  =      -1.9759870581548553 [Eh]
	 SCS Correlation Energy    =      -2.1553096663711688 [Eh]
	 SCS Total Energy          =    -514.6960645201467059 [Eh]
	-----------------------------------------------------------

  Dipole Moment: [D]
     X:    -2.0365      Y:    -1.5862      Z:    -2.9011     Total:     3.8832

*** Psi4 exiting successfully. Buy a developer a beer!
