                               Psi4 1.4a3.dev225

  ==> Input File <==

--------------------------------------------------------------------------
#psi4
#
memory 32 gb

molecule  {
0 1
  O       -0.4983720     2.1660820    -0.3008080
  O        1.7439460     0.8852250     1.1595980
  N        2.0846670    -0.6693810    -0.4855240
  C       -0.1747200    -0.1425440     0.1301780
  C       -1.0501490     0.9240530    -0.1297870
  C       -0.6950920    -1.4344860     0.2644570
  C        1.1806120     0.0349785     0.2649236
  C       -2.4223480     0.6871570    -0.2466200
  C       -2.0666220    -1.6719060     0.1573390
  C       -2.9283400    -0.6051620    -0.0964900
  C        3.5272930    -0.5029810    -0.4769650
  H       -0.0118380    -2.2529100     0.4809780
  H       -3.0973410     1.5164000    -0.4561860
  H       -2.4584240    -2.6782030     0.2778980
  H       -3.9991860    -0.7724420    -0.1829770
  H        1.6477640    -1.1074140    -1.2860730
  H        3.8478870     0.3529870    -1.0808760
  H        3.9959260    -1.4118430    -0.8588240
  H        3.8425270    -0.3337350     0.5522170
  H       -1.2204240     2.8028430    -0.4486720
units angstrom
no_reorient  #important for SAPT in psi4, default
symmetry c1  #important for SAPT in psi4, default
}

set PROPERTIES_ORIGIN ["COM"]
properties('MP2/aug-cc-pvtz', properties = ['dipole'])
--------------------------------------------------------------------------

    Molecular point group: c1
  Charge       = 0
  Multiplicity = 1
  Basis Set: AUG-CC-PVTZ
    Blend: AUG-CC-PVTZ
  Basis Set: (AUG-CC-PVTZ AUX)
    Blend: AUG-CC-PVTZ-JKFIT

    Orbital Energies [Eh]
    ---------------------

    Doubly Occupied:

       1A    -20.601787     2A    -20.492365     3A    -15.592021
       4A    -11.351770     5A    -11.330840     6A    -11.266558
       7A    -11.265344     8A    -11.258549     9A    -11.252589
      10A    -11.249830    11A    -11.246247    12A     -1.413832
      13A     -1.309599    14A     -1.201686    15A     -1.170657
      16A     -1.068445    17A     -1.025394    18A     -0.957388
      19A     -0.882237    20A     -0.858161    21A     -0.780678
      22A     -0.746930    23A     -0.731115    24A     -0.681367
      25A     -0.655956    26A     -0.634756    27A     -0.621105
      28A     -0.608744    29A     -0.598695    30A     -0.590429
      31A     -0.566763    32A     -0.540469    33A     -0.528843
      34A     -0.520320    35A     -0.502401    36A     -0.480329
      37A     -0.406362    38A     -0.373474    39A     -0.358070
      40A     -0.331898

  @DF-RHF Final Energy:  -512.51053180055601

   => Energetics <=

    Nuclear Repulsion Energy =            587.5271400052027957
    One-Electron Energy =               -1863.9673341692819122
    Two-Electron Energy =                 763.9296623635229935
    Total Energy =                       -512.5105318005560093
  Basis Set: (AUG-CC-PVTZ AUX)
    Blend: AUG-CC-PVTZ-RI
    Molecular point group: c1

    Geometry (in Angstrom), charge = 0, multiplicity = 1:

       Center              X                  Y                   Z               Mass
    ------------   -----------------  -----------------  -----------------  -----------------
         O           -0.472747147989     2.146311448231    -0.316138402614    15.994914619570
         O            1.769570852011     0.865454448231     1.144267597386    15.994914619570
         N            2.110291852011    -0.689151551769    -0.500854402614    14.003074004430
         C           -0.149095147989    -0.162314551769     0.114847597386    12.000000000000
         C           -1.024524147989     0.904282448231    -0.145117402614    12.000000000000
         C           -0.669467147989    -1.454256551769     0.249126597386    12.000000000000
         C            1.206236852011     0.015207948231     0.249593197386    12.000000000000
         C           -2.396723147989     0.667386448231    -0.261950402614    12.000000000000
         C           -2.040997147989    -1.691676551769     0.142008597386    12.000000000000
         C           -2.902715147989    -0.624932551769    -0.111820402614    12.000000000000
         C            3.552917852011    -0.522751551769    -0.492295402614    12.000000000000
         H            0.013786852011    -2.272680551769     0.465647597386     1.007825032230
         H           -3.071716147989     1.496629448231    -0.471516402614     1.007825032230
         H           -2.432799147989    -2.697973551769     0.262567597386     1.007825032230
         H           -3.973561147989    -0.792212551769    -0.198307402614     1.007825032230
         H            1.673388852011    -1.127184551769    -1.301403402614     1.007825032230
         H            3.873511852011     0.333216448231    -1.096206402614     1.007825032230
         H            4.021550852011    -1.431613551769    -0.874154402614     1.007825032230
         H            3.868151852011    -0.353505551769     0.536886597386     1.007825032230
         H           -1.194799147989     2.783072448231    -0.464002402614     1.007825032230

  Basis Set: AUG-CC-PVTZ
    Blend: AUG-CC-PVTZ
  Basis Set: (AUG-CC-PVTZ AUX)
    Blend: AUG-CC-PVTZ-JKFIT
	 Reference Energy          =    -512.5105318005560093 [Eh]
	 Singles Energy            =      -0.0000000000000000 [Eh]
	 Same-Spin Energy          =      -0.5413857030055540 [Eh]
	 Opposite-Spin Energy      =      -1.6544052115544803 [Eh]
	 Correlation Energy        =      -2.1957909145600345 [Eh]
	 Total Energy              =    -514.7063227151160163 [Eh]

	 ================> DF-SCS-MP2 Energies <==================
	-----------------------------------------------------------
	 SCS Same-Spin Scale       =       0.3333333333333333 [-]
	 SCS Opposite-Spin Scale   =       1.2000000000000000 [-]
	 SCS Same-Spin Energy      =      -0.1804619010018513 [Eh]
	 SCS Opposite-Spin Energy  =      -1.9852862538653762 [Eh]
	 SCS Correlation Energy    =      -2.1657481548672273 [Eh]
	 SCS Total Energy          =    -514.6762799554231833 [Eh]
	-----------------------------------------------------------

  Dipole Moment: [D]
     X:    -2.2781      Y:    -1.9044      Z:    -3.3561     Total:     4.4811

*** Psi4 exiting successfully. Buy a developer a beer!
