                               Psi4 1.4a3.dev225

  ==> Input File <==

--------------------------------------------------------------------------
#psi4
#
memory 32 gb

molecule  {
0 1
  O       -0.4983720     2.1660820    -0.3008080
  O        1.7439460     0.8852250     1.1595980
  N        2.0846670    -0.6693810    -0.4855240
  C       -0.1747200    -0.1425440     0.1301780
  C       -1.0501490     0.9240530    -0.1297870
  C       -0.6950920    -1.4344860     0.2644570
  C        1.2926210     0.1057900     0.3196980
  C       -2.4223480     0.6871570    -0.2466200
  C       -2.0666220    -1.6719060     0.1573390
  C       -2.9283400    -0.6051620    -0.0964900
  C        3.5272930    -0.5029810    -0.4769650
  H       -0.0118380    -2.2529100     0.4809780
  H       -3.0973410     1.5164000    -0.4561860
  H       -2.4584240    -2.6782030     0.2778980
  H       -3.9991860    -0.7724420    -0.1829770
  H        1.6477640    -1.1074140    -1.2860730
  H        3.8186230     0.2748537    -1.0257506
  H        3.9959260    -1.4118430    -0.8588240
  H        3.8425270    -0.3337350     0.5522170
  H       -1.2204240     2.8028430    -0.4486720
units angstrom
no_reorient  #important for SAPT in psi4, default
symmetry c1  #important for SAPT in psi4, default
}

set PROPERTIES_ORIGIN ["COM"]
properties('MP2/aug-cc-pvtz', properties = ['dipole'])
--------------------------------------------------------------------------

    Molecular point group: c1
  Charge       = 0
  Multiplicity = 1
  Basis Set: AUG-CC-PVTZ
    Blend: AUG-CC-PVTZ
  Basis Set: (AUG-CC-PVTZ AUX)
    Blend: AUG-CC-PVTZ-JKFIT

    Orbital Energies [Eh]
    ---------------------

    Doubly Occupied:

       1A    -20.597542     2A    -20.512469     3A    -15.582665
       4A    -11.349549     5A    -11.320121     6A    -11.257029
       7A    -11.256499     8A    -11.249166     9A    -11.246318
      10A    -11.243712    11A    -11.240153    12A     -1.409744
      13A     -1.366542    14A     -1.225172    15A     -1.159791
      16A     -1.046940    17A     -1.017443    18A     -0.958588
      19A     -0.865818    20A     -0.845178    21A     -0.783307
      22A     -0.742059    23A     -0.723776    24A     -0.675192
      25A     -0.651867    26A     -0.640376    27A     -0.624074
      28A     -0.613501    29A     -0.596111    30A     -0.586198
      31A     -0.574873    32A     -0.544264    33A     -0.537765
      34A     -0.523882    35A     -0.512465    36A     -0.489907
      37A     -0.421060    38A     -0.390068    39A     -0.354053
      40A     -0.325898

  @DF-RHF Final Energy:  -512.54625440861901

   => Energetics <=

    Nuclear Repulsion Energy =            587.6294866792675293
    One-Electron Energy =               -1864.2292088232156857
    Two-Electron Energy =                 764.0534677353291499
    Total Energy =                       -512.5462544086190064
  Basis Set: (AUG-CC-PVTZ AUX)
    Blend: AUG-CC-PVTZ-RI
    Molecular point group: c1

    Geometry (in Angstrom), charge = 0, multiplicity = 1:

       Center              X                  Y                   Z               Mass
    ------------   -----------------  -----------------  -----------------  -----------------
         O           -0.481449557906     2.141207672802    -0.320857281543    15.994914619570
         O            1.760868442094     0.860350672802     1.139548718457    15.994914619570
         N            2.101589442094    -0.694255327198    -0.505573281543    14.003074004430
         C           -0.157797557906    -0.167418327198     0.110128718457    12.000000000000
         C           -1.033226557906     0.899178672802    -0.149836281543    12.000000000000
         C           -0.678169557906    -1.459360327198     0.244407718457    12.000000000000
         C            1.309543442094     0.080915672802     0.299648718457    12.000000000000
         C           -2.405425557906     0.662282672802    -0.266669281543    12.000000000000
         C           -2.049699557906    -1.696780327198     0.137289718457    12.000000000000
         C           -2.911417557906    -0.630036327198    -0.116539281543    12.000000000000
         C            3.544215442094    -0.527855327198    -0.497014281543    12.000000000000
         H            0.005084442094    -2.277784327198     0.460928718457     1.007825032230
         H           -3.080418557906     1.491525672802    -0.476235281543     1.007825032230
         H           -2.441501557906    -2.703077327198     0.257848718457     1.007825032230
         H           -3.982263557906    -0.797316327198    -0.203026281543     1.007825032230
         H            1.664686442094    -1.132288327198    -1.306122281543     1.007825032230
         H            3.835545442094     0.249979372802    -1.045799881543     1.007825032230
         H            4.012848442094    -1.436717327198    -0.878873281543     1.007825032230
         H            3.859449442094    -0.358609327198     0.532167718457     1.007825032230
         H           -1.203501557906     2.777968672802    -0.468721281543     1.007825032230

  Basis Set: AUG-CC-PVTZ
    Blend: AUG-CC-PVTZ
  Basis Set: (AUG-CC-PVTZ AUX)
    Blend: AUG-CC-PVTZ-JKFIT
	 Reference Energy          =    -512.5462544086190064 [Eh]
	 Singles Energy            =      -0.0000000000000000 [Eh]
	 Same-Spin Energy          =      -0.5370657200773280 [Eh]
	 Opposite-Spin Energy      =      -1.6455807137937271 [Eh]
	 Correlation Energy        =      -2.1826464338710552 [Eh]
	 Total Energy              =    -514.7289008424900203 [Eh]

	 ================> DF-SCS-MP2 Energies <==================
	-----------------------------------------------------------
	 SCS Same-Spin Scale       =       0.3333333333333333 [-]
	 SCS Opposite-Spin Scale   =       1.2000000000000000 [-]
	 SCS Same-Spin Energy      =      -0.1790219066924427 [Eh]
	 SCS Opposite-Spin Energy  =      -1.9746968565524723 [Eh]
	 SCS Correlation Energy    =      -2.1537187632449148 [Eh]
	 SCS Total Energy          =    -514.6999731718639168 [Eh]
	-----------------------------------------------------------

  Dipole Moment: [D]
     X:    -1.6525      Y:    -1.5571      Z:    -3.0065     Total:     3.7676

*** Psi4 exiting successfully. Buy a developer a beer!
