                               Psi4 1.4a3.dev225

  ==> Input File <==

--------------------------------------------------------------------------
#psi4
#
memory 32 gb

molecule  {
0 1
  O       -0.4983720     2.1660820    -0.3008080
  O        1.7439460     0.8852250     1.1595980
  N        2.0846670    -0.6693810    -0.4855240
  C       -0.1747200    -0.1425440     0.1301780
  C       -1.0501490     0.9240530    -0.1297870
  C       -0.6950920    -1.4344860     0.2644570
  C        1.2926210     0.1057900     0.3196980
  C       -2.4223480     0.6871570    -0.2466200
  C       -2.0666220    -1.6719060     0.1573390
  C       -2.9283400    -0.6051620    -0.0964900
  C        3.5272930    -0.5029810    -0.4769650
  H        0.0195643    -2.2905247     0.4909293
  H       -3.0973410     1.5164000    -0.4561860
  H       -2.4584240    -2.6782030     0.2778980
  H       -3.9991860    -0.7724420    -0.1829770
  H        1.6477640    -1.1074140    -1.2860730
  H        3.8478870     0.3529870    -1.0808760
  H        3.9959260    -1.4118430    -0.8588240
  H        3.8425270    -0.3337350     0.5522170
  H       -1.2204240     2.8028430    -0.4486720
units angstrom
no_reorient  #important for SAPT in psi4, default
symmetry c1  #important for SAPT in psi4, default
}

set PROPERTIES_ORIGIN ["COM"]
properties('MP2/aug-cc-pvtz', properties = ['dipole'])
--------------------------------------------------------------------------

    Molecular point group: c1
  Charge       = 0
  Multiplicity = 1
  Basis Set: AUG-CC-PVTZ
    Blend: AUG-CC-PVTZ
  Basis Set: (AUG-CC-PVTZ AUX)
    Blend: AUG-CC-PVTZ-JKFIT

    Orbital Energies [Eh]
    ---------------------

    Doubly Occupied:

       1A    -20.597931     2A    -20.513107     3A    -15.583731
       4A    -11.350051     5A    -11.320728     6A    -11.262878
       7A    -11.257063     8A    -11.255901     9A    -11.249971
      10A    -11.246710    11A    -11.240822    12A     -1.410138
      13A     -1.367015    14A     -1.225202    15A     -1.159961
      16A     -1.046385    17A     -1.016983    18A     -0.950125
      19A     -0.863380    20A     -0.843886    21A     -0.783128
      22A     -0.739510    23A     -0.723077    24A     -0.674987
      25A     -0.648426    26A     -0.636054    27A     -0.617555
      28A     -0.609356    29A     -0.595926    30A     -0.585083
      31A     -0.575359    32A     -0.545143    33A     -0.535141
      34A     -0.521918    35A     -0.509667    36A     -0.490022
      37A     -0.421498    38A     -0.388626    39A     -0.354556
      40A     -0.326392

  @DF-RHF Final Energy:  -512.54956590633788

   => Energetics <=

    Nuclear Repulsion Energy =            586.9174264194379020
    One-Electron Energy =               -1862.8471998093018556
    Two-Electron Energy =                 763.3802074835259646
    Total Energy =                       -512.5495659063378753
  Basis Set: (AUG-CC-PVTZ AUX)
    Blend: AUG-CC-PVTZ-RI
    Molecular point group: c1

    Geometry (in Angstrom), charge = 0, multiplicity = 1:

       Center              X                  Y                   Z               Mass
    ------------   -----------------  -----------------  -----------------  -----------------
         O           -0.481854295550     2.140937351343    -0.320555900730    15.994914619570
         O            1.760463704450     0.860080351343     1.139850099270    15.994914619570
         N            2.101184704450    -0.694525648657    -0.505271900730    14.003074004430
         C           -0.158202295550    -0.167688648657     0.110430099270    12.000000000000
         C           -1.033631295550     0.898908351343    -0.149534900730    12.000000000000
         C           -0.678574295550    -1.459630648657     0.244709099270    12.000000000000
         C            1.309138704450     0.080645351343     0.299950099270    12.000000000000
         C           -2.405830295550     0.662012351343    -0.266367900730    12.000000000000
         C           -2.050104295550    -1.697050648657     0.137591099270    12.000000000000
         C           -2.911822295550    -0.630306648657    -0.116237900730    12.000000000000
         C            3.543810704450    -0.528125648657    -0.496712900730    12.000000000000
         H            0.036082004450    -2.315669348657     0.471181399270     1.007825032230
         H           -3.080823295550     1.491255351343    -0.475933900730     1.007825032230
         H           -2.441906295550    -2.703347648657     0.258150099270     1.007825032230
         H           -3.982668295550    -0.797586648657    -0.202724900730     1.007825032230
         H            1.664281704450    -1.132558648657    -1.305820900730     1.007825032230
         H            3.864404704450     0.327842351343    -1.100623900730     1.007825032230
         H            4.012443704450    -1.436987648657    -0.878571900730     1.007825032230
         H            3.859044704450    -0.358879648657     0.532469099270     1.007825032230
         H           -1.203906295550     2.777698351343    -0.468419900730     1.007825032230

  Basis Set: AUG-CC-PVTZ
    Blend: AUG-CC-PVTZ
  Basis Set: (AUG-CC-PVTZ AUX)
    Blend: AUG-CC-PVTZ-JKFIT
	 Reference Energy          =    -512.5495659063378753 [Eh]
	 Singles Energy            =      -0.0000000000000000 [Eh]
	 Same-Spin Energy          =      -0.5371851032008090 [Eh]
	 Opposite-Spin Energy      =      -1.6464844328581172 [Eh]
	 Correlation Energy        =      -2.1836695360589262 [Eh]
	 Total Energy              =    -514.7332354423967899 [Eh]

	 ================> DF-SCS-MP2 Energies <==================
	-----------------------------------------------------------
	 SCS Same-Spin Scale       =       0.3333333333333333 [-]
	 SCS Opposite-Spin Scale   =       1.2000000000000000 [-]
	 SCS Same-Spin Energy      =      -0.1790617010669363 [Eh]
	 SCS Opposite-Spin Energy  =      -1.9757813194297404 [Eh]
	 SCS Correlation Energy    =      -2.1548430204966769 [Eh]
	 SCS Total Energy          =    -514.7044089268345033 [Eh]
	-----------------------------------------------------------

  Dipole Moment: [D]
     X:    -1.7178      Y:    -1.5705      Z:    -2.9760     Total:     3.7781

*** Psi4 exiting successfully. Buy a developer a beer!
