                               Psi4 1.4a3.dev225

  ==> Input File <==

--------------------------------------------------------------------------
#psi4
#
memory 32 gb

molecule  {
0 1
  O       -0.4983720     2.1660820    -0.3008080
  O        1.7439460     0.8852250     1.1595980
  N        2.0846670    -0.6693810    -0.4855240
  C       -0.1747200    -0.1425440     0.1301780
  C       -1.0501490     0.9240530    -0.1297870
  C       -0.6950920    -1.4344860     0.2644570
  C        1.2926210     0.1057900     0.3196980
  C       -2.4223480     0.6871570    -0.2466200
  C       -2.0666220    -1.6719060     0.1573390
  C       -2.9283400    -0.6051620    -0.0964900
  C        3.5272930    -0.5029810    -0.4769650
  H       -0.0118380    -2.2529100     0.4809780
  H       -3.0973410     1.5164000    -0.4561860
  H       -2.4584240    -2.6782030     0.2778980
  H       -3.9991860    -0.7724420    -0.1829770
  H        1.6477640    -1.1074140    -1.2860730
  H        3.8478870     0.3529870    -1.0808760
  H        3.9959260    -1.4118430    -0.8588240
  H        3.8425270    -0.3337350     0.5522170
  H       -1.3686884     2.9335940    -0.4790340
units angstrom
no_reorient  #important for SAPT in psi4, default
symmetry c1  #important for SAPT in psi4, default
}

set PROPERTIES_ORIGIN ["COM"]
properties('MP2/aug-cc-pvtz', properties = ['dipole'])
--------------------------------------------------------------------------

    Molecular point group: c1
  Charge       = 0
  Multiplicity = 1
  Basis Set: AUG-CC-PVTZ
    Blend: AUG-CC-PVTZ
  Basis Set: (AUG-CC-PVTZ AUX)
    Blend: AUG-CC-PVTZ-JKFIT

    Orbital Energies [Eh]
    ---------------------

    Doubly Occupied:

       1A    -20.610360     2A    -20.512471     3A    -15.583276
       4A    -11.349343     5A    -11.318895     6A    -11.256682
       7A    -11.255780     8A    -11.255488     9A    -11.248622
      10A    -11.245096    11A    -11.239087    12A     -1.381497
      13A     -1.364283    14A     -1.224687    15A     -1.156891
      16A     -1.045299    17A     -1.012356    18A     -0.949051
      19A     -0.862255    20A     -0.834191    21A     -0.782171
      22A     -0.732245    23A     -0.704815    24A     -0.671509
      25A     -0.644374    26A     -0.635039    27A     -0.615856
      28A     -0.610675    29A     -0.591254    30A     -0.581978
      31A     -0.563637    32A     -0.544694    33A     -0.534246
      34A     -0.518578    35A     -0.509313    36A     -0.487736
      37A     -0.420623    38A     -0.388216    39A     -0.353541
      40A     -0.323977

  @DF-RHF Final Energy:  -512.51595614203973

   => Energetics <=

    Nuclear Repulsion Energy =            586.0137972800857824
    One-Electron Energy =               -1861.2193340798951340
    Two-Electron Energy =                 762.6895806577696248
    Total Energy =                       -512.5159561420397267
  Basis Set: (AUG-CC-PVTZ AUX)
    Blend: AUG-CC-PVTZ-RI
    Molecular point group: c1

    Geometry (in Angstrom), charge = 0, multiplicity = 1:

       Center              X                  Y                   Z               Mass
    ------------   -----------------  -----------------  -----------------  -----------------
         O           -0.480655641983     2.139814092848    -0.320286948938    15.994914619570
         O            1.761662358017     0.858957092848     1.140119051062    15.994914619570
         N            2.102383358017    -0.695648907152    -0.505002948938    14.003074004430
         C           -0.157003641983    -0.168811907152     0.110699051062    12.000000000000
         C           -1.032432641983     0.897785092848    -0.149265948938    12.000000000000
         C           -0.677375641983    -1.460753907152     0.244978051062    12.000000000000
         C            1.310337358017     0.079522092848     0.300219051062    12.000000000000
         C           -2.404631641983     0.660889092848    -0.266098948938    12.000000000000
         C           -2.048905641983    -1.698173907152     0.137860051062    12.000000000000
         C           -2.910623641983    -0.631429907152    -0.115968948938    12.000000000000
         C            3.545009358017    -0.529248907152    -0.496443948938    12.000000000000
         H            0.005878358017    -2.279177907152     0.461499051062     1.007825032230
         H           -3.079624641983     1.490132092848    -0.475664948938     1.007825032230
         H           -2.440707641983    -2.704470907152     0.258419051062     1.007825032230
         H           -3.981469641983    -0.798709907152    -0.202455948938     1.007825032230
         H            1.665480358017    -1.133681907152    -1.305551948938     1.007825032230
         H            3.865603358017     0.326719092848    -1.100354948938     1.007825032230
         H            4.013642358017    -1.438110907152    -0.878302948938     1.007825032230
         H            3.860243358017    -0.360002907152     0.532738051062     1.007825032230
         H           -1.350972041983     2.907326092848    -0.498512948938     1.007825032230

  Basis Set: AUG-CC-PVTZ
    Blend: AUG-CC-PVTZ
  Basis Set: (AUG-CC-PVTZ AUX)
    Blend: AUG-CC-PVTZ-JKFIT
	 Reference Energy          =    -512.5159561420397267 [Eh]
	 Singles Energy            =      -0.0000000000000000 [Eh]
	 Same-Spin Energy          =      -0.5395559525788145 [Eh]
	 Opposite-Spin Energy      =      -1.6529954365877479 [Eh]
	 Correlation Energy        =      -2.1925513891665624 [Eh]
	 Total Energy              =    -514.7085075312062372 [Eh]

	 ================> DF-SCS-MP2 Energies <==================
	-----------------------------------------------------------
	 SCS Same-Spin Scale       =       0.3333333333333333 [-]
	 SCS Opposite-Spin Scale   =       1.2000000000000000 [-]
	 SCS Same-Spin Energy      =      -0.1798519841929382 [Eh]
	 SCS Opposite-Spin Energy  =      -1.9835945239052974 [Eh]
	 SCS Correlation Energy    =      -2.1634465080982355 [Eh]
	 SCS Total Energy          =    -514.6794026501379449 [Eh]
	-----------------------------------------------------------

  Dipole Moment: [D]
     X:    -1.7975      Y:    -1.4044      Z:    -3.0019     Total:     3.7702

*** Psi4 exiting successfully. Buy a developer a beer!
