                               Psi4 1.4a3.dev225

  ==> Input File <==

--------------------------------------------------------------------------
#psi4
#
memory 32 gb

molecule  {
0 1
  O       -0.4983720     2.1660820    -0.3008080
  O        1.7439460     0.8852250     1.1595980
  N        2.0846670    -0.6693810    -0.4855240
  C       -0.1747200    -0.1425440     0.1301780
  C       -1.0501490     0.9240530    -0.1297870
  C       -0.6950920    -1.4344860     0.2644570
  C        1.2926210     0.1057900     0.3196980
  C       -2.4223480     0.6871570    -0.2466200
  C       -2.0666220    -1.6719060     0.1573390
  C       -2.9283400    -0.6051620    -0.0964900
  C        3.5272930    -0.5029810    -0.4769650
  H       -0.0118380    -2.2529100     0.4809780
  H       -3.0973410     1.5164000    -0.4561860
  H       -2.4584240    -2.6782030     0.2778980
  H       -4.0976747    -0.7878272    -0.1909315
  H        1.6477640    -1.1074140    -1.2860730
  H        3.8478870     0.3529870    -1.0808760
  H        3.9959260    -1.4118430    -0.8588240
  H        3.8425270    -0.3337350     0.5522170
  H       -1.2204240     2.8028430    -0.4486720
units angstrom
no_reorient  #important for SAPT in psi4, default
symmetry c1  #important for SAPT in psi4, default
}

set PROPERTIES_ORIGIN ["COM"]
properties('MP2/aug-cc-pvtz', properties = ['dipole'])
--------------------------------------------------------------------------

    Molecular point group: c1
  Charge       = 0
  Multiplicity = 1
  Basis Set: AUG-CC-PVTZ
    Blend: AUG-CC-PVTZ
  Basis Set: (AUG-CC-PVTZ AUX)
    Blend: AUG-CC-PVTZ-JKFIT

    Orbital Energies [Eh]
    ---------------------

    Doubly Occupied:

       1A    -20.598237     2A    -20.513379     3A    -15.584163
       4A    -11.350322     5A    -11.321088     6A    -11.267875
       7A    -11.258062     8A    -11.256160     9A    -11.249903
      10A    -11.247549    11A    -11.241398    12A     -1.410420
      13A     -1.367307    14A     -1.225586    15A     -1.160149
      16A     -1.045124    17A     -1.018285    18A     -0.949642
      19A     -0.862433    20A     -0.842992    21A     -0.782766
      22A     -0.741224    23A     -0.723109    24A     -0.670432
      25A     -0.645375    26A     -0.636028    27A     -0.616992
      28A     -0.613051    29A     -0.596200    30A     -0.582679
      31A     -0.575249    32A     -0.545411    33A     -0.535697
      34A     -0.517999    35A     -0.509422    36A     -0.490394
      37A     -0.421669    38A     -0.389057    39A     -0.354892
      40A     -0.326719

  @DF-RHF Final Energy:  -512.54468655109861

   => Energetics <=

    Nuclear Repulsion Energy =            586.6657597282979850
    One-Electron Energy =               -1862.3320090230690766
    Two-Electron Energy =                 763.1215627436725981
    Total Energy =                       -512.5446865510986072
  Basis Set: (AUG-CC-PVTZ AUX)
    Blend: AUG-CC-PVTZ-RI
    Molecular point group: c1

    Geometry (in Angstrom), charge = 0, multiplicity = 1:

       Center              X                  Y                   Z               Mass
    ------------   -----------------  -----------------  -----------------  -----------------
         O           -0.480987722554     2.140789046345    -0.320436441470    15.994914619570
         O            1.761330277446     0.859932046345     1.139969558530    15.994914619570
         N            2.102051277446    -0.694673953655    -0.505152441470    14.003074004430
         C           -0.157335722554    -0.167836953655     0.110549558530    12.000000000000
         C           -1.032764722554     0.898760046345    -0.149415441470    12.000000000000
         C           -0.677707722554    -1.459778953655     0.244828558530    12.000000000000
         C            1.310005277446     0.080497046345     0.300069558530    12.000000000000
         C           -2.404963722554     0.661864046345    -0.266248441470    12.000000000000
         C           -2.049237722554    -1.697198953655     0.137710558530    12.000000000000
         C           -2.910955722554    -0.630454953655    -0.116118441470    12.000000000000
         C            3.544677277446    -0.528273953655    -0.496593441470    12.000000000000
         H            0.005546277446    -2.278202953655     0.461349558530     1.007825032230
         H           -3.079956722554     1.491107046345    -0.475814441470     1.007825032230
         H           -2.441039722554    -2.703495953655     0.258269558530     1.007825032230
         H           -4.080290422554    -0.813120153655    -0.210559941470     1.007825032230
         H            1.665148277446    -1.132706953655    -1.305701441470     1.007825032230
         H            3.865271277446     0.327694046345    -1.100504441470     1.007825032230
         H            4.013310277446    -1.437135953655    -0.878452441470     1.007825032230
         H            3.859911277446    -0.359027953655     0.532588558530     1.007825032230
         H           -1.203039722554     2.777550046345    -0.468300441470     1.007825032230

  Basis Set: AUG-CC-PVTZ
    Blend: AUG-CC-PVTZ
  Basis Set: (AUG-CC-PVTZ AUX)
    Blend: AUG-CC-PVTZ-JKFIT
	 Reference Energy          =    -512.5446865510986072 [Eh]
	 Singles Energy            =      -0.0000000000000000 [Eh]
	 Same-Spin Energy          =      -0.5372672698573190 [Eh]
	 Opposite-Spin Energy      =      -1.6470083103550677 [Eh]
	 Correlation Energy        =      -2.1842755802123865 [Eh]
	 Total Energy              =    -514.7289621313110501 [Eh]

	 ================> DF-SCS-MP2 Energies <==================
	-----------------------------------------------------------
	 SCS Same-Spin Scale       =       0.3333333333333333 [-]
	 SCS Opposite-Spin Scale   =       1.2000000000000000 [-]
	 SCS Same-Spin Energy      =      -0.1790890899524397 [Eh]
	 SCS Opposite-Spin Energy  =      -1.9764099724260811 [Eh]
	 SCS Correlation Energy    =      -2.1554990623785208 [Eh]
	 SCS Total Energy          =    -514.7001856134771742 [Eh]
	-----------------------------------------------------------

  Dipole Moment: [D]
     X:    -1.6628      Y:    -1.5719      Z:    -2.9708     Total:     3.7499

*** Psi4 exiting successfully. Buy a developer a beer!
