                               Psi4 1.4a3.dev225

  ==> Input File <==

--------------------------------------------------------------------------
#psi4
#
memory 32 gb

molecule  {
0 1
  O       -0.4983720     2.1660820    -0.3008080
  O        1.7439460     0.8852250     1.1595980
  N        2.0846670    -0.6693810    -0.4855240
  C       -0.1747200    -0.1425440     0.1301780
  C       -1.1779062     0.9866166    -0.1477176
  C       -0.6950920    -1.4344860     0.2644570
  C        1.2926210     0.1057900     0.3196980
  C       -2.4223480     0.6871570    -0.2466200
  C       -2.0666220    -1.6719060     0.1573390
  C       -2.9283400    -0.6051620    -0.0964900
  C        3.5272930    -0.5029810    -0.4769650
  H       -0.0118380    -2.2529100     0.4809780
  H       -3.0973410     1.5164000    -0.4561860
  H       -2.4584240    -2.6782030     0.2778980
  H       -3.9991860    -0.7724420    -0.1829770
  H        1.6477640    -1.1074140    -1.2860730
  H        3.8478870     0.3529870    -1.0808760
  H        3.9959260    -1.4118430    -0.8588240
  H        3.8425270    -0.3337350     0.5522170
  H       -1.2204240     2.8028430    -0.4486720
units angstrom
no_reorient  #important for SAPT in psi4, default
symmetry c1  #important for SAPT in psi4, default
}

set PROPERTIES_ORIGIN ["COM"]
properties('MP2/aug-cc-pvtz', properties = ['dipole'])
--------------------------------------------------------------------------

    Molecular point group: c1
  Charge       = 0
  Multiplicity = 1
  Basis Set: AUG-CC-PVTZ
    Blend: AUG-CC-PVTZ
  Basis Set: (AUG-CC-PVTZ AUX)
    Blend: AUG-CC-PVTZ-JKFIT

    Orbital Energies [Eh]
    ---------------------

    Doubly Occupied:

       1A    -20.602994     2A    -20.512076     3A    -15.583348
       4A    -11.350308     5A    -11.317260     6A    -11.260025
       7A    -11.257579     8A    -11.255550     9A    -11.254763
      10A    -11.241580    11A    -11.232787    12A     -1.415228
      13A     -1.366176    14A     -1.224459    15A     -1.161076
      16A     -1.050968    17A     -1.019809    18A     -0.947853
      19A     -0.868957    20A     -0.836132    21A     -0.784579
      22A     -0.734580    23A     -0.729488    24A     -0.677957
      25A     -0.638973    26A     -0.627696    27A     -0.620140
      28A     -0.617119    29A     -0.599853    30A     -0.587002
      31A     -0.576637    32A     -0.544644    33A     -0.543349
      34A     -0.523776    35A     -0.493378    36A     -0.489649
      37A     -0.421510    38A     -0.388071    39A     -0.364482
      40A     -0.320945

  @DF-RHF Final Energy:  -512.52491788466386

   => Energetics <=

    Nuclear Repulsion Energy =            586.0868032060202495
    One-Electron Energy =               -1861.1379264526540283
    Two-Electron Energy =                 762.5262053619699145
    Total Energy =                       -512.5249178846638642
  Basis Set: (AUG-CC-PVTZ AUX)
    Blend: AUG-CC-PVTZ-RI
    Molecular point group: c1

    Geometry (in Angstrom), charge = 0, multiplicity = 1:

       Center              X                  Y                   Z               Mass
    ------------   -----------------  -----------------  -----------------  -----------------
         O           -0.471496160064     2.135716545977    -0.319065159255    15.994914619570
         O            1.770821839936     0.854859545977     1.141340840745    15.994914619570
         N            2.111542839936    -0.699746454023    -0.503781159255    14.003074004430
         C           -0.147844160064    -0.172909454023     0.111920840745    12.000000000000
         C           -1.151030360064     0.956251145977    -0.165974759255    12.000000000000
         C           -0.668216160064    -1.464851454023     0.246199840745    12.000000000000
         C            1.319496839936     0.075424545977     0.301440840745    12.000000000000
         C           -2.395472160064     0.656791545977    -0.264877159255    12.000000000000
         C           -2.039746160064    -1.702271454023     0.139081840745    12.000000000000
         C           -2.901464160064    -0.635527454023    -0.114747159255    12.000000000000
         C            3.554168839936    -0.533346454023    -0.495222159255    12.000000000000
         H            0.015037839936    -2.283275454023     0.462720840745     1.007825032230
         H           -3.070465160064     1.486034545977    -0.474443159255     1.007825032230
         H           -2.431548160064    -2.708568454023     0.259640840745     1.007825032230
         H           -3.972310160064    -0.802807454023    -0.201234159255     1.007825032230
         H            1.674639839936    -1.137779454023    -1.304330159255     1.007825032230
         H            3.874762839936     0.322621545977    -1.099133159255     1.007825032230
         H            4.022801839936    -1.442208454023    -0.877081159255     1.007825032230
         H            3.869402839936    -0.364100454023     0.533959840745     1.007825032230
         H           -1.193548160064     2.772477545977    -0.466929159255     1.007825032230

  Basis Set: AUG-CC-PVTZ
    Blend: AUG-CC-PVTZ
  Basis Set: (AUG-CC-PVTZ AUX)
    Blend: AUG-CC-PVTZ-JKFIT
	 Reference Energy          =    -512.5249178846638642 [Eh]
	 Singles Energy            =      -0.0000000000000000 [Eh]
	 Same-Spin Energy          =      -0.5368294735749464 [Eh]
	 Opposite-Spin Energy      =      -1.6478754062988885 [Eh]
	 Correlation Energy        =      -2.1847048798738351 [Eh]
	 Total Energy              =    -514.7096227645376985 [Eh]

	 ================> DF-SCS-MP2 Energies <==================
	-----------------------------------------------------------
	 SCS Same-Spin Scale       =       0.3333333333333333 [-]
	 SCS Opposite-Spin Scale   =       1.2000000000000000 [-]
	 SCS Same-Spin Energy      =      -0.1789431578583154 [Eh]
	 SCS Opposite-Spin Energy  =      -1.9774504875586660 [Eh]
	 SCS Correlation Energy    =      -2.1563936454169816 [Eh]
	 SCS Total Energy          =    -514.6813115300808477 [Eh]
	-----------------------------------------------------------

  Dipole Moment: [D]
     X:    -1.7331      Y:    -1.5294      Z:    -2.9899     Total:     3.7792

*** Psi4 exiting successfully. Buy a developer a beer!
