                               Psi4 1.4a3.dev225

  ==> Input File <==

--------------------------------------------------------------------------
#psi4
#
memory 32 gb

molecule  {
0 1
  O       -0.4983720     2.1660820    -0.3008080
  O        1.7439460     0.8852250     1.1595980
  N        2.0846670    -0.6693810    -0.4855240
  C       -0.1747200    -0.1425440     0.1301780
  C       -1.0501490     0.9240530    -0.1297870
  C       -0.6950920    -1.4344860     0.2644570
  C        1.2926210     0.1057900     0.3196980
  C       -2.4223480     0.6871570    -0.2466200
  C       -2.0666220    -1.6719060     0.1573390
  C       -2.9283400    -0.6051620    -0.0964900
  C        3.5272930    -0.5029810    -0.4769650
  H       -0.0118380    -2.2529100     0.4809780
  H       -3.0973410     1.5164000    -0.4561860
  H       -2.4584240    -2.6782030     0.2778980
  H       -3.9991860    -0.7724420    -0.1829770
  H        1.6477640    -1.1074140    -1.2860730
  H        3.9064150     0.5092536    -1.1911267
  H        3.9959260    -1.4118430    -0.8588240
  H        3.8425270    -0.3337350     0.5522170
  H       -1.2204240     2.8028430    -0.4486720
units angstrom
no_reorient  #important for SAPT in psi4, default
symmetry c1  #important for SAPT in psi4, default
}

set PROPERTIES_ORIGIN ["COM"]
properties('MP2/aug-cc-pvtz', properties = ['dipole'])
--------------------------------------------------------------------------

    Molecular point group: c1
  Charge       = 0
  Multiplicity = 1
  Basis Set: AUG-CC-PVTZ
    Blend: AUG-CC-PVTZ
  Basis Set: (AUG-CC-PVTZ AUX)
    Blend: AUG-CC-PVTZ-JKFIT

    Orbital Energies [Eh]
    ---------------------

    Doubly Occupied:

       1A    -20.598299     2A    -20.515104     3A    -15.587725
       4A    -11.351691     5A    -11.321239     6A    -11.278614
       7A    -11.258312     8A    -11.257513     9A    -11.250529
      10A    -11.247267    11A    -11.241187    12A     -1.410551
      13A     -1.368715    14A     -1.227259    15A     -1.160851
      16A     -1.047215    17A     -1.018459    18A     -0.941844
      19A     -0.864946    20A     -0.843420    21A     -0.784258
      22A     -0.743053    23A     -0.724355    24A     -0.675841
      25A     -0.648257    26A     -0.634471    27A     -0.616365
      28A     -0.603580    29A     -0.593240    30A     -0.584580
      31A     -0.576393    32A     -0.548693    33A     -0.533289
      34A     -0.520154    35A     -0.503911    36A     -0.488250
      37A     -0.422922    38A     -0.385250    39A     -0.355228
      40A     -0.326878

  @DF-RHF Final Energy:  -512.53224052506505

   => Energetics <=

    Nuclear Repulsion Energy =            586.3757096341163333
    One-Electron Energy =               -1861.6964848976519988
    Two-Electron Energy =                 762.7885347384707302
    Total Energy =                       -512.5322405250650490
  Basis Set: (AUG-CC-PVTZ AUX)
    Blend: AUG-CC-PVTZ-RI
    Molecular point group: c1

    Geometry (in Angstrom), charge = 0, multiplicity = 1:

       Center              X                  Y                   Z               Mass
    ------------   -----------------  -----------------  -----------------  -----------------
         O           -0.482035265742     2.139643864503    -0.319753968284    15.994914619570
         O            1.760282734258     0.858786864503     1.140652031716    15.994914619570
         N            2.101003734258    -0.695819135497    -0.504469968284    14.003074004430
         C           -0.158383265742    -0.168982135497     0.111232031716    12.000000000000
         C           -1.033812265742     0.897614864503    -0.148732968284    12.000000000000
         C           -0.678755265742    -1.460924135497     0.245511031716    12.000000000000
         C            1.308957734258     0.079351864503     0.300752031716    12.000000000000
         C           -2.406011265742     0.660718864503    -0.265565968284    12.000000000000
         C           -2.050285265742    -1.698344135497     0.138393031716    12.000000000000
         C           -2.912003265742    -0.631600135497    -0.115435968284    12.000000000000
         C            3.543629734258    -0.529419135497    -0.495910968284    12.000000000000
         H            0.004498734258    -2.279348135497     0.462032031716     1.007825032230
         H           -3.081004265742     1.489961864503    -0.475131968284     1.007825032230
         H           -2.442087265742    -2.704641135497     0.258952031716     1.007825032230
         H           -3.982849265742    -0.798880135497    -0.201922968284     1.007825032230
         H            1.664100734258    -1.133852135497    -1.305018968284     1.007825032230
         H            3.922751734258     0.482815464503    -1.210072668284     1.007825032230
         H            4.012262734258    -1.438281135497    -0.877769968284     1.007825032230
         H            3.858863734258    -0.360173135497     0.533271031716     1.007825032230
         H           -1.204087265742     2.776404864503    -0.467617968284     1.007825032230

  Basis Set: AUG-CC-PVTZ
    Blend: AUG-CC-PVTZ
  Basis Set: (AUG-CC-PVTZ AUX)
    Blend: AUG-CC-PVTZ-JKFIT
	 Reference Energy          =    -512.5322405250650490 [Eh]
	 Singles Energy            =      -0.0000000000000000 [Eh]
	 Same-Spin Energy          =      -0.5370986598018535 [Eh]
	 Opposite-Spin Energy      =      -1.6476494568566227 [Eh]
	 Correlation Energy        =      -2.1847481166584761 [Eh]
	 Total Energy              =    -514.7169886417235602 [Eh]

	 ================> DF-SCS-MP2 Energies <==================
	-----------------------------------------------------------
	 SCS Same-Spin Scale       =       0.3333333333333333 [-]
	 SCS Opposite-Spin Scale   =       1.2000000000000000 [-]
	 SCS Same-Spin Energy      =      -0.1790328866006178 [Eh]
	 SCS Opposite-Spin Energy  =      -1.9771793482279472 [Eh]
	 SCS Correlation Energy    =      -2.1562122348285651 [Eh]
	 SCS Total Energy          =    -514.6884527598936074 [Eh]
	-----------------------------------------------------------

  Dipole Moment: [D]
     X:    -1.8811      Y:    -1.6622      Z:    -2.8662     Total:     3.8101

*** Psi4 exiting successfully. Buy a developer a beer!
