                               Psi4 1.4a3.dev225

  ==> Input File <==

--------------------------------------------------------------------------
#psi4
#
memory 32 gb

molecule  {
0 1
  O       -0.4983720     2.1660820    -0.3008080
  O        1.7439460     0.8852250     1.1595980
  N        2.0846670    -0.6693810    -0.4855240
  C       -0.1747200    -0.1425440     0.1301780
  C       -1.0501490     0.9240530    -0.1297870
  C       -0.6950920    -1.4344860     0.2644570
  C        1.2926210     0.1057900     0.3196980
  C       -2.2259535     0.7210625    -0.2298984
  C       -2.0666220    -1.6719060     0.1573390
  C       -2.9283400    -0.6051620    -0.0964900
  C        3.5272930    -0.5029810    -0.4769650
  H       -0.0118380    -2.2529100     0.4809780
  H       -3.0973410     1.5164000    -0.4561860
  H       -2.4584240    -2.6782030     0.2778980
  H       -3.9991860    -0.7724420    -0.1829770
  H        1.6477640    -1.1074140    -1.2860730
  H        3.8478870     0.3529870    -1.0808760
  H        3.9959260    -1.4118430    -0.8588240
  H        3.8425270    -0.3337350     0.5522170
  H       -1.2204240     2.8028430    -0.4486720
units angstrom
no_reorient  #important for SAPT in psi4, default
symmetry c1  #important for SAPT in psi4, default
}

set PROPERTIES_ORIGIN ["COM"]
properties('MP2/aug-cc-pvtz', properties = ['dipole'])
--------------------------------------------------------------------------

    Molecular point group: c1
  Charge       = 0
  Multiplicity = 1
  Basis Set: AUG-CC-PVTZ
    Blend: AUG-CC-PVTZ
  Basis Set: (AUG-CC-PVTZ AUX)
    Blend: AUG-CC-PVTZ-JKFIT

    Orbital Energies [Eh]
    ---------------------

    Doubly Occupied:

       1A    -20.584544     2A    -20.513686     3A    -15.584471
       4A    -11.350899     5A    -11.286941     6A    -11.267699
       7A    -11.257838     8A    -11.256147     9A    -11.255319
      10A    -11.245495    11A    -11.237729    12A     -1.404291
      13A     -1.367424    14A     -1.225872    15A     -1.172721
      16A     -1.049438    17A     -1.035329    18A     -0.948686
      19A     -0.878936    20A     -0.830820    21A     -0.786147
      22A     -0.738378    23A     -0.723760    24A     -0.678374
      25A     -0.643865    26A     -0.634781    27A     -0.618467
      28A     -0.608363    29A     -0.601768    30A     -0.586269
      31A     -0.568688    32A     -0.545639    33A     -0.539255
      34A     -0.524299    35A     -0.490073    36A     -0.481785
      37A     -0.422781    38A     -0.389098    39A     -0.362762
      40A     -0.335468

  @DF-RHF Final Energy:  -512.48997560538646

   => Energetics <=

    Nuclear Repulsion Energy =            590.6191517466114647
    One-Electron Energy =               -1870.1496452758044597
    Two-Electron Energy =                 767.0405179238064193
    Total Energy =                       -512.4899756053864621
  Basis Set: (AUG-CC-PVTZ AUX)
    Blend: AUG-CC-PVTZ-RI
    Molecular point group: c1

    Geometry (in Angstrom), charge = 0, multiplicity = 1:

       Center              X                  Y                   Z               Mass
    ------------   -----------------  -----------------  -----------------  -----------------
         O           -0.497245760829     2.137993056122    -0.321817822022    15.994914619570
         O            1.745072239171     0.857136056122     1.138588177978    15.994914619570
         N            2.085793239171    -0.697469943878    -0.506533822022    14.003074004430
         C           -0.173593760829    -0.170632943878     0.109168177978    12.000000000000
         C           -1.049022760829     0.895964056122    -0.150796822022    12.000000000000
         C           -0.693965760829    -1.462574943878     0.243447177978    12.000000000000
         C            1.293747239171     0.077701056122     0.298688177978    12.000000000000
         C           -2.224827260829     0.692973556122    -0.250908222022    12.000000000000
         C           -2.065495760829    -1.699994943878     0.136329177978    12.000000000000
         C           -2.927213760829    -0.633250943878    -0.117499822022    12.000000000000
         C            3.528419239171    -0.531069943878    -0.497974822022    12.000000000000
         H           -0.010711760829    -2.280998943878     0.459968177978     1.007825032230
         H           -3.096214760829     1.488311056122    -0.477195822022     1.007825032230
         H           -2.457297760829    -2.706291943878     0.256888177978     1.007825032230
         H           -3.998059760829    -0.800530943878    -0.203986822022     1.007825032230
         H            1.648890239171    -1.135502943878    -1.307082822022     1.007825032230
         H            3.849013239171     0.324898056122    -1.101885822022     1.007825032230
         H            3.997052239171    -1.439931943878    -0.879833822022     1.007825032230
         H            3.843653239171    -0.361823943878     0.531207177978     1.007825032230
         H           -1.219297760829     2.774754056122    -0.469681822022     1.007825032230

  Basis Set: AUG-CC-PVTZ
    Blend: AUG-CC-PVTZ
  Basis Set: (AUG-CC-PVTZ AUX)
    Blend: AUG-CC-PVTZ-JKFIT
	 Reference Energy          =    -512.4899756053864621 [Eh]
	 Singles Energy            =      -0.0000000000000000 [Eh]
	 Same-Spin Energy          =      -0.5366659173828472 [Eh]
	 Opposite-Spin Energy      =      -1.6476218476669375 [Eh]
	 Correlation Energy        =      -2.1842877650497847 [Eh]
	 Total Energy              =    -514.6742633704362788 [Eh]

	 ================> DF-SCS-MP2 Energies <==================
	-----------------------------------------------------------
	 SCS Same-Spin Scale       =       0.3333333333333333 [-]
	 SCS Opposite-Spin Scale   =       1.2000000000000000 [-]
	 SCS Same-Spin Energy      =      -0.1788886391276157 [Eh]
	 SCS Opposite-Spin Energy  =      -1.9771462172003249 [Eh]
	 SCS Correlation Energy    =      -2.1560348563279406 [Eh]
	 SCS Total Energy          =    -514.6460104617143543 [Eh]
	-----------------------------------------------------------

  Dipole Moment: [D]
     X:    -1.7948      Y:    -2.0031      Z:    -2.9115     Total:     3.9636

*** Psi4 exiting successfully. Buy a developer a beer!
