                               Psi4 1.4a3.dev225

  ==> Input File <==

--------------------------------------------------------------------------
#psi4
#
memory 32 gb

molecule  {
0 1
  O       -0.4983720     2.1660820    -0.3008080
  O        1.7439460     0.8852250     1.1595980
  N        2.0846670    -0.6693810    -0.4855240
  C       -0.1747200    -0.1425440     0.1301780
  C       -1.0501490     0.9240530    -0.1297870
  C       -0.6950920    -1.4344860     0.2644570
  C        1.2926210     0.1057900     0.3196980
  C       -2.4223480     0.6871570    -0.2466200
  C       -1.9683779    -1.6548994     0.1650120
  C       -2.9283400    -0.6051620    -0.0964900
  C        3.5272930    -0.5029810    -0.4769650
  H       -0.0118380    -2.2529100     0.4809780
  H       -3.0973410     1.5164000    -0.4561860
  H       -2.4584240    -2.6782030     0.2778980
  H       -3.9991860    -0.7724420    -0.1829770
  H        1.6477640    -1.1074140    -1.2860730
  H        3.8478870     0.3529870    -1.0808760
  H        3.9959260    -1.4118430    -0.8588240
  H        3.8425270    -0.3337350     0.5522170
  H       -1.2204240     2.8028430    -0.4486720
units angstrom
no_reorient  #important for SAPT in psi4, default
symmetry c1  #important for SAPT in psi4, default
}

set PROPERTIES_ORIGIN ["COM"]
properties('MP2/aug-cc-pvtz', properties = ['dipole'])
--------------------------------------------------------------------------

    Molecular point group: c1
  Charge       = 0
  Multiplicity = 1
  Basis Set: AUG-CC-PVTZ
    Blend: AUG-CC-PVTZ
  Basis Set: (AUG-CC-PVTZ AUX)
    Blend: AUG-CC-PVTZ-JKFIT

    Orbital Energies [Eh]
    ---------------------

    Doubly Occupied:

       1A    -20.597421     2A    -20.511853     3A    -15.582838
       4A    -11.348499     5A    -11.319475     6A    -11.263304
       7A    -11.255309     8A    -11.249521     9A    -11.246448
      10A    -11.243125    11A    -11.238668    12A     -1.409610
      13A     -1.365788    14A     -1.224413    15A     -1.166700
      16A     -1.046040    17A     -1.024969    18A     -0.949530
      19A     -0.866357    20A     -0.841103    21A     -0.782205
      22A     -0.743514    23A     -0.719404    24A     -0.678658
      25A     -0.643527    26A     -0.632776    27A     -0.619842
      28A     -0.614044    29A     -0.596113    30A     -0.595716
      31A     -0.574263    32A     -0.544464    33A     -0.532392
      34A     -0.523818    35A     -0.497706    36A     -0.493023
      37A     -0.420720    38A     -0.387982    39A     -0.360369
      40A     -0.324811

  @DF-RHF Final Energy:  -512.53833988505369

   => Energetics <=

    Nuclear Repulsion Energy =            588.5336342237359304
    One-Electron Energy =               -1866.0713126923951677
    Two-Electron Energy =                 764.9993385836054358
    Total Energy =                       -512.5383398850536878
  Basis Set: (AUG-CC-PVTZ AUX)
    Blend: AUG-CC-PVTZ-RI
    Molecular point group: c1

    Geometry (in Angstrom), charge = 0, multiplicity = 1:

       Center              X                  Y                   Z               Mass
    ------------   -----------------  -----------------  -----------------  -----------------
         O           -0.489448998958     2.139335452069    -0.321099029440    15.994914619570
         O            1.752869001042     0.858478452069     1.139306970560    15.994914619570
         N            2.093590001042    -0.696127547931    -0.505815029440    14.003074004430
         C           -0.165796998958    -0.169290547931     0.109886970560    12.000000000000
         C           -1.041225998958     0.897306452069    -0.150078029440    12.000000000000
         C           -0.686168998958    -1.461232547931     0.244165970560    12.000000000000
         C            1.301544001042     0.079043452069     0.299406970560    12.000000000000
         C           -2.413424998958     0.660410452069    -0.266911029440    12.000000000000
         C           -1.959454898958    -1.681645947931     0.144720970560    12.000000000000
         C           -2.919416998958    -0.631908547931    -0.116781029440    12.000000000000
         C            3.536216001042    -0.529727547931    -0.497256029440    12.000000000000
         H           -0.002914998958    -2.279656547931     0.460686970560     1.007825032230
         H           -3.088417998958     1.489653452069    -0.476477029440     1.007825032230
         H           -2.449500998958    -2.704949547931     0.257606970560     1.007825032230
         H           -3.990262998958    -0.799188547931    -0.203268029440     1.007825032230
         H            1.656687001042    -1.134160547931    -1.306364029440     1.007825032230
         H            3.856810001042     0.326240452069    -1.101167029440     1.007825032230
         H            4.004849001042    -1.438589547931    -0.879115029440     1.007825032230
         H            3.851450001042    -0.360481547931     0.531925970560     1.007825032230
         H           -1.211500998958     2.776096452069    -0.468963029440     1.007825032230

  Basis Set: AUG-CC-PVTZ
    Blend: AUG-CC-PVTZ
  Basis Set: (AUG-CC-PVTZ AUX)
    Blend: AUG-CC-PVTZ-JKFIT
	 Reference Energy          =    -512.5383398850536878 [Eh]
	 Singles Energy            =      -0.0000000000000000 [Eh]
	 Same-Spin Energy          =      -0.5371258629220190 [Eh]
	 Opposite-Spin Energy      =      -1.6465010364112267 [Eh]
	 Correlation Energy        =      -2.1836268993332455 [Eh]
	 Total Energy              =    -514.7219667843869502 [Eh]

	 ================> DF-SCS-MP2 Energies <==================
	-----------------------------------------------------------
	 SCS Same-Spin Scale       =       0.3333333333333333 [-]
	 SCS Opposite-Spin Scale   =       1.2000000000000000 [-]
	 SCS Same-Spin Energy      =      -0.1790419543073397 [Eh]
	 SCS Opposite-Spin Energy  =      -1.9758012436934720 [Eh]
	 SCS Correlation Energy    =      -2.1548431980008118 [Eh]
	 SCS Total Energy          =    -514.6931830830544641 [Eh]
	-----------------------------------------------------------

  Dipole Moment: [D]
     X:    -1.7871      Y:    -1.5496      Z:    -2.9854     Total:     3.8089

*** Psi4 exiting successfully. Buy a developer a beer!
