                               Psi4 1.4a3.dev225

  ==> Input File <==

--------------------------------------------------------------------------
#psi4
#
memory 32 gb

molecule  {
0 1
  O       -0.4983720     2.1660820    -0.3008080
  O        1.7439460     0.8852250     1.1595980
  N        2.0846670    -0.6693810    -0.4855240
  C       -0.1747200    -0.1425440     0.1301780
  C       -1.0501490     0.9240530    -0.1297870
  C       -0.6950920    -1.4344860     0.2644570
  C        1.2926210     0.1057900     0.3196980
  C       -2.4223480     0.6871570    -0.2466200
  C       -2.0666220    -1.6719060     0.1573390
  C       -2.9283400    -0.6051620    -0.0964900
  C        3.5272930    -0.5029810    -0.4769650
  H       -0.0118380    -2.2529100     0.4809780
  H       -3.0973410     1.5164000    -0.4561860
  H       -2.4584240    -2.6782030     0.2778980
  H       -3.9991860    -0.7724420    -0.1829770
  H        1.6477640    -1.1074140    -1.2860730
  H        3.8044494     0.3973390    -1.0362310
  H        3.9959260    -1.4118430    -0.8588240
  H        3.8425270    -0.3337350     0.5522170
  H       -1.2204240     2.8028430    -0.4486720
units angstrom
no_reorient  #important for SAPT in psi4, default
symmetry c1  #important for SAPT in psi4, default
}

set PROPERTIES_ORIGIN ["COM"]
properties('MP2/aug-cc-pvtz', properties = ['dipole'])
--------------------------------------------------------------------------

    Molecular point group: c1
  Charge       = 0
  Multiplicity = 1
  Basis Set: AUG-CC-PVTZ
    Blend: AUG-CC-PVTZ
  Basis Set: (AUG-CC-PVTZ AUX)
    Blend: AUG-CC-PVTZ-JKFIT

    Orbital Energies [Eh]
    ---------------------

    Doubly Occupied:

       1A    -20.597689     2A    -20.513068     3A    -15.583197
       4A    -11.349775     5A    -11.320283     6A    -11.257221
       7A    -11.256657     8A    -11.255914     9A    -11.249362
      10A    -11.246466    11A    -11.240315    12A     -1.409898
      13A     -1.366977    14A     -1.225256    15A     -1.159928
      16A     -1.046648    17A     -1.017589    18A     -0.950073
      19A     -0.865021    20A     -0.844028    21A     -0.783159
      22A     -0.742077    23A     -0.723109    24A     -0.675077
      25A     -0.647322    26A     -0.636233    27A     -0.619434
      28A     -0.613329    29A     -0.596075    30A     -0.586811
      31A     -0.574930    32A     -0.546150    33A     -0.535315
      34A     -0.522550    35A     -0.510256    36A     -0.489699
      37A     -0.421311    38A     -0.388374    39A     -0.354237
      40A     -0.326054

  @DF-RHF Final Energy:  -512.55146534309858

   => Energetics <=

    Nuclear Repulsion Energy =            587.2776404646433548
    One-Electron Energy =               -1863.5644721109463262
    Two-Electron Energy =                 763.7353663032043869
    Total Energy =                       -512.5514653430985845
  Basis Set: (AUG-CC-PVTZ AUX)
    Blend: AUG-CC-PVTZ-RI
    Molecular point group: c1

    Geometry (in Angstrom), charge = 0, multiplicity = 1:

       Center              X                  Y                   Z               Mass
    ------------   -----------------  -----------------  -----------------  -----------------
         O           -0.481354998167     2.140390507229    -0.320787361136    15.994914619570
         O            1.760963001833     0.859533507229     1.139618638864    15.994914619570
         N            2.101684001833    -0.695072492771    -0.505503361136    14.003074004430
         C           -0.157702998167    -0.168235492771     0.110198638864    12.000000000000
         C           -1.033131998167     0.898361507229    -0.149766361136    12.000000000000
         C           -0.678074998167    -1.460177492771     0.244477638864    12.000000000000
         C            1.309638001833     0.080098507229     0.299718638864    12.000000000000
         C           -2.405330998167     0.661465507229    -0.266599361136    12.000000000000
         C           -2.049604998167    -1.697597492771     0.137359638864    12.000000000000
         C           -2.911322998167    -0.630853492771    -0.116469361136    12.000000000000
         C            3.544310001833    -0.528672492771    -0.496944361136    12.000000000000
         H            0.005179001833    -2.278601492771     0.460998638864     1.007825032230
         H           -3.080323998167     1.490708507229    -0.476165361136     1.007825032230
         H           -2.441406998167    -2.703894492771     0.257918638864     1.007825032230
         H           -3.982168998167    -0.798133492771    -0.202956361136     1.007825032230
         H            1.664781001833    -1.133105492771    -1.306052361136     1.007825032230
         H            3.821466401833     0.371647507229    -1.056210361136     1.007825032230
         H            4.012943001833    -1.437534492771    -0.878803361136     1.007825032230
         H            3.859544001833    -0.359426492771     0.532237638864     1.007825032230
         H           -1.203406998167     2.777151507229    -0.468651361136     1.007825032230

  Basis Set: AUG-CC-PVTZ
    Blend: AUG-CC-PVTZ
  Basis Set: (AUG-CC-PVTZ AUX)
    Blend: AUG-CC-PVTZ-JKFIT
	 Reference Energy          =    -512.5514653430985845 [Eh]
	 Singles Energy            =      -0.0000000000000000 [Eh]
	 Same-Spin Energy          =      -0.5371243116156927 [Eh]
	 Opposite-Spin Energy      =      -1.6461719385142146 [Eh]
	 Correlation Energy        =      -2.1832962501299074 [Eh]
	 Total Energy              =    -514.7347615932285407 [Eh]

	 ================> DF-SCS-MP2 Energies <==================
	-----------------------------------------------------------
	 SCS Same-Spin Scale       =       0.3333333333333333 [-]
	 SCS Opposite-Spin Scale   =       1.2000000000000000 [-]
	 SCS Same-Spin Energy      =      -0.1790414372052309 [Eh]
	 SCS Opposite-Spin Energy  =      -1.9754063262170574 [Eh]
	 SCS Correlation Energy    =      -2.1544477634222883 [Eh]
	 SCS Total Energy          =    -514.7059131065208248 [Eh]
	-----------------------------------------------------------

  Dipole Moment: [D]
     X:    -1.7007      Y:    -1.5806      Z:    -2.9604     Total:     3.7622

*** Psi4 exiting successfully. Buy a developer a beer!
