                               Psi4 1.4a3.dev225

  ==> Input File <==

--------------------------------------------------------------------------
#psi4
#
memory 32 gb

molecule  {
0 1
  O       -0.4983720     2.1660820    -0.3008080
  O        1.7439460     0.8852250     1.1595980
  N        2.0846670    -0.6693810    -0.4855240
  C       -0.1747200    -0.1425440     0.1301780
  C       -1.0501490     0.9240530    -0.1297870
  C       -0.6950920    -1.4344860     0.2644570
  C        1.2926210     0.1057900     0.3196980
  C       -2.4223480     0.6871570    -0.2466200
  C       -2.0666220    -1.6719060     0.1573390
  C       -2.9283400    -0.6051620    -0.0964900
  C        3.5272930    -0.5029810    -0.4769650
  H       -0.0118380    -2.2529100     0.4809780
  H       -3.0973410     1.5164000    -0.4561860
  H       -2.4584240    -2.6782030     0.2778980
  H       -3.9991860    -0.7724420    -0.1829770
  H        1.6477640    -1.1074140    -1.2860730
  H        3.8420342     0.3373603    -1.0698509
  H        3.9959260    -1.4118430    -0.8588240
  H        3.8425270    -0.3337350     0.5522170
  H       -1.2204240     2.8028430    -0.4486720
units angstrom
no_reorient  #important for SAPT in psi4, default
symmetry c1  #important for SAPT in psi4, default
}

set PROPERTIES_ORIGIN ["COM"]
properties('MP2/aug-cc-pvtz', properties = ['dipole'])
--------------------------------------------------------------------------

    Molecular point group: c1
  Charge       = 0
  Multiplicity = 1
  Basis Set: AUG-CC-PVTZ
    Blend: AUG-CC-PVTZ
  Basis Set: (AUG-CC-PVTZ AUX)
    Blend: AUG-CC-PVTZ-JKFIT

    Orbital Energies [Eh]
    ---------------------

    Doubly Occupied:

       1A    -20.597685     2A    -20.512970     3A    -15.583631
       4A    -11.349925     5A    -11.320329     6A    -11.257267
       7A    -11.256687     8A    -11.253559     9A    -11.249422
      10A    -11.246497    11A    -11.240347    12A     -1.409896
      13A     -1.366925    14A     -1.225259    15A     -1.159963
      16A     -1.046731    17A     -1.017623    18A     -0.951660
      19A     -0.865283    20A     -0.844407    21A     -0.783144
      22A     -0.742201    23A     -0.723629    24A     -0.675170
      25A     -0.648660    26A     -0.636790    27A     -0.620337
      28A     -0.612923    29A     -0.595841    30A     -0.586167
      31A     -0.575201    32A     -0.544986    33A     -0.536224
      34A     -0.522893    35A     -0.511511    36A     -0.489807
      37A     -0.421390    38A     -0.389093    39A     -0.354273
      40A     -0.326080

  @DF-RHF Final Energy:  -512.55213966622114

   => Energetics <=

    Nuclear Repulsion Energy =            587.2513996749853504
    One-Electron Energy =               -1863.5023080516612026
    Two-Electron Energy =                 763.6987687104547149
    Total Energy =                       -512.5521396662211373
  Basis Set: (AUG-CC-PVTZ AUX)
    Blend: AUG-CC-PVTZ-RI
    Molecular point group: c1

    Geometry (in Angstrom), charge = 0, multiplicity = 1:

       Center              X                  Y                   Z               Mass
    ------------   -----------------  -----------------  -----------------  -----------------
         O           -0.481605746662     2.140790657522    -0.320563064630    15.994914619570
         O            1.760712253338     0.859933657522     1.139842935370    15.994914619570
         N            2.101433253338    -0.694672342478    -0.505279064630    14.003074004430
         C           -0.157953746662    -0.167835342478     0.110422935370    12.000000000000
         C           -1.033382746662     0.898761657522    -0.149542064630    12.000000000000
         C           -0.678325746662    -1.459777342478     0.244701935370    12.000000000000
         C            1.309387253338     0.080498657522     0.299942935370    12.000000000000
         C           -2.405581746662     0.661865657522    -0.266375064630    12.000000000000
         C           -2.049855746662    -1.697197342478     0.137583935370    12.000000000000
         C           -2.911573746662    -0.630453342478    -0.116245064630    12.000000000000
         C            3.544059253338    -0.528272342478    -0.496720064630    12.000000000000
         H            0.004928253338    -2.278201342478     0.461222935370     1.007825032230
         H           -3.080574746662     1.491108657522    -0.475941064630     1.007825032230
         H           -2.441657746662    -2.703494342478     0.258142935370     1.007825032230
         H           -3.982419746662    -0.797733342478    -0.202732064630     1.007825032230
         H            1.664530253338    -1.132705342478    -1.305828064630     1.007825032230
         H            3.858800453338     0.312068957522    -1.089605964630     1.007825032230
         H            4.012692253338    -1.437134342478    -0.878579064630     1.007825032230
         H            3.859293253338    -0.359026342478     0.532461935370     1.007825032230
         H           -1.203657746662     2.777551657522    -0.468427064630     1.007825032230

  Basis Set: AUG-CC-PVTZ
    Blend: AUG-CC-PVTZ
  Basis Set: (AUG-CC-PVTZ AUX)
    Blend: AUG-CC-PVTZ-JKFIT
	 Reference Energy          =    -512.5521396662211373 [Eh]
	 Singles Energy            =      -0.0000000000000000 [Eh]
	 Same-Spin Energy          =      -0.5370471731750588 [Eh]
	 Opposite-Spin Energy      =      -1.6459405729928476 [Eh]
	 Correlation Energy        =      -2.1829877461679064 [Eh]
	 Total Energy              =    -514.7351274123890335 [Eh]

	 ================> DF-SCS-MP2 Energies <==================
	-----------------------------------------------------------
	 SCS Same-Spin Scale       =       0.3333333333333333 [-]
	 SCS Opposite-Spin Scale   =       1.2000000000000000 [-]
	 SCS Same-Spin Energy      =      -0.1790157243916863 [Eh]
	 SCS Opposite-Spin Energy  =      -1.9751286875914169 [Eh]
	 SCS Correlation Energy    =      -2.1541444119831032 [Eh]
	 SCS Total Energy          =    -514.7062840782042485 [Eh]
	-----------------------------------------------------------

  Dipole Moment: [D]
     X:    -1.6960      Y:    -1.5748      Z:    -2.9816     Total:     3.7745

*** Psi4 exiting successfully. Buy a developer a beer!
