                               Psi4 1.4a3.dev225

  ==> Input File <==

--------------------------------------------------------------------------
#psi4
#
memory 32 gb

molecule  {
0 1
  O       -0.4983720     2.1660820    -0.3008080
  O        1.7439460     0.8852250     1.1595980
  N        2.0846670    -0.6693810    -0.4855240
  C       -0.1747200    -0.1425440     0.1301780
  C       -1.0501490     0.9240530    -0.1297870
  C       -0.6950920    -1.4344860     0.2644570
  C        1.2926210     0.1057900     0.3196980
  C       -2.4223480     0.6871570    -0.2466200
  C       -2.0666220    -1.6719060     0.1573390
  C       -2.9283400    -0.6051620    -0.0964900
  C        3.5272930    -0.5029810    -0.4769650
  H       -0.0118380    -2.2529100     0.4809780
  H       -3.0973410     1.5164000    -0.4561860
  H       -2.4584240    -2.6782030     0.2778980
  H       -3.9991860    -0.7724420    -0.1829770
  H        1.6477640    -1.1074140    -1.2860730
  H        3.8478870     0.3529870    -1.0808760
  H        4.0388591    -1.4951071    -0.8938075
  H        3.8425270    -0.3337350     0.5522170
  H       -1.2204240     2.8028430    -0.4486720
units angstrom
no_reorient  #important for SAPT in psi4, default
symmetry c1  #important for SAPT in psi4, default
}

set PROPERTIES_ORIGIN ["COM"]
properties('MP2/aug-cc-pvtz', properties = ['dipole'])
--------------------------------------------------------------------------

    Molecular point group: c1
  Charge       = 0
  Multiplicity = 1
  Basis Set: AUG-CC-PVTZ
    Blend: AUG-CC-PVTZ
  Basis Set: (AUG-CC-PVTZ AUX)
    Blend: AUG-CC-PVTZ-JKFIT

    Orbital Energies [Eh]
    ---------------------

    Doubly Occupied:

       1A    -20.598095     2A    -20.513909     3A    -15.585157
       4A    -11.350969     5A    -11.320800     6A    -11.267987
       7A    -11.257719     8A    -11.257087     9A    -11.249959
      10A    -11.246868    11A    -11.240709    12A     -1.410321
      13A     -1.367899    14A     -1.225825    15A     -1.160360
      16A     -1.046796    17A     -1.018011    18A     -0.944041
      19A     -0.864943    20A     -0.843677    21A     -0.783882
      22A     -0.742255    23A     -0.722549    24A     -0.675595
      25A     -0.647740    26A     -0.636755    27A     -0.619784
      28A     -0.611988    29A     -0.595677    30A     -0.584624
      31A     -0.574068    32A     -0.537190    33A     -0.532530
      34A     -0.521627    35A     -0.511732    36A     -0.489912
      37A     -0.422241    38A     -0.389055    39A     -0.354719
      40A     -0.326487

  @DF-RHF Final Energy:  -512.54552794914298

   => Energetics <=

    Nuclear Repulsion Energy =            586.7214335027883862
    One-Electron Energy =               -1862.4308355310779461
    Two-Electron Energy =                 763.1638740791465807
    Total Energy =                       -512.5455279491429792
  Basis Set: (AUG-CC-PVTZ AUX)
    Blend: AUG-CC-PVTZ-RI
    Molecular point group: c1

    Geometry (in Angstrom), charge = 0, multiplicity = 1:

       Center              X                  Y                   Z               Mass
    ------------   -----------------  -----------------  -----------------  -----------------
         O           -0.481931223743     2.141241903139    -0.320256116416    15.994914619570
         O            1.760386776257     0.860384903139     1.140149883584    15.994914619570
         N            2.101107776257    -0.694221096861    -0.504972116416    14.003074004430
         C           -0.158279223743    -0.167384096861     0.110729883584    12.000000000000
         C           -1.033708223743     0.899212903139    -0.149235116416    12.000000000000
         C           -0.678651223743    -1.459326096861     0.245008883584    12.000000000000
         C            1.309061776257     0.080949903139     0.300249883584    12.000000000000
         C           -2.405907223743     0.662316903139    -0.266068116416    12.000000000000
         C           -2.050181223743    -1.696746096861     0.137890883584    12.000000000000
         C           -2.911899223743    -0.630002096861    -0.115938116416    12.000000000000
         C            3.543733776257    -0.527821096861    -0.496413116416    12.000000000000
         H            0.004602776257    -2.277750096861     0.461529883584     1.007825032230
         H           -3.080900223743     1.491559903139    -0.475634116416     1.007825032230
         H           -2.441983223743    -2.703043096861     0.258449883584     1.007825032230
         H           -3.982745223743    -0.797282096861    -0.202425116416     1.007825032230
         H            1.664204776257    -1.132254096861    -1.305521116416     1.007825032230
         H            3.864327776257     0.328146903139    -1.100324116416     1.007825032230
         H            4.055299876257    -1.519947196861    -0.913255616416     1.007825032230
         H            3.858967776257    -0.358575096861     0.532768883584     1.007825032230
         H           -1.203983223743     2.778002903139    -0.468120116416     1.007825032230

  Basis Set: AUG-CC-PVTZ
    Blend: AUG-CC-PVTZ
  Basis Set: (AUG-CC-PVTZ AUX)
    Blend: AUG-CC-PVTZ-JKFIT
	 Reference Energy          =    -512.5455279491429792 [Eh]
	 Singles Energy            =      -0.0000000000000000 [Eh]
	 Same-Spin Energy          =      -0.5370132496556453 [Eh]
	 Opposite-Spin Energy      =      -1.6467481308315060 [Eh]
	 Correlation Energy        =      -2.1837613804871512 [Eh]
	 Total Energy              =    -514.7292893296300917 [Eh]

	 ================> DF-SCS-MP2 Energies <==================
	-----------------------------------------------------------
	 SCS Same-Spin Scale       =       0.3333333333333333 [-]
	 SCS Opposite-Spin Scale   =       1.2000000000000000 [-]
	 SCS Same-Spin Energy      =      -0.1790044165518818 [Eh]
	 SCS Opposite-Spin Energy  =      -1.9760977569978071 [Eh]
	 SCS Correlation Energy    =      -2.1551021735496887 [Eh]
	 SCS Total Energy          =    -514.7006301226927008 [Eh]
	-----------------------------------------------------------

  Dipole Moment: [D]
     X:    -1.7690      Y:    -1.5385      Z:    -2.9507     Total:     3.7687

*** Psi4 exiting successfully. Buy a developer a beer!
