                               Psi4 1.4a3.dev225

  ==> Input File <==

--------------------------------------------------------------------------
#psi4
#
memory 32 gb

molecule  {
0 1
  O       -0.4983720     2.1660820    -0.3008080
  O        1.7439460     0.8852250     1.1595980
  N        2.0846670    -0.6693810    -0.4855240
  C       -0.1747200    -0.1425440     0.1301780
  C       -1.0501490     0.9240530    -0.1297870
  C       -0.6950920    -1.4344860     0.2644570
  C        1.3121826     0.1091006     0.3222246
  C       -2.4223480     0.6871570    -0.2466200
  C       -2.0666220    -1.6719060     0.1573390
  C       -2.9283400    -0.6051620    -0.0964900
  C        3.5272930    -0.5029810    -0.4769650
  H       -0.0118380    -2.2529100     0.4809780
  H       -3.0973410     1.5164000    -0.4561860
  H       -2.4584240    -2.6782030     0.2778980
  H       -3.9991860    -0.7724420    -0.1829770
  H        1.6477640    -1.1074140    -1.2860730
  H        3.8478870     0.3529870    -1.0808760
  H        3.9959260    -1.4118430    -0.8588240
  H        3.8425270    -0.3337350     0.5522170
  H       -1.2204240     2.8028430    -0.4486720
units angstrom
no_reorient  #important for SAPT in psi4, default
symmetry c1  #important for SAPT in psi4, default
}

set PROPERTIES_ORIGIN ["COM"]
properties('MP2/aug-cc-pvtz', properties = ['dipole'])
--------------------------------------------------------------------------

    Molecular point group: c1
  Charge       = 0
  Multiplicity = 1
  Basis Set: AUG-CC-PVTZ
    Blend: AUG-CC-PVTZ
  Basis Set: (AUG-CC-PVTZ AUX)
    Blend: AUG-CC-PVTZ-JKFIT

    Orbital Energies [Eh]
    ---------------------

    Doubly Occupied:

       1A    -20.596788     2A    -20.514395     3A    -15.584685
       4A    -11.349598     5A    -11.318777     6A    -11.256621
       7A    -11.255771     8A    -11.255326     9A    -11.248862
      10A    -11.245527    11A    -11.239375    12A     -1.409063
      13A     -1.374026    14A     -1.229563    15A     -1.158427
      16A     -1.043736    17A     -1.016307    18A     -0.951008
      19A     -0.862765    20A     -0.842074    21A     -0.785451
      22A     -0.741392    23A     -0.722667    24A     -0.674126
      25A     -0.647848    26A     -0.637980    27A     -0.620469
      28A     -0.612382    29A     -0.595361    30A     -0.585387
      31A     -0.574497    32A     -0.547148    33A     -0.536038
      34A     -0.523593    35A     -0.511741    36A     -0.489393
      37A     -0.420805    38A     -0.391244    39A     -0.353081
      40A     -0.324943

  @DF-RHF Final Energy:  -512.55288968350271

   => Energetics <=

    Nuclear Repulsion Energy =            587.1180675620609009
    One-Electron Energy =               -1863.2454410110049139
    Two-Electron Energy =                 763.5744837654414141
    Total Energy =                       -512.5528896835027126
  Basis Set: (AUG-CC-PVTZ AUX)
    Blend: AUG-CC-PVTZ-RI
    Molecular point group: c1

    Geometry (in Angstrom), charge = 0, multiplicity = 1:

       Center              X                  Y                   Z               Mass
    ------------   -----------------  -----------------  -----------------  -----------------
         O           -0.483198706388     2.140423419623    -0.320690215464    15.994914619570
         O            1.759119293612     0.859566419623     1.139715784536    15.994914619570
         N            2.099840293612    -0.695039580377    -0.505406215464    14.003074004430
         C           -0.159546706388    -0.168202580377     0.110295784536    12.000000000000
         C           -1.034975706388     0.898394419623    -0.149669215464    12.000000000000
         C           -0.679918706388    -1.460144580377     0.244574784536    12.000000000000
         C            1.327355893612     0.083442019623     0.302342384536    12.000000000000
         C           -2.407174706388     0.661498419623    -0.266502215464    12.000000000000
         C           -2.051448706388    -1.697564580377     0.137456784536    12.000000000000
         C           -2.913166706388    -0.630820580377    -0.116372215464    12.000000000000
         C            3.542466293612    -0.528639580377    -0.496847215464    12.000000000000
         H            0.003335293612    -2.278568580377     0.461095784536     1.007825032230
         H           -3.082167706388     1.490741419623    -0.476068215464     1.007825032230
         H           -2.443250706388    -2.703861580377     0.258015784536     1.007825032230
         H           -3.984012706388    -0.798100580377    -0.202859215464     1.007825032230
         H            1.662937293612    -1.133072580377    -1.305955215464     1.007825032230
         H            3.863060293612     0.327328419623    -1.100758215464     1.007825032230
         H            4.011099293612    -1.437501580377    -0.878706215464     1.007825032230
         H            3.857700293612    -0.359393580377     0.532334784536     1.007825032230
         H           -1.205250706388     2.777184419623    -0.468554215464     1.007825032230

  Basis Set: AUG-CC-PVTZ
    Blend: AUG-CC-PVTZ
  Basis Set: (AUG-CC-PVTZ AUX)
    Blend: AUG-CC-PVTZ-JKFIT
	 Reference Energy          =    -512.5528896835027126 [Eh]
	 Singles Energy            =      -0.0000000000000000 [Eh]
	 Same-Spin Energy          =      -0.5366995111289850 [Eh]
	 Opposite-Spin Energy      =      -1.6453314145889595 [Eh]
	 Correlation Energy        =      -2.1820309257179442 [Eh]
	 Total Energy              =    -514.7349206092206941 [Eh]

	 ================> DF-SCS-MP2 Energies <==================
	-----------------------------------------------------------
	 SCS Same-Spin Scale       =       0.3333333333333333 [-]
	 SCS Opposite-Spin Scale   =       1.2000000000000000 [-]
	 SCS Same-Spin Energy      =      -0.1788998370429950 [Eh]
	 SCS Opposite-Spin Energy  =      -1.9743976975067512 [Eh]
	 SCS Correlation Energy    =      -2.1532975345497460 [Eh]
	 SCS Total Energy          =    -514.7061872180524915 [Eh]
	-----------------------------------------------------------

  Dipole Moment: [D]
     X:    -1.5715      Y:    -1.5677      Z:    -2.9616     Total:     3.7012

*** Psi4 exiting successfully. Buy a developer a beer!
