                               Psi4 1.4a3.dev225

  ==> Input File <==

--------------------------------------------------------------------------
#psi4
#
memory 32 gb

molecule  {
0 1
  O       -0.4983720     2.1660820    -0.3008080
  O        1.7439460     0.8852250     1.1595980
  N        2.0846670    -0.6693810    -0.4855240
  C       -0.1747200    -0.1425440     0.1301780
  C       -1.0501490     0.9240530    -0.1297870
  C       -0.6950920    -1.4344860     0.2644570
  C        1.2852914     0.0931319     0.3060580
  C       -2.4223480     0.6871570    -0.2466200
  C       -2.0666220    -1.6719060     0.1573390
  C       -2.9283400    -0.6051620    -0.0964900
  C        3.5272930    -0.5029810    -0.4769650
  H       -0.0118380    -2.2529100     0.4809780
  H       -3.0973410     1.5164000    -0.4561860
  H       -2.4584240    -2.6782030     0.2778980
  H       -3.9991860    -0.7724420    -0.1829770
  H        1.6477640    -1.1074140    -1.2860730
  H        3.8478870     0.3529870    -1.0808760
  H        3.9959260    -1.4118430    -0.8588240
  H        3.8425270    -0.3337350     0.5522170
  H       -1.2204240     2.8028430    -0.4486720
units angstrom
no_reorient  #important for SAPT in psi4, default
symmetry c1  #important for SAPT in psi4, default
}

set PROPERTIES_ORIGIN ["COM"]
properties('MP2/aug-cc-pvtz', properties = ['dipole'])
--------------------------------------------------------------------------

    Molecular point group: c1
  Charge       = 0
  Multiplicity = 1
  Basis Set: AUG-CC-PVTZ
    Blend: AUG-CC-PVTZ
  Basis Set: (AUG-CC-PVTZ AUX)
    Blend: AUG-CC-PVTZ-JKFIT

    Orbital Energies [Eh]
    ---------------------

    Doubly Occupied:

       1A    -20.597746     2A    -20.508957     3A    -15.586830
       4A    -11.350029     5A    -11.321227     6A    -11.258026
       7A    -11.257399     8A    -11.257366     9A    -11.249973
      10A    -11.247016    11A    -11.240851    12A     -1.409836
      13A     -1.355563    14A     -1.226497    15A     -1.160885
      16A     -1.048451    17A     -1.018249    18A     -0.953304
      19A     -0.866202    20A     -0.845641    21A     -0.784437
      22A     -0.742891    23A     -0.724943    24A     -0.675316
      25A     -0.649883    26A     -0.634468    27A     -0.618519
      28A     -0.613144    29A     -0.595288    30A     -0.586686
      31A     -0.573280    32A     -0.545263    33A     -0.534774
      34A     -0.520633    35A     -0.509834    36A     -0.489372
      37A     -0.419638    38A     -0.387949    39A     -0.354676
      40A     -0.326503

  @DF-RHF Final Energy:  -512.54983813029492

   => Energetics <=

    Nuclear Repulsion Energy =            587.1675552040067032
    One-Electron Energy =               -1863.3396992650364155
    Two-Electron Energy =                 763.6223059307347967
    Total Energy =                       -512.5498381302949156
  Basis Set: (AUG-CC-PVTZ AUX)
    Blend: AUG-CC-PVTZ-RI
    Molecular point group: c1

    Geometry (in Angstrom), charge = 0, multiplicity = 1:

       Center              X                  Y                   Z               Mass
    ------------   -----------------  -----------------  -----------------  -----------------
         O           -0.481062553271     2.141691923381    -0.319405991146    15.994914619570
         O            1.761255446729     0.860834923381     1.141000008854    15.994914619570
         N            2.101976446729    -0.693771076619    -0.504121991146    14.003074004430
         C           -0.157410553271    -0.166934076619     0.111580008854    12.000000000000
         C           -1.032839553271     0.899662923381    -0.148384991146    12.000000000000
         C           -0.677782553271    -1.458876076619     0.245859008854    12.000000000000
         C            1.302600846729     0.068741823381     0.287460008854    12.000000000000
         C           -2.405038553271     0.662766923381    -0.265217991146    12.000000000000
         C           -2.049312553271    -1.696296076619     0.138741008854    12.000000000000
         C           -2.911030553271    -0.629552076619    -0.115087991146    12.000000000000
         C            3.544602446729    -0.527371076619    -0.495562991146    12.000000000000
         H            0.005471446729    -2.277300076619     0.462380008854     1.007825032230
         H           -3.080031553271     1.492009923381    -0.474783991146     1.007825032230
         H           -2.441114553271    -2.702593076619     0.259300008854     1.007825032230
         H           -3.981876553271    -0.796832076619    -0.201574991146     1.007825032230
         H            1.665073446729    -1.131804076619    -1.304670991146     1.007825032230
         H            3.865196446729     0.328596923381    -1.099473991146     1.007825032230
         H            4.013235446729    -1.436233076619    -0.877421991146     1.007825032230
         H            3.859836446729    -0.358125076619     0.533619008854     1.007825032230
         H           -1.203114553271     2.778452923381    -0.467269991146     1.007825032230

  Basis Set: AUG-CC-PVTZ
    Blend: AUG-CC-PVTZ
  Basis Set: (AUG-CC-PVTZ AUX)
    Blend: AUG-CC-PVTZ-JKFIT
	 Reference Energy          =    -512.5498381302949156 [Eh]
	 Singles Energy            =      -0.0000000000000000 [Eh]
	 Same-Spin Energy          =      -0.5375298773539920 [Eh]
	 Opposite-Spin Energy      =      -1.6469855942764926 [Eh]
	 Correlation Energy        =      -2.1845154716304847 [Eh]
	 Total Energy              =    -514.7343536019253634 [Eh]

	 ================> DF-SCS-MP2 Energies <==================
	-----------------------------------------------------------
	 SCS Same-Spin Scale       =       0.3333333333333333 [-]
	 SCS Opposite-Spin Scale   =       1.2000000000000000 [-]
	 SCS Same-Spin Energy      =      -0.1791766257846640 [Eh]
	 SCS Opposite-Spin Energy  =      -1.9763827131317910 [Eh]
	 SCS Correlation Energy    =      -2.1555593389164551 [Eh]
	 SCS Total Energy          =    -514.7053974692113343 [Eh]
	-----------------------------------------------------------

  Dipole Moment: [D]
     X:    -1.7203      Y:    -1.6664      Z:    -3.0772     Total:     3.8994

*** Psi4 exiting successfully. Buy a developer a beer!
