                               Psi4 1.4a3.dev225

  ==> Input File <==

--------------------------------------------------------------------------
#psi4
#
memory 32 gb

molecule  {
0 1
  O       -0.4983720     2.1660820    -0.3008080
  O        1.7439460     0.8852250     1.1595980
  N        2.0846670    -0.6693810    -0.4855240
  C       -0.1747200    -0.1425440     0.1301780
  C       -1.0501490     0.9240530    -0.1297870
  C       -0.6950920    -1.4344860     0.2644570
  C        1.2926210     0.1057900     0.3196980
  C       -2.4223480     0.6871570    -0.2466200
  C       -2.0666220    -1.6719060     0.1573390
  C       -2.9283400    -0.6051620    -0.0964900
  C        3.5272930    -0.5029810    -0.4769650
  H       -0.0118380    -2.2529100     0.4809780
  H       -3.0973410     1.5164000    -0.4561860
  H       -2.4584240    -2.6782030     0.2778980
  H       -3.9991860    -0.7724420    -0.1829770
  H        1.6391274    -1.1160729    -1.3018981
  H        3.8478870     0.3529870    -1.0808760
  H        3.9959260    -1.4118430    -0.8588240
  H        3.8425270    -0.3337350     0.5522170
  H       -1.2204240     2.8028430    -0.4486720
units angstrom
no_reorient  #important for SAPT in psi4, default
symmetry c1  #important for SAPT in psi4, default
}

set PROPERTIES_ORIGIN ["COM"]
properties('MP2/aug-cc-pvtz', properties = ['dipole'])
--------------------------------------------------------------------------

    Molecular point group: c1
  Charge       = 0
  Multiplicity = 1
  Basis Set: AUG-CC-PVTZ
    Blend: AUG-CC-PVTZ
  Basis Set: (AUG-CC-PVTZ AUX)
    Blend: AUG-CC-PVTZ-JKFIT

    Orbital Energies [Eh]
    ---------------------

    Doubly Occupied:

       1A    -20.597669     2A    -20.513071     3A    -15.585755
       4A    -11.350004     5A    -11.320309     6A    -11.257245
       7A    -11.256674     8A    -11.255963     9A    -11.249425
      10A    -11.246505    11A    -11.240362    12A     -1.409880
      13A     -1.366850    14A     -1.223093    15A     -1.159912
      16A     -1.046629    17A     -1.017620    18A     -0.949843
      19A     -0.864937    20A     -0.843758    21A     -0.779777
      22A     -0.741935    23A     -0.722737    24A     -0.675097
      25A     -0.647993    26A     -0.635941    27A     -0.619092
      28A     -0.612437    29A     -0.595675    30A     -0.585875
      31A     -0.574972    32A     -0.544286    33A     -0.535761
      34A     -0.522550    35A     -0.511098    36A     -0.489697
      37A     -0.421376    38A     -0.388502    39A     -0.354242
      40A     -0.326077

  @DF-RHF Final Energy:  -512.55098522416165

   => Energetics <=

    Nuclear Repulsion Energy =            587.0531963245243787
    One-Electron Energy =               -1863.1271190797940562
    Two-Electron Energy =                 763.5229375311080275
    Total Energy =                       -512.5509852241616500
  Basis Set: (AUG-CC-PVTZ AUX)
    Blend: AUG-CC-PVTZ-RI
    Molecular point group: c1

    Geometry (in Angstrom), charge = 0, multiplicity = 1:

       Center              X                  Y                   Z               Mass
    ------------   -----------------  -----------------  -----------------  -----------------
         O           -0.481587174429     2.140744171566    -0.320383932447    15.994914619570
         O            1.760730825571     0.859887171566     1.140022067553    15.994914619570
         N            2.101451825571    -0.694718828434    -0.505099932447    14.003074004430
         C           -0.157935174429    -0.167881828434     0.110602067553    12.000000000000
         C           -1.033364174429     0.898715171566    -0.149362932447    12.000000000000
         C           -0.678307174429    -1.459823828434     0.244881067553    12.000000000000
         C            1.309405825571     0.080452171566     0.300122067553    12.000000000000
         C           -2.405563174429     0.661819171566    -0.266195932447    12.000000000000
         C           -2.049837174429    -1.697243828434     0.137763067553    12.000000000000
         C           -2.911555174429    -0.630499828434    -0.116065932447    12.000000000000
         C            3.544077825571    -0.528318828434    -0.496540932447    12.000000000000
         H            0.004946825571    -2.278247828434     0.461402067553     1.007825032230
         H           -3.080556174429     1.491062171566    -0.475761932447     1.007825032230
         H           -2.441639174429    -2.703540828434     0.258322067553     1.007825032230
         H           -3.982401174429    -0.797779828434    -0.202552932447     1.007825032230
         H            1.655912225571    -1.141410728434    -1.321474032447     1.007825032230
         H            3.864671825571     0.327649171566    -1.100451932447     1.007825032230
         H            4.012710825571    -1.437180828434    -0.878399932447     1.007825032230
         H            3.859311825571    -0.359072828434     0.532641067553     1.007825032230
         H           -1.203639174429     2.777505171566    -0.468247932447     1.007825032230

  Basis Set: AUG-CC-PVTZ
    Blend: AUG-CC-PVTZ
  Basis Set: (AUG-CC-PVTZ AUX)
    Blend: AUG-CC-PVTZ-JKFIT
	 Reference Energy          =    -512.5509852241616500 [Eh]
	 Singles Energy            =      -0.0000000000000000 [Eh]
	 Same-Spin Energy          =      -0.5372039001136721 [Eh]
	 Opposite-Spin Energy      =      -1.6464241204242607 [Eh]
	 Correlation Energy        =      -2.1836280205379328 [Eh]
	 Total Energy              =    -514.7346132446996307 [Eh]

	 ================> DF-SCS-MP2 Energies <==================
	-----------------------------------------------------------
	 SCS Same-Spin Scale       =       0.3333333333333333 [-]
	 SCS Opposite-Spin Scale   =       1.2000000000000000 [-]
	 SCS Same-Spin Energy      =      -0.1790679667045574 [Eh]
	 SCS Opposite-Spin Energy  =      -1.9757089445091127 [Eh]
	 SCS Correlation Energy    =      -2.1547769112136699 [Eh]
	 SCS Total Energy          =    -514.7057621353752666 [Eh]
	-----------------------------------------------------------

  Dipole Moment: [D]
     X:    -1.7079      Y:    -1.5875      Z:    -2.9870     Total:     3.7894

*** Psi4 exiting successfully. Buy a developer a beer!
