                               Psi4 1.4a3.dev225

  ==> Input File <==

--------------------------------------------------------------------------
#psi4
#
memory 32 gb

molecule  {
0 1
  O       -0.4983720     2.1660820    -0.3008080
  O        1.7439460     0.8852250     1.1595980
  N        2.0846670    -0.6693810    -0.4855240
  C       -0.1747200    -0.1425440     0.1301780
  C       -1.0501490     0.9240530    -0.1297870
  C       -0.6950920    -1.4344860     0.2644570
  C        1.2193255    -0.0207908     0.1832976
  C       -2.4223480     0.6871570    -0.2466200
  C       -2.0666220    -1.6719060     0.1573390
  C       -2.9283400    -0.6051620    -0.0964900
  C        3.5272930    -0.5029810    -0.4769650
  H       -0.0118380    -2.2529100     0.4809780
  H       -3.0973410     1.5164000    -0.4561860
  H       -2.4584240    -2.6782030     0.2778980
  H       -3.9991860    -0.7724420    -0.1829770
  H        1.6477640    -1.1074140    -1.2860730
  H        3.8478870     0.3529870    -1.0808760
  H        3.9959260    -1.4118430    -0.8588240
  H        3.8425270    -0.3337350     0.5522170
  H       -1.2204240     2.8028430    -0.4486720
units angstrom
no_reorient  #important for SAPT in psi4, default
symmetry c1  #important for SAPT in psi4, default
}

set PROPERTIES_ORIGIN ["COM"]
properties('MP2/aug-cc-pvtz', properties = ['dipole'])
--------------------------------------------------------------------------

    Molecular point group: c1
  Charge       = 0
  Multiplicity = 1
  Basis Set: AUG-CC-PVTZ
    Blend: AUG-CC-PVTZ
  Basis Set: (AUG-CC-PVTZ AUX)
    Blend: AUG-CC-PVTZ-JKFIT

    Orbital Energies [Eh]
    ---------------------

    Doubly Occupied:

       1A    -20.597588     2A    -20.472288     3A    -15.612689
       4A    -11.345922     5A    -11.327832     6A    -11.270289
       7A    -11.263029     8A    -11.261943     9A    -11.252778
      10A    -11.250580    11A    -11.244139    12A     -1.409408
      13A     -1.325710    14A     -1.189195    15A     -1.165969
      16A     -1.063307    17A     -1.022381    18A     -0.979386
      19A     -0.877148    20A     -0.856754    21A     -0.794570
      22A     -0.751658    23A     -0.735709    24A     -0.678297
      25A     -0.667562    26A     -0.641777    27A     -0.622918
      28A     -0.617076    29A     -0.597978    30A     -0.587752
      31A     -0.565829    32A     -0.538702    33A     -0.524197
      34A     -0.511154    35A     -0.491661    36A     -0.482999
      37A     -0.391444    38A     -0.367217    39A     -0.350431
      40A     -0.327118

  @DF-RHF Final Energy:  -512.48663040648034

   => Energetics <=

    Nuclear Repulsion Energy =            587.5091155220507062
    One-Electron Energy =               -1863.9227245869619765
    Two-Electron Energy =                 763.9269786584309259
    Total Energy =                       -512.4866304064803444
  Basis Set: (AUG-CC-PVTZ AUX)
    Blend: AUG-CC-PVTZ-RI
    Molecular point group: c1

    Geometry (in Angstrom), charge = 0, multiplicity = 1:

       Center              X                  Y                   Z               Mass
    ------------   -----------------  -----------------  -----------------  -----------------
         O           -0.475822427771     2.150741587607    -0.309654287577    15.994914619570
         O            1.766495572229     0.869884587607     1.150751712423    15.994914619570
         N            2.107216572229    -0.684721412393    -0.494370287577    14.003074004430
         C           -0.152170427771    -0.157884412393     0.121331712423    12.000000000000
         C           -1.027599427771     0.908712587607    -0.138633287577    12.000000000000
         C           -0.672542427771    -1.449826412393     0.255610712423    12.000000000000
         C            1.241875072229    -0.036131212393     0.174451312423    12.000000000000
         C           -2.399798427771     0.671816587607    -0.255466287577    12.000000000000
         C           -2.044072427771    -1.687246412393     0.148492712423    12.000000000000
         C           -2.905790427771    -0.620502412393    -0.105336287577    12.000000000000
         C            3.549842572229    -0.518321412393    -0.485811287577    12.000000000000
         H            0.010711572229    -2.268250412393     0.472131712423     1.007825032230
         H           -3.074791427771     1.501059587607    -0.465032287577     1.007825032230
         H           -2.435874427771    -2.693543412393     0.269051712423     1.007825032230
         H           -3.976636427771    -0.787782412393    -0.191823287577     1.007825032230
         H            1.670313572229    -1.122754412393    -1.294919287577     1.007825032230
         H            3.870436572229     0.337646587607    -1.089722287577     1.007825032230
         H            4.018475572229    -1.427183412393    -0.867670287577     1.007825032230
         H            3.865076572229    -0.349075412393     0.543370712423     1.007825032230
         H           -1.197874427771     2.787502587607    -0.457518287577     1.007825032230

  Basis Set: AUG-CC-PVTZ
    Blend: AUG-CC-PVTZ
  Basis Set: (AUG-CC-PVTZ AUX)
    Blend: AUG-CC-PVTZ-JKFIT
	 Reference Energy          =    -512.4866304064803444 [Eh]
	 Singles Energy            =      -0.0000000000000000 [Eh]
	 Same-Spin Energy          =      -0.5419653576262027 [Eh]
	 Opposite-Spin Energy      =      -1.6555027271432676 [Eh]
	 Correlation Energy        =      -2.1974680847694703 [Eh]
	 Total Energy              =    -514.6840984912498698 [Eh]

	 ================> DF-SCS-MP2 Energies <==================
	-----------------------------------------------------------
	 SCS Same-Spin Scale       =       0.3333333333333333 [-]
	 SCS Opposite-Spin Scale   =       1.2000000000000000 [-]
	 SCS Same-Spin Energy      =      -0.1806551192087342 [Eh]
	 SCS Opposite-Spin Energy  =      -1.9866032725719212 [Eh]
	 SCS Correlation Energy    =      -2.1672583917806554 [Eh]
	 SCS Total Energy          =    -514.6538887982610504 [Eh]
	-----------------------------------------------------------

  Dipole Moment: [D]
     X:    -1.7731      Y:    -2.3395      Z:    -3.9062     Total:     4.8862

*** Psi4 exiting successfully. Buy a developer a beer!
