                               Psi4 1.4a3.dev225

  ==> Input File <==

--------------------------------------------------------------------------
#psi4
#
memory 32 gb

molecule  {
0 1
  O       -0.4983720     2.1660820    -0.3008080
  O        1.7439460     0.8852250     1.1595980
  N        2.0846670    -0.6693810    -0.4855240
  C       -0.1747200    -0.1425440     0.1301780
  C       -1.0501490     0.9240530    -0.1297870
  C       -0.6950920    -1.4344860     0.2644570
  C        1.3904290     0.1223431     0.3323308
  C       -2.4223480     0.6871570    -0.2466200
  C       -2.0666220    -1.6719060     0.1573390
  C       -2.9283400    -0.6051620    -0.0964900
  C        3.5272930    -0.5029810    -0.4769650
  H       -0.0118380    -2.2529100     0.4809780
  H       -3.0973410     1.5164000    -0.4561860
  H       -2.4584240    -2.6782030     0.2778980
  H       -3.9991860    -0.7724420    -0.1829770
  H        1.6477640    -1.1074140    -1.2860730
  H        3.8478870     0.3529870    -1.0808760
  H        3.9959260    -1.4118430    -0.8588240
  H        3.8425270    -0.3337350     0.5522170
  H       -1.2204240     2.8028430    -0.4486720
units angstrom
no_reorient  #important for SAPT in psi4, default
symmetry c1  #important for SAPT in psi4, default
}

set PROPERTIES_ORIGIN ["COM"]
properties('MP2/aug-cc-pvtz', properties = ['dipole'])
--------------------------------------------------------------------------

    Molecular point group: c1
  Charge       = 0
  Multiplicity = 1
  Basis Set: AUG-CC-PVTZ
    Blend: AUG-CC-PVTZ
  Basis Set: (AUG-CC-PVTZ AUX)
    Blend: AUG-CC-PVTZ-JKFIT

    Orbital Energies [Eh]
    ---------------------

    Doubly Occupied:

       1A    -20.592933     2A    -20.520485     3A    -15.588324
       4A    -11.349220     5A    -11.312188     6A    -11.259469
       7A    -11.249585     8A    -11.249324     9A    -11.244193
      10A    -11.241225    11A    -11.235036    12A     -1.408766
      13A     -1.399442    14A     -1.246786    15A     -1.151990
      16A     -1.032852    17A     -1.010576    18A     -0.954110
      19A     -0.854046    20A     -0.833266    21A     -0.796986
      22A     -0.737115    23A     -0.717942    24A     -0.670568
      25A     -0.649889    26A     -0.643509    27A     -0.628459
      28A     -0.608695    29A     -0.593512    30A     -0.582078
      31A     -0.572094    32A     -0.554295    33A     -0.542363
      34A     -0.526708    35A     -0.510989    36A     -0.486229
      37A     -0.414089    38A     -0.400232    39A     -0.347614
      40A     -0.319853

  @DF-RHF Final Energy:  -512.54569696322994

   => Energetics <=

    Nuclear Repulsion Energy =            586.9748206458272080
    One-Electron Energy =               -1862.9669637008873906
    Two-Electron Energy =                 763.4464460918303530
    Total Energy =                       -512.5456969632299433
  Basis Set: (AUG-CC-PVTZ AUX)
    Blend: AUG-CC-PVTZ-RI
    Molecular point group: c1

    Geometry (in Angstrom), charge = 0, multiplicity = 1:

       Center              X                  Y                   Z               Mass
    ------------   -----------------  -----------------  -----------------  -----------------
         O           -0.489414356533     2.139371476696    -0.321493020494    15.994914619570
         O            1.752903643467     0.858514476696     1.138912979506    15.994914619570
         N            2.093624643467    -0.696091523304    -0.506209020494    14.003074004430
         C           -0.165762356533    -0.169254523304     0.109492979506    12.000000000000
         C           -1.041191356533     0.897342476696    -0.150472020494    12.000000000000
         C           -0.686134356533    -1.461196523304     0.243771979506    12.000000000000
         C            1.399386643467     0.095632576696     0.311645779506    12.000000000000
         C           -2.413390356533     0.660446476696    -0.267305020494    12.000000000000
         C           -2.057664356533    -1.698616523304     0.136653979506    12.000000000000
         C           -2.919382356533    -0.631872523304    -0.117175020494    12.000000000000
         C            3.536250643467    -0.529691523304    -0.497650020494    12.000000000000
         H           -0.002880356533    -2.279620523304     0.460292979506     1.007825032230
         H           -3.088383356533     1.489689476696    -0.476871020494     1.007825032230
         H           -2.449466356533    -2.704913523304     0.257212979506     1.007825032230
         H           -3.990228356533    -0.799152523304    -0.203662020494     1.007825032230
         H            1.656721643467    -1.134124523304    -1.306758020494     1.007825032230
         H            3.856844643467     0.326276476696    -1.101561020494     1.007825032230
         H            4.004883643467    -1.438553523304    -0.879509020494     1.007825032230
         H            3.851484643467    -0.360445523304     0.531531979506     1.007825032230
         H           -1.211466356533     2.776132476696    -0.469357020494     1.007825032230

  Basis Set: AUG-CC-PVTZ
    Blend: AUG-CC-PVTZ
  Basis Set: (AUG-CC-PVTZ AUX)
    Blend: AUG-CC-PVTZ-JKFIT
	 Reference Energy          =    -512.5456969632299433 [Eh]
	 Singles Energy            =      -0.0000000000000000 [Eh]
	 Same-Spin Energy          =      -0.5358352085162281 [Eh]
	 Opposite-Spin Energy      =      -1.6433746803027489 [Eh]
	 Correlation Energy        =      -2.1792098888189768 [Eh]
	 Total Energy              =    -514.7249068520488890 [Eh]

	 ================> DF-SCS-MP2 Energies <==================
	-----------------------------------------------------------
	 SCS Same-Spin Scale       =       0.3333333333333333 [-]
	 SCS Opposite-Spin Scale   =       1.2000000000000000 [-]
	 SCS Same-Spin Energy      =      -0.1786117361720760 [Eh]
	 SCS Opposite-Spin Energy  =      -1.9720496163632986 [Eh]
	 SCS Correlation Energy    =      -2.1506613525353746 [Eh]
	 SCS Total Energy          =    -514.6963583157653375 [Eh]
	-----------------------------------------------------------

  Dipole Moment: [D]
     X:    -0.9811      Y:    -1.5027      Z:    -2.8995     Total:     3.4099

*** Psi4 exiting successfully. Buy a developer a beer!
