                               Psi4 1.4a3.dev225

  ==> Input File <==

--------------------------------------------------------------------------
#psi4
#
memory 32 gb

molecule  {
0 1
  O       -0.4983720     2.1660820    -0.3008080
  O        1.7439460     0.8852250     1.1595980
  N        2.0846670    -0.6693810    -0.4855240
  C       -0.1747200    -0.1425440     0.1301780
  C       -1.0501490     0.9240530    -0.1297870
  C       -0.6950920    -1.4344860     0.2644570
  C        1.2926210     0.1057900     0.3196980
  C       -2.4223480     0.6871570    -0.2466200
  C       -2.0666220    -1.6719060     0.1573390
  C       -2.9283400    -0.6051620    -0.0964900
  C        3.5272930    -0.5029810    -0.4769650
  H       -0.0118380    -2.2529100     0.4809780
  H       -3.0973410     1.5164000    -0.4561860
  H       -2.4584240    -2.6782030     0.2778980
  H       -3.9991860    -0.7724420    -0.1829770
  H        1.6477640    -1.1074140    -1.2860730
  H        3.8478870     0.3529870    -1.0808760
  H        4.0045126    -1.4284958    -0.8658207
  H        3.8425270    -0.3337350     0.5522170
  H       -1.2204240     2.8028430    -0.4486720
units angstrom
no_reorient  #important for SAPT in psi4, default
symmetry c1  #important for SAPT in psi4, default
}

set PROPERTIES_ORIGIN ["COM"]
properties('MP2/aug-cc-pvtz', properties = ['dipole'])
--------------------------------------------------------------------------

    Molecular point group: c1
  Charge       = 0
  Multiplicity = 1
  Basis Set: AUG-CC-PVTZ
    Blend: AUG-CC-PVTZ
  Basis Set: (AUG-CC-PVTZ AUX)
    Blend: AUG-CC-PVTZ-JKFIT

    Orbital Energies [Eh]
    ---------------------

    Doubly Occupied:

       1A    -20.597793     2A    -20.513259     3A    -15.584139
       4A    -11.350207     5A    -11.320465     6A    -11.258433
       7A    -11.257407     8A    -11.256805     9A    -11.249581
      10A    -11.246607    11A    -11.240459    12A     -1.410009
      13A     -1.367196    14A     -1.225396    15A     -1.160078
      16A     -1.046709    17A     -1.017737    18A     -0.948788
      19A     -0.865114    20A     -0.844106    21A     -0.783281
      22A     -0.742231    23A     -0.723367    24A     -0.675265
      25A     -0.648142    26A     -0.636208    27A     -0.619331
      28A     -0.612351    29A     -0.595680    30A     -0.585696
      31A     -0.574988    32A     -0.543066    33A     -0.535876
      34A     -0.522575    35A     -0.511271    36A     -0.489803
      37A     -0.421625    38A     -0.388866    39A     -0.354406
      40A     -0.326198

  @DF-RHF Final Energy:  -512.55157300002293

   => Energetics <=

    Nuclear Repulsion Energy =            587.0703172048930583
    One-Electron Energy =               -1863.1427532338382207
    Two-Electron Energy =                 763.5208630289221219
    Total Energy =                       -512.5515730000229269
  Basis Set: (AUG-CC-PVTZ AUX)
    Blend: AUG-CC-PVTZ-RI
    Molecular point group: c1

    Geometry (in Angstrom), charge = 0, multiplicity = 1:

       Center              X                  Y                   Z               Mass
    ------------   -----------------  -----------------  -----------------  -----------------
         O           -0.481702079696     2.140797503189    -0.320442831471    15.994914619570
         O            1.760615920304     0.859940503189     1.139963168529    15.994914619570
         N            2.101336920304    -0.694665496811    -0.505158831471    14.003074004430
         C           -0.158050079696    -0.167828496811     0.110543168529    12.000000000000
         C           -1.033479079696     0.898768503189    -0.149421831471    12.000000000000
         C           -0.678422079696    -1.459770496811     0.244822168529    12.000000000000
         C            1.309290920304     0.080505503189     0.300063168529    12.000000000000
         C           -2.405678079696     0.661872503189    -0.266254831471    12.000000000000
         C           -2.049952079696    -1.697190496811     0.137704168529    12.000000000000
         C           -2.911670079696    -0.630446496811    -0.116124831471    12.000000000000
         C            3.543962920304    -0.528265496811    -0.496599831471    12.000000000000
         H            0.004831920304    -2.278194496811     0.461343168529     1.007825032230
         H           -3.080671079696     1.491115503189    -0.475820831471     1.007825032230
         H           -2.441754079696    -2.703487496811     0.258263168529     1.007825032230
         H           -3.982516079696    -0.797726496811    -0.202611831471     1.007825032230
         H            1.664433920304    -1.132698496811    -1.305707831471     1.007825032230
         H            3.864556920304     0.327702503189    -1.100510831471     1.007825032230
         H            4.021182520304    -1.453780296811    -0.885455531471     1.007825032230
         H            3.859196920304    -0.359019496811     0.532582168529     1.007825032230
         H           -1.203754079696     2.777558503189    -0.468306831471     1.007825032230

  Basis Set: AUG-CC-PVTZ
    Blend: AUG-CC-PVTZ
  Basis Set: (AUG-CC-PVTZ AUX)
    Blend: AUG-CC-PVTZ-JKFIT
	 Reference Energy          =    -512.5515730000229269 [Eh]
	 Singles Energy            =      -0.0000000000000000 [Eh]
	 Same-Spin Energy          =      -0.5370398300301324 [Eh]
	 Opposite-Spin Energy      =      -1.6461813267580991 [Eh]
	 Correlation Energy        =      -2.1832211567882318 [Eh]
	 Total Energy              =    -514.7347941568111764 [Eh]

	 ================> DF-SCS-MP2 Energies <==================
	-----------------------------------------------------------
	 SCS Same-Spin Scale       =       0.3333333333333333 [-]
	 SCS Opposite-Spin Scale   =       1.2000000000000000 [-]
	 SCS Same-Spin Energy      =      -0.1790132766767108 [Eh]
	 SCS Opposite-Spin Energy  =      -1.9754175921097188 [Eh]
	 SCS Correlation Energy    =      -2.1544308687864295 [Eh]
	 SCS Total Energy          =    -514.7060038688093755 [Eh]
	-----------------------------------------------------------

  Dipole Moment: [D]
     X:    -1.7197      Y:    -1.5730      Z:    -2.9698     Total:     3.7751

*** Psi4 exiting successfully. Buy a developer a beer!
