                               Psi4 1.4a3.dev225

  ==> Input File <==

--------------------------------------------------------------------------
#psi4
#
memory 32 gb

molecule  {
0 1
  O       -0.4983720     2.1660820    -0.3008080
  O        1.7439460     0.8852250     1.1595980
  N        2.0846670    -0.6693810    -0.4855240
  C       -0.1747200    -0.1425440     0.1301780
  C       -1.0501490     0.9240530    -0.1297870
  C       -0.6950920    -1.4344860     0.2644570
  C        1.2926210     0.1057900     0.3196980
  C       -2.4223480     0.6871570    -0.2466200
  C       -2.0666220    -1.6719060     0.1573390
  C       -2.9283400    -0.6051620    -0.0964900
  C        3.5272930    -0.5029810    -0.4769650
  H        0.0509666    -2.3281394     0.5008806
  H       -3.0973410     1.5164000    -0.4561860
  H       -2.4584240    -2.6782030     0.2778980
  H       -3.9991860    -0.7724420    -0.1829770
  H        1.6477640    -1.1074140    -1.2860730
  H        3.8478870     0.3529870    -1.0808760
  H        3.9959260    -1.4118430    -0.8588240
  H        3.8425270    -0.3337350     0.5522170
  H       -1.2204240     2.8028430    -0.4486720
units angstrom
no_reorient  #important for SAPT in psi4, default
symmetry c1  #important for SAPT in psi4, default
}

set PROPERTIES_ORIGIN ["COM"]
properties('MP2/aug-cc-pvtz', properties = ['dipole'])
--------------------------------------------------------------------------

    Molecular point group: c1
  Charge       = 0
  Multiplicity = 1
  Basis Set: AUG-CC-PVTZ
    Blend: AUG-CC-PVTZ
  Basis Set: (AUG-CC-PVTZ AUX)
    Blend: AUG-CC-PVTZ-JKFIT

    Orbital Energies [Eh]
    ---------------------

    Doubly Occupied:

       1A    -20.598160     2A    -20.513106     3A    -15.583541
       4A    -11.350076     5A    -11.321101     6A    -11.268198
       7A    -11.257419     8A    -11.255819     9A    -11.250499
      10A    -11.246913    11A    -11.241299    12A     -1.410361
      13A     -1.366996    14A     -1.225065    15A     -1.160015
      16A     -1.046209    17A     -1.016467    18A     -0.950017
      19A     -0.862023    20A     -0.843573    21A     -0.783112
      22A     -0.737372    23A     -0.722472    24A     -0.674873
      25A     -0.648537    26A     -0.636038    27A     -0.616916
      28A     -0.605767    29A     -0.596143    30A     -0.583680
      31A     -0.575372    32A     -0.545059    33A     -0.534546
      34A     -0.521219    35A     -0.507486    36A     -0.490314
      37A     -0.421513    38A     -0.388407    39A     -0.354826
      40A     -0.326683

  @DF-RHF Final Energy:  -512.54459459334407

   => Energetics <=

    Nuclear Repulsion Energy =            586.6846550852330893
    One-Electron Energy =               -1862.3841116313947168
    Two-Electron Energy =                 763.1548619528175550
    Total Energy =                       -512.5445945933440726
  Basis Set: (AUG-CC-PVTZ AUX)
    Blend: AUG-CC-PVTZ-RI
    Molecular point group: c1

    Geometry (in Angstrom), charge = 0, multiplicity = 1:

       Center              X                  Y                   Z               Mass
    ------------   -----------------  -----------------  -----------------  -----------------
         O           -0.482063797250     2.141188299317    -0.320622291225    15.994914619570
         O            1.760254202750     0.860331299317     1.139783708775    15.994914619570
         N            2.100975202750    -0.694274700683    -0.505338291225    14.003074004430
         C           -0.158411797250    -0.167437700683     0.110363708775    12.000000000000
         C           -1.033840797250     0.899159299317    -0.149601291225    12.000000000000
         C           -0.678783797250    -1.459379700683     0.244642708775    12.000000000000
         C            1.308929202750     0.080896299317     0.299883708775    12.000000000000
         C           -2.406039797250     0.662263299317    -0.266434291225    12.000000000000
         C           -2.050313797250    -1.696799700683     0.137524708775    12.000000000000
         C           -2.912031797250    -0.630055700683    -0.116304291225    12.000000000000
         C            3.543601202750    -0.527874700683    -0.496779291225    12.000000000000
         H            0.067274802750    -2.353033100683     0.481066308775     1.007825032230
         H           -3.081032797250     1.491506299317    -0.476000291225     1.007825032230
         H           -2.442115797250    -2.703096700683     0.258083708775     1.007825032230
         H           -3.982877797250    -0.797335700683    -0.202791291225     1.007825032230
         H            1.664072202750    -1.132307700683    -1.305887291225     1.007825032230
         H            3.864195202750     0.328093299317    -1.100690291225     1.007825032230
         H            4.012234202750    -1.436736700683    -0.878638291225     1.007825032230
         H            3.858835202750    -0.358628700683     0.532402708775     1.007825032230
         H           -1.204115797250     2.777949299317    -0.468486291225     1.007825032230

  Basis Set: AUG-CC-PVTZ
    Blend: AUG-CC-PVTZ
  Basis Set: (AUG-CC-PVTZ AUX)
    Blend: AUG-CC-PVTZ-JKFIT
	 Reference Energy          =    -512.5445945933440726 [Eh]
	 Singles Energy            =      -0.0000000000000000 [Eh]
	 Same-Spin Energy          =      -0.5373403283196462 [Eh]
	 Opposite-Spin Energy      =      -1.6470136181088793 [Eh]
	 Correlation Energy        =      -2.1843539464285255 [Eh]
	 Total Energy              =    -514.7289485397725457 [Eh]

	 ================> DF-SCS-MP2 Energies <==================
	-----------------------------------------------------------
	 SCS Same-Spin Scale       =       0.3333333333333333 [-]
	 SCS Opposite-Spin Scale   =       1.2000000000000000 [-]
	 SCS Same-Spin Energy      =      -0.1791134427732154 [Eh]
	 SCS Opposite-Spin Energy  =      -1.9764163417306551 [Eh]
	 SCS Correlation Energy    =      -2.1555297845038703 [Eh]
	 SCS Total Energy          =    -514.7001243778479420 [Eh]
	-----------------------------------------------------------

  Dipole Moment: [D]
     X:    -1.7286      Y:    -1.5577      Z:    -2.9789     Total:     3.7799

*** Psi4 exiting successfully. Buy a developer a beer!
