                               Psi4 1.4a3.dev225

  ==> Input File <==

--------------------------------------------------------------------------
#psi4
#
memory 32 gb

molecule  {
0 1
  O       -0.4983720     2.1660820    -0.3008080
  O        1.7439460     0.8852250     1.1595980
  N        2.0846670    -0.6693810    -0.4855240
  C       -0.1747200    -0.1425440     0.1301780
  C       -1.0501490     0.9240530    -0.1297870
  C       -0.6950920    -1.4344860     0.2644570
  C        1.2926210     0.1057900     0.3196980
  C       -2.4223480     0.6871570    -0.2466200
  C       -2.0666220    -1.6719060     0.1573390
  C       -2.9283400    -0.6051620    -0.0964900
  C        3.5272930    -0.5029810    -0.4769650
  H       -0.0118380    -2.2529100     0.4809780
  H       -3.1592910     1.5925069    -0.4754197
  H       -2.4584240    -2.6782030     0.2778980
  H       -3.9991860    -0.7724420    -0.1829770
  H        1.6477640    -1.1074140    -1.2860730
  H        3.8478870     0.3529870    -1.0808760
  H        3.9959260    -1.4118430    -0.8588240
  H        3.8425270    -0.3337350     0.5522170
  H       -1.2204240     2.8028430    -0.4486720
units angstrom
no_reorient  #important for SAPT in psi4, default
symmetry c1  #important for SAPT in psi4, default
}

set PROPERTIES_ORIGIN ["COM"]
properties('MP2/aug-cc-pvtz', properties = ['dipole'])
--------------------------------------------------------------------------

    Molecular point group: c1
  Charge       = 0
  Multiplicity = 1
  Basis Set: AUG-CC-PVTZ
    Blend: AUG-CC-PVTZ
  Basis Set: (AUG-CC-PVTZ AUX)
    Blend: AUG-CC-PVTZ-JKFIT

    Orbital Energies [Eh]
    ---------------------

    Doubly Occupied:

       1A    -20.597424     2A    -20.513446     3A    -15.584233
       4A    -11.350489     5A    -11.321552     6A    -11.258519
       7A    -11.257857     8A    -11.257309     9A    -11.256194
      10A    -11.250355    11A    -11.241261    12A     -1.409707
      13A     -1.367353    14A     -1.225650    15A     -1.160398
      16A     -1.046003    17A     -1.016574    18A     -0.950512
      19A     -0.863188    20A     -0.843234    21A     -0.782921
      22A     -0.738838    23A     -0.723026    24A     -0.675105
      25A     -0.646565    26A     -0.635725    27A     -0.617283
      28A     -0.604048    29A     -0.595788    30A     -0.586460
      31A     -0.574564    32A     -0.545388    33A     -0.535112
      34A     -0.522570    35A     -0.507809    36A     -0.490366
      37A     -0.421796    38A     -0.389094    39A     -0.355028
      40A     -0.326780

  @DF-RHF Final Energy:  -512.54476677547041

   => Energetics <=

    Nuclear Repulsion Energy =            586.6592069766237501
    One-Electron Energy =               -1862.3169023005093550
    Two-Electron Energy =                 763.1129285484150842
    Total Energy =                       -512.5447667754704071
  Basis Set: (AUG-CC-PVTZ AUX)
    Blend: AUG-CC-PVTZ-RI
    Molecular point group: c1

    Geometry (in Angstrom), charge = 0, multiplicity = 1:

       Center              X                  Y                   Z               Mass
    ------------   -----------------  -----------------  -----------------  -----------------
         O           -0.481231491951     2.140178653144    -0.320361191836    15.994914619570
         O            1.761086508049     0.859321653144     1.140044808164    15.994914619570
         N            2.101807508049    -0.695284346856    -0.505077191836    14.003074004430
         C           -0.157579491951    -0.168447346856     0.110624808164    12.000000000000
         C           -1.033008491951     0.898149653144    -0.149340191836    12.000000000000
         C           -0.677951491951    -1.460389346856     0.244903808164    12.000000000000
         C            1.309761508049     0.079886653144     0.300144808164    12.000000000000
         C           -2.405207491951     0.661253653144    -0.266173191836    12.000000000000
         C           -2.049481491951    -1.697809346856     0.137785808164    12.000000000000
         C           -2.911199491951    -0.631065346856    -0.116043191836    12.000000000000
         C            3.544433508049    -0.528884346856    -0.496518191836    12.000000000000
         H            0.005302508049    -2.278813346856     0.461424808164     1.007825032230
         H           -3.142150491951     1.566603553144    -0.494972891836     1.007825032230
         H           -2.441283491951    -2.704106346856     0.258344808164     1.007825032230
         H           -3.982045491951    -0.798345346856    -0.202530191836     1.007825032230
         H            1.664904508049    -1.133317346856    -1.305626191836     1.007825032230
         H            3.865027508049     0.327083653144    -1.100429191836     1.007825032230
         H            4.013066508049    -1.437746346856    -0.878377191836     1.007825032230
         H            3.859667508049    -0.359638346856     0.532663808164     1.007825032230
         H           -1.203283491951     2.776939653144    -0.468225191836     1.007825032230

  Basis Set: AUG-CC-PVTZ
    Blend: AUG-CC-PVTZ
  Basis Set: (AUG-CC-PVTZ AUX)
    Blend: AUG-CC-PVTZ-JKFIT
	 Reference Energy          =    -512.5447667754704071 [Eh]
	 Singles Energy            =      -0.0000000000000000 [Eh]
	 Same-Spin Energy          =      -0.5372896567151026 [Eh]
	 Opposite-Spin Energy      =      -1.6469449568620504 [Eh]
	 Correlation Energy        =      -2.1842346135771531 [Eh]
	 Total Energy              =    -514.7290013890475393 [Eh]

	 ================> DF-SCS-MP2 Energies <==================
	-----------------------------------------------------------
	 SCS Same-Spin Scale       =       0.3333333333333333 [-]
	 SCS Opposite-Spin Scale   =       1.2000000000000000 [-]
	 SCS Same-Spin Energy      =      -0.1790965522383675 [Eh]
	 SCS Opposite-Spin Energy  =      -1.9763339482344604 [Eh]
	 SCS Correlation Energy    =      -2.1554305004728280 [Eh]
	 SCS Total Energy          =    -514.7001972759431965 [Eh]
	-----------------------------------------------------------

  Dipole Moment: [D]
     X:    -1.6841      Y:    -1.6227      Z:    -2.9647     Total:     3.7761

*** Psi4 exiting successfully. Buy a developer a beer!
