                               Psi4 1.4a3.dev225

  ==> Input File <==

--------------------------------------------------------------------------
#psi4
#
memory 32 gb

molecule  {
0 1
  O       -0.4983720     2.1660820    -0.3008080
  O        1.7439460     0.8852250     1.1595980
  N        2.0846670    -0.6693810    -0.4855240
  C       -0.1747200    -0.1425440     0.1301780
  C       -1.0501490     0.9240530    -0.1297870
  C       -0.6950920    -1.4344860     0.2644570
  C        1.2926210     0.1057900     0.3196980
  C       -2.4223480     0.6871570    -0.2466200
  C       -2.0469732    -1.6685047     0.1588736
  C       -2.9283400    -0.6051620    -0.0964900
  C        3.5272930    -0.5029810    -0.4769650
  H       -0.0118380    -2.2529100     0.4809780
  H       -3.0973410     1.5164000    -0.4561860
  H       -2.4584240    -2.6782030     0.2778980
  H       -3.9991860    -0.7724420    -0.1829770
  H        1.6477640    -1.1074140    -1.2860730
  H        3.8478870     0.3529870    -1.0808760
  H        3.9959260    -1.4118430    -0.8588240
  H        3.8425270    -0.3337350     0.5522170
  H       -1.2204240     2.8028430    -0.4486720
units angstrom
no_reorient  #important for SAPT in psi4, default
symmetry c1  #important for SAPT in psi4, default
}

set PROPERTIES_ORIGIN ["COM"]
properties('MP2/aug-cc-pvtz', properties = ['dipole'])
--------------------------------------------------------------------------

    Molecular point group: c1
  Charge       = 0
  Multiplicity = 1
  Basis Set: AUG-CC-PVTZ
    Blend: AUG-CC-PVTZ
  Basis Set: (AUG-CC-PVTZ AUX)
    Blend: AUG-CC-PVTZ-JKFIT

    Orbital Energies [Eh]
    ---------------------

    Doubly Occupied:

       1A    -20.597637     2A    -20.512874     3A    -15.583708
       4A    -11.349743     5A    -11.320178     6A    -11.258064
       7A    -11.255849     8A    -11.254764     9A    -11.248856
      10A    -11.247139    11A    -11.240179    12A     -1.409853
      13A     -1.366799    14A     -1.225156    15A     -1.161117
      16A     -1.046120    17A     -1.019248    18A     -0.950168
      19A     -0.865208    20A     -0.843922    21A     -0.782952
      22A     -0.742447    23A     -0.722833    24A     -0.675852
      25A     -0.647114    26A     -0.635498    27A     -0.619333
      28A     -0.612771    29A     -0.595722    30A     -0.588193
      31A     -0.575160    32A     -0.545064    33A     -0.533487
      34A     -0.524100    35A     -0.509423    36A     -0.490536
      37A     -0.421389    38A     -0.388665    39A     -0.354901
      40A     -0.326193

  @DF-RHF Final Energy:  -512.55160620683432

   => Energetics <=

    Nuclear Repulsion Energy =            587.4239946528772407
    One-Electron Energy =               -1863.8547692518295662
    Two-Electron Energy =                 763.8791683921178901
    Total Energy =                       -512.5516062068343217
  Basis Set: (AUG-CC-PVTZ AUX)
    Blend: AUG-CC-PVTZ-RI
    Molecular point group: c1

    Geometry (in Angstrom), charge = 0, multiplicity = 1:

       Center              X                  Y                   Z               Mass
    ------------   -----------------  -----------------  -----------------  -----------------
         O           -0.483205633284     2.140416214698    -0.320611414075    15.994914619570
         O            1.759112366716     0.859559214698     1.139794585925    15.994914619570
         N            2.099833366716    -0.695046785302    -0.505327414075    14.003074004430
         C           -0.159553633284    -0.168209785302     0.110374585925    12.000000000000
         C           -1.034982633284     0.898387214698    -0.149590414075    12.000000000000
         C           -0.679925633284    -1.460151785302     0.244653585925    12.000000000000
         C            1.307787366716     0.080124214698     0.299894585925    12.000000000000
         C           -2.407181633284     0.661491214698    -0.266423414075    12.000000000000
         C           -2.031806833284    -1.694170485302     0.139070185925    12.000000000000
         C           -2.913173633284    -0.630827785302    -0.116293414075    12.000000000000
         C            3.542459366716    -0.528646785302    -0.496768414075    12.000000000000
         H            0.003328366716    -2.278575785302     0.461174585925     1.007825032230
         H           -3.082174633284     1.490734214698    -0.475989414075     1.007825032230
         H           -2.443257633284    -2.703868785302     0.258094585925     1.007825032230
         H           -3.984019633284    -0.798107785302    -0.202780414075     1.007825032230
         H            1.662930366716    -1.133079785302    -1.305876414075     1.007825032230
         H            3.863053366716     0.327321214698    -1.100679414075     1.007825032230
         H            4.011092366716    -1.437508785302    -0.878627414075     1.007825032230
         H            3.857693366716    -0.359400785302     0.532413585925     1.007825032230
         H           -1.205257633284     2.777177214698    -0.468475414075     1.007825032230

  Basis Set: AUG-CC-PVTZ
    Blend: AUG-CC-PVTZ
  Basis Set: (AUG-CC-PVTZ AUX)
    Blend: AUG-CC-PVTZ-JKFIT
	 Reference Energy          =    -512.5516062068343217 [Eh]
	 Singles Energy            =      -0.0000000000000000 [Eh]
	 Same-Spin Energy          =      -0.5370938125150483 [Eh]
	 Opposite-Spin Energy      =      -1.6460677412743840 [Eh]
	 Correlation Energy        =      -2.1831615537894322 [Eh]
	 Total Energy              =    -514.7347677606237539 [Eh]

	 ================> DF-SCS-MP2 Energies <==================
	-----------------------------------------------------------
	 SCS Same-Spin Scale       =       0.3333333333333333 [-]
	 SCS Opposite-Spin Scale   =       1.2000000000000000 [-]
	 SCS Same-Spin Energy      =      -0.1790312708383494 [Eh]
	 SCS Opposite-Spin Energy  =      -1.9752812895292609 [Eh]
	 SCS Correlation Energy    =      -2.1543125603676101 [Eh]
	 SCS Total Energy          =    -514.7059187672019789 [Eh]
	-----------------------------------------------------------

  Dipole Moment: [D]
     X:    -1.7250      Y:    -1.5754      Z:    -2.9761     Total:     3.7835

*** Psi4 exiting successfully. Buy a developer a beer!
