                               Psi4 1.4a3.dev225

  ==> Input File <==

--------------------------------------------------------------------------
#psi4
#
memory 32 gb

molecule  {
0 1
  O       -0.4983720     2.1660820    -0.3008080
  O        1.7439460     0.8852250     1.1595980
  N        2.0846670    -0.6693810    -0.4855240
  C       -0.1747200    -0.1425440     0.1301780
  C       -1.0501490     0.9240530    -0.1297870
  C       -0.6950920    -1.4344860     0.2644570
  C        1.2999506     0.1184481     0.3333380
  C       -2.4223480     0.6871570    -0.2466200
  C       -2.0666220    -1.6719060     0.1573390
  C       -2.9283400    -0.6051620    -0.0964900
  C        3.5272930    -0.5029810    -0.4769650
  H       -0.0118380    -2.2529100     0.4809780
  H       -3.0973410     1.5164000    -0.4561860
  H       -2.4584240    -2.6782030     0.2778980
  H       -3.9991860    -0.7724420    -0.1829770
  H        1.6477640    -1.1074140    -1.2860730
  H        3.8478870     0.3529870    -1.0808760
  H        3.9959260    -1.4118430    -0.8588240
  H        3.8425270    -0.3337350     0.5522170
  H       -1.2204240     2.8028430    -0.4486720
units angstrom
no_reorient  #important for SAPT in psi4, default
symmetry c1  #important for SAPT in psi4, default
}

set PROPERTIES_ORIGIN ["COM"]
properties('MP2/aug-cc-pvtz', properties = ['dipole'])
--------------------------------------------------------------------------

    Molecular point group: c1
  Charge       = 0
  Multiplicity = 1
  Basis Set: AUG-CC-PVTZ
    Blend: AUG-CC-PVTZ
  Basis Set: (AUG-CC-PVTZ AUX)
    Blend: AUG-CC-PVTZ-JKFIT

    Orbital Energies [Eh]
    ---------------------

    Doubly Occupied:

       1A    -20.597700     2A    -20.517277     3A    -15.580991
       4A    -11.349975     5A    -11.319537     6A    -11.256624
       7A    -11.256099     8A    -11.254570     9A    -11.248968
      10A    -11.246068    11A    -11.239939    12A     -1.410163
      13A     -1.379716    14A     -1.223421    15A     -1.159135
      16A     -1.044985    17A     -1.017084    18A     -0.947189
      19A     -0.864198    20A     -0.842834    21A     -0.781844
      22A     -0.741658    23A     -0.722432    24A     -0.675169
      25A     -0.646886    26A     -0.638862    27A     -0.619846
      28A     -0.611967    29A     -0.596298    30A     -0.585491
      31A     -0.576978    32A     -0.544985    33A     -0.537377
      34A     -0.525006    35A     -0.512395    36A     -0.490000
      37A     -0.422768    38A     -0.389290    39A     -0.353895
      40A     -0.325725

  @DF-RHF Final Energy:  -512.55305871370490

   => Energetics <=

    Nuclear Repulsion Energy =            587.1669378310615457
    One-Electron Energy =               -1863.3293070127731426
    Two-Electron Energy =                 763.6093104680068109
    Total Energy =                       -512.5530587137048997
  Basis Set: (AUG-CC-PVTZ AUX)
    Blend: AUG-CC-PVTZ-RI
    Molecular point group: c1

    Geometry (in Angstrom), charge = 0, multiplicity = 1:

       Center              X                  Y                   Z               Mass
    ------------   -----------------  -----------------  -----------------  -----------------
         O           -0.482227034431     2.139680883356    -0.321573029323    15.994914619570
         O            1.760090965569     0.858823883356     1.138832970677    15.994914619570
         N            2.100811965569    -0.695782116644    -0.506289029323    14.003074004430
         C           -0.158575034431    -0.168945116644     0.109412970677    12.000000000000
         C           -1.034004034431     0.897651883356    -0.150552029323    12.000000000000
         C           -0.678947034431    -1.460887116644     0.243691970677    12.000000000000
         C            1.316095565569     0.092046983356     0.312572970677    12.000000000000
         C           -2.406203034431     0.660755883356    -0.267385029323    12.000000000000
         C           -2.050477034431    -1.698307116644     0.136573970677    12.000000000000
         C           -2.912195034431    -0.631563116644    -0.117255029323    12.000000000000
         C            3.543437965569    -0.529382116644    -0.497730029323    12.000000000000
         H            0.004306965569    -2.279311116644     0.460212970677     1.007825032230
         H           -3.081196034431     1.489998883356    -0.476951029323     1.007825032230
         H           -2.442279034431    -2.704604116644     0.257132970677     1.007825032230
         H           -3.983041034431    -0.798843116644    -0.203742029323     1.007825032230
         H            1.663908965569    -1.133815116644    -1.306838029323     1.007825032230
         H            3.864031965569     0.326585883356    -1.101641029323     1.007825032230
         H            4.012070965569    -1.438244116644    -0.879589029323     1.007825032230
         H            3.858671965569    -0.360136116644     0.531451970677     1.007825032230
         H           -1.204279034431     2.776441883356    -0.469437029323     1.007825032230

  Basis Set: AUG-CC-PVTZ
    Blend: AUG-CC-PVTZ
  Basis Set: (AUG-CC-PVTZ AUX)
    Blend: AUG-CC-PVTZ-JKFIT
	 Reference Energy          =    -512.5530587137048997 [Eh]
	 Singles Energy            =      -0.0000000000000000 [Eh]
	 Same-Spin Energy          =      -0.5365790077940326 [Eh]
	 Opposite-Spin Energy      =      -1.6451547029770335 [Eh]
	 Correlation Energy        =      -2.1817337107710659 [Eh]
	 Total Energy              =    -514.7347924244759270 [Eh]

	 ================> DF-SCS-MP2 Energies <==================
	-----------------------------------------------------------
	 SCS Same-Spin Scale       =       0.3333333333333333 [-]
	 SCS Opposite-Spin Scale   =       1.2000000000000000 [-]
	 SCS Same-Spin Energy      =      -0.1788596692646775 [Eh]
	 SCS Opposite-Spin Energy  =      -1.9741856435724401 [Eh]
	 SCS Correlation Energy    =      -2.1530453128371176 [Eh]
	 SCS Total Energy          =    -514.7061040265419933 [Eh]
	-----------------------------------------------------------

  Dipole Moment: [D]
     X:    -1.6951      Y:    -1.4912      Z:    -2.8673     Total:     3.6495

*** Psi4 exiting successfully. Buy a developer a beer!
