                               Psi4 1.4a3.dev225

  ==> Input File <==

--------------------------------------------------------------------------
#psi4
#
memory 32 gb

molecule  {
0 1
  O       -0.4983720     2.1660820    -0.3008080
  O        1.7439460     0.8852250     1.1595980
  N        2.0846670    -0.6693810    -0.4855240
  C       -0.1747200    -0.1425440     0.1301780
  C       -1.0282295     0.9149324    -0.1269757
  C       -0.6950920    -1.4344860     0.2644570
  C        1.2926210     0.1057900     0.3196980
  C       -2.4223480     0.6871570    -0.2466200
  C       -2.0666220    -1.6719060     0.1573390
  C       -2.9283400    -0.6051620    -0.0964900
  C        3.5272930    -0.5029810    -0.4769650
  H       -0.0118380    -2.2529100     0.4809780
  H       -3.0973410     1.5164000    -0.4561860
  H       -2.4584240    -2.6782030     0.2778980
  H       -3.9991860    -0.7724420    -0.1829770
  H        1.6477640    -1.1074140    -1.2860730
  H        3.8478870     0.3529870    -1.0808760
  H        3.9959260    -1.4118430    -0.8588240
  H        3.8425270    -0.3337350     0.5522170
  H       -1.2204240     2.8028430    -0.4486720
units angstrom
no_reorient  #important for SAPT in psi4, default
symmetry c1  #important for SAPT in psi4, default
}

set PROPERTIES_ORIGIN ["COM"]
properties('MP2/aug-cc-pvtz', properties = ['dipole'])
--------------------------------------------------------------------------

    Molecular point group: c1
  Charge       = 0
  Multiplicity = 1
  Basis Set: AUG-CC-PVTZ
    Blend: AUG-CC-PVTZ
  Basis Set: (AUG-CC-PVTZ AUX)
    Blend: AUG-CC-PVTZ-JKFIT

    Orbital Energies [Eh]
    ---------------------

    Doubly Occupied:

       1A    -20.596868     2A    -20.513285     3A    -15.583978
       4A    -11.349930     5A    -11.320445     6A    -11.257599
       7A    -11.256468     8A    -11.256033     9A    -11.248721
      10A    -11.247297    11A    -11.240479    12A     -1.409046
      13A     -1.367172    14A     -1.225468    15A     -1.160388
      16A     -1.048089    17A     -1.016066    18A     -0.950664
      19A     -0.865114    20A     -0.844455    21A     -0.782918
      22A     -0.743689    23A     -0.722594    24A     -0.674768
      25A     -0.651061    26A     -0.636755    27A     -0.619296
      28A     -0.612022    29A     -0.595377    30A     -0.585487
      31A     -0.574738    32A     -0.545303    33A     -0.535320
      34A     -0.521224    35A     -0.512659    36A     -0.489637
      37A     -0.421280    38A     -0.388945    39A     -0.354405
      40A     -0.326211

  @DF-RHF Final Energy:  -512.55161554181404

   => Energetics <=

    Nuclear Repulsion Energy =            587.3585584685990852
    One-Electron Energy =               -1863.7178432170030646
    Two-Electron Energy =                 763.8076692065899351
    Total Energy =                       -512.5516155418140443
  Basis Set: (AUG-CC-PVTZ AUX)
    Blend: AUG-CC-PVTZ-RI
    Molecular point group: c1

    Geometry (in Angstrom), charge = 0, multiplicity = 1:

       Center              X                  Y                   Z               Mass
    ------------   -----------------  -----------------  -----------------  -----------------
         O           -0.483386010615     2.141410915407    -0.320712831144    15.994914619570
         O            1.758931989385     0.860553915407     1.139693168856    15.994914619570
         N            2.099652989385    -0.694052084593    -0.505428831144    14.003074004430
         C           -0.159734010615    -0.167215084593     0.110273168856    12.000000000000
         C           -1.013243510615     0.890261315407    -0.146880531144    12.000000000000
         C           -0.680106010615    -1.459157084593     0.244552168856    12.000000000000
         C            1.307606989385     0.081118915407     0.299793168856    12.000000000000
         C           -2.407362010615     0.662485915407    -0.266524831144    12.000000000000
         C           -2.051636010615    -1.696577084593     0.137434168856    12.000000000000
         C           -2.913354010615    -0.629833084593    -0.116394831144    12.000000000000
         C            3.542278989385    -0.527652084593    -0.496869831144    12.000000000000
         H            0.003147989385    -2.277581084593     0.461073168856     1.007825032230
         H           -3.082355010615     1.491728915407    -0.476090831144     1.007825032230
         H           -2.443438010615    -2.702874084593     0.257993168856     1.007825032230
         H           -3.984200010615    -0.797113084593    -0.202881831144     1.007825032230
         H            1.662749989385    -1.132085084593    -1.305977831144     1.007825032230
         H            3.862872989385     0.328315915407    -1.100780831144     1.007825032230
         H            4.010911989385    -1.436514084593    -0.878728831144     1.007825032230
         H            3.857512989385    -0.358406084593     0.532312168856     1.007825032230
         H           -1.205438010615     2.778171915407    -0.468576831144     1.007825032230

  Basis Set: AUG-CC-PVTZ
    Blend: AUG-CC-PVTZ
  Basis Set: (AUG-CC-PVTZ AUX)
    Blend: AUG-CC-PVTZ-JKFIT
	 Reference Energy          =    -512.5516155418140443 [Eh]
	 Singles Energy            =      -0.0000000000000000 [Eh]
	 Same-Spin Energy          =      -0.5369744173738282 [Eh]
	 Opposite-Spin Energy      =      -1.6459428425054092 [Eh]
	 Correlation Energy        =      -2.1829172598792375 [Eh]
	 Total Energy              =    -514.7345328016932626 [Eh]

	 ================> DF-SCS-MP2 Energies <==================
	-----------------------------------------------------------
	 SCS Same-Spin Scale       =       0.3333333333333333 [-]
	 SCS Opposite-Spin Scale   =       1.2000000000000000 [-]
	 SCS Same-Spin Energy      =      -0.1789914724579427 [Eh]
	 SCS Opposite-Spin Energy  =      -1.9751314110064910 [Eh]
	 SCS Correlation Energy    =      -2.1541228834644337 [Eh]
	 SCS Total Energy          =    -514.7057384252784686 [Eh]
	-----------------------------------------------------------

  Dipole Moment: [D]
     X:    -1.7073      Y:    -1.5898      Z:    -2.9712     Total:     3.7776

*** Psi4 exiting successfully. Buy a developer a beer!
