                               Psi4 1.4a3.dev225

  ==> Input File <==

--------------------------------------------------------------------------
#psi4
#
memory 32 gb

molecule  {
0 1
  O       -0.4983720     2.1660820    -0.3008080
  O        1.7439460     0.8852250     1.1595980
  N        2.0846670    -0.6693810    -0.4855240
  C       -0.1747200    -0.1425440     0.1301780
  C       -1.0501490     0.9240530    -0.1297870
  C       -0.6950920    -1.4344860     0.2644570
  C        1.4882370     0.1388962     0.3449635
  C       -2.4223480     0.6871570    -0.2466200
  C       -2.0666220    -1.6719060     0.1573390
  C       -2.9283400    -0.6051620    -0.0964900
  C        3.5272930    -0.5029810    -0.4769650
  H       -0.0118380    -2.2529100     0.4809780
  H       -3.0973410     1.5164000    -0.4561860
  H       -2.4584240    -2.6782030     0.2778980
  H       -3.9991860    -0.7724420    -0.1829770
  H        1.6477640    -1.1074140    -1.2860730
  H        3.8478870     0.3529870    -1.0808760
  H        3.9959260    -1.4118430    -0.8588240
  H        3.8425270    -0.3337350     0.5522170
  H       -1.2204240     2.8028430    -0.4486720
units angstrom
no_reorient  #important for SAPT in psi4, default
symmetry c1  #important for SAPT in psi4, default
}

set PROPERTIES_ORIGIN ["COM"]
properties('MP2/aug-cc-pvtz', properties = ['dipole'])
--------------------------------------------------------------------------

    Molecular point group: c1
  Charge       = 0
  Multiplicity = 1
  Basis Set: AUG-CC-PVTZ
    Blend: AUG-CC-PVTZ
  Basis Set: (AUG-CC-PVTZ AUX)
    Blend: AUG-CC-PVTZ-JKFIT

    Orbital Energies [Eh]
    ---------------------

    Doubly Occupied:

       1A    -20.587583     2A    -20.531806     3A    -15.595001
       4A    -11.353561     5A    -11.303050     6A    -11.264239
       7A    -11.241752     8A    -11.240282     9A    -11.234971
      10A    -11.232891    11A    -11.228705    12A     -1.442746
      13A     -1.398230    14A     -1.269173    15A     -1.143267
      16A     -1.020728    17A     -1.002476    18A     -0.958231
      19A     -0.844243    20A     -0.824881    21A     -0.812038
      22A     -0.730777    23A     -0.713098    24A     -0.671763
      25A     -0.662055    26A     -0.641675    27A     -0.638819
      28A     -0.602065    29A     -0.592452    30A     -0.579336
      31A     -0.571109    32A     -0.562277    33A     -0.557755
      34A     -0.525444    35A     -0.506380    36A     -0.480126
      37A     -0.417214    38A     -0.390396    39A     -0.339589
      40A     -0.312348

  @DF-RHF Final Energy:  -512.51610379220551

   => Energetics <=

    Nuclear Repulsion Energy =            586.8328258300656444
    One-Electron Energy =               -1862.6487954014737625
    Two-Electron Energy =                 763.2998657792024915
    Total Energy =                       -512.5161037922055129
  Basis Set: (AUG-CC-PVTZ AUX)
    Blend: AUG-CC-PVTZ-RI
    Molecular point group: c1

    Geometry (in Angstrom), charge = 0, multiplicity = 1:

       Center              X                  Y                   Z               Mass
    ------------   -----------------  -----------------  -----------------  -----------------
         O           -0.497183919215     2.138056550023    -0.322496522809    15.994914619570
         O            1.745134080785     0.857199550023     1.137909477191    15.994914619570
         N            2.085855080785    -0.697406449977    -0.507212522809    14.003074004430
         C           -0.173531919215    -0.170569449977     0.108489477191    12.000000000000
         C           -1.048960919215     0.896027550023    -0.151475522809    12.000000000000
         C           -0.693903919215    -1.462511449977     0.242768477191    12.000000000000
         C            1.489425080785     0.110870750023     0.323274977191    12.000000000000
         C           -2.421159919215     0.659131550023    -0.268308522809    12.000000000000
         C           -2.065433919215    -1.699931449977     0.135650477191    12.000000000000
         C           -2.927151919215    -0.633187449977    -0.118178522809    12.000000000000
         C            3.528481080785    -0.531006449977    -0.498653522809    12.000000000000
         H           -0.010649919215    -2.280935449977     0.459289477191     1.007825032230
         H           -3.096152919215     1.488374550023    -0.477874522809     1.007825032230
         H           -2.457235919215    -2.706228449977     0.256209477191     1.007825032230
         H           -3.997997919215    -0.800467449977    -0.204665522809     1.007825032230
         H            1.648952080785    -1.135439449977    -1.307761522809     1.007825032230
         H            3.849075080785     0.324961550023    -1.102564522809     1.007825032230
         H            3.997114080785    -1.439868449977    -0.880512522809     1.007825032230
         H            3.843715080785    -0.361760449977     0.530528477191     1.007825032230
         H           -1.219235919215     2.774817550023    -0.470360522809     1.007825032230

  Basis Set: AUG-CC-PVTZ
    Blend: AUG-CC-PVTZ
  Basis Set: (AUG-CC-PVTZ AUX)
    Blend: AUG-CC-PVTZ-JKFIT
	 Reference Energy          =    -512.5161037922055129 [Eh]
	 Singles Energy            =      -0.0000000000000000 [Eh]
	 Same-Spin Energy          =      -0.5358623228291854 [Eh]
	 Opposite-Spin Energy      =      -1.6429463843144925 [Eh]
	 Correlation Energy        =      -2.1788087071436779 [Eh]
	 Total Energy              =    -514.6949124993492433 [Eh]

	 ================> DF-SCS-MP2 Energies <==================
	-----------------------------------------------------------
	 SCS Same-Spin Scale       =       0.3333333333333333 [-]
	 SCS Opposite-Spin Scale   =       1.2000000000000000 [-]
	 SCS Same-Spin Energy      =      -0.1786207742763951 [Eh]
	 SCS Opposite-Spin Energy  =      -1.9715356611773909 [Eh]
	 SCS Correlation Energy    =      -2.1501564354537859 [Eh]
	 SCS Total Energy          =    -514.6662602276593361 [Eh]
	-----------------------------------------------------------

  Dipole Moment: [D]
     X:    -0.1117      Y:    -1.3874      Z:    -2.7902     Total:     3.1181

*** Psi4 exiting successfully. Buy a developer a beer!
