                               Psi4 1.4a3.dev225

  ==> Input File <==

--------------------------------------------------------------------------
#psi4
#
memory 32 gb

molecule  {
0 1
  O       -0.4983720     2.1660820    -0.3008080
  O        1.7439460     0.8852250     1.1595980
  N        2.0846670    -0.6693810    -0.4855240
  C       -0.1747200    -0.1425440     0.1301780
  C       -1.0501490     0.9240530    -0.1297870
  C       -0.6950920    -1.4344860     0.2644570
  C        1.2926210     0.1057900     0.3196980
  C       -2.4223480     0.6871570    -0.2466200
  C       -2.0666220    -1.6719060     0.1573390
  C       -2.9406979    -0.5898639    -0.1001301
  C        3.5272930    -0.5029810    -0.4769650
  H       -0.0118380    -2.2529100     0.4809780
  H       -3.0973410     1.5164000    -0.4561860
  H       -2.4584240    -2.6782030     0.2778980
  H       -3.9991860    -0.7724420    -0.1829770
  H        1.6477640    -1.1074140    -1.2860730
  H        3.8478870     0.3529870    -1.0808760
  H        3.9959260    -1.4118430    -0.8588240
  H        3.8425270    -0.3337350     0.5522170
  H       -1.2204240     2.8028430    -0.4486720
units angstrom
no_reorient  #important for SAPT in psi4, default
symmetry c1  #important for SAPT in psi4, default
}

set PROPERTIES_ORIGIN ["COM"]
properties('MP2/aug-cc-pvtz', properties = ['dipole'])
--------------------------------------------------------------------------

    Molecular point group: c1
  Charge       = 0
  Multiplicity = 1
  Basis Set: AUG-CC-PVTZ
    Blend: AUG-CC-PVTZ
  Basis Set: (AUG-CC-PVTZ AUX)
    Blend: AUG-CC-PVTZ-JKFIT

    Orbital Energies [Eh]
    ---------------------

    Doubly Occupied:

       1A    -20.598056     2A    -20.513016     3A    -15.583815
       4A    -11.349895     5A    -11.320720     6A    -11.257269
       7A    -11.256909     8A    -11.255919     9A    -11.249156
      10A    -11.246368    11A    -11.242279    12A     -1.410191
      13A     -1.366939    14A     -1.225243    15A     -1.159044
      16A     -1.047400    17A     -1.016273    18A     -0.950369
      19A     -0.864346    20A     -0.845046    21A     -0.783265
      22A     -0.742226    23A     -0.723697    24A     -0.676813
      25A     -0.647826    26A     -0.635865    27A     -0.619193
      28A     -0.612111    29A     -0.595933    30A     -0.586495
      31A     -0.575449    32A     -0.545131    33A     -0.537124
      34A     -0.523382    35A     -0.509389    36A     -0.488857
      37A     -0.421428    38A     -0.388751    39A     -0.355910
      40A     -0.324168

  @DF-RHF Final Energy:  -512.55145908182828

   => Energetics <=

    Nuclear Repulsion Energy =            586.9785916413915174
    One-Electron Energy =               -1862.9575695117791838
    Two-Electron Energy =                 763.4275187885592686
    Total Energy =                       -512.5514590818282841
  Basis Set: (AUG-CC-PVTZ AUX)
    Blend: AUG-CC-PVTZ-RI
    Molecular point group: c1

    Geometry (in Angstrom), charge = 0, multiplicity = 1:

       Center              X                  Y                   Z               Mass
    ------------   -----------------  -----------------  -----------------  -----------------
         O           -0.480663120791     2.139471169984    -0.320200352035    15.994914619570
         O            1.761654879209     0.858614169984     1.140205647965    15.994914619570
         N            2.102375879209    -0.695991830016    -0.504916352035    14.003074004430
         C           -0.157011120791    -0.169154830016     0.110785647965    12.000000000000
         C           -1.032440120791     0.897442169984    -0.149179352035    12.000000000000
         C           -0.677383120791    -1.461096830016     0.245064647965    12.000000000000
         C            1.310329879209     0.079179169984     0.300305647965    12.000000000000
         C           -2.404639120791     0.660546169984    -0.266012352035    12.000000000000
         C           -2.048913120791    -1.698516830016     0.137946647965    12.000000000000
         C           -2.922989020791    -0.616474730016    -0.119522452035    12.000000000000
         C            3.545001879209    -0.529591830016    -0.496357352035    12.000000000000
         H            0.005870879209    -2.279520830016     0.461585647965     1.007825032230
         H           -3.079632120791     1.489789169984    -0.475578352035     1.007825032230
         H           -2.440715120791    -2.704813830016     0.258505647965     1.007825032230
         H           -3.981477120791    -0.799052830016    -0.202369352035     1.007825032230
         H            1.665472879209    -1.134024830016    -1.305465352035     1.007825032230
         H            3.865595879209     0.326376169984    -1.100268352035     1.007825032230
         H            4.013634879209    -1.438453830016    -0.878216352035     1.007825032230
         H            3.860235879209    -0.360345830016     0.532824647965     1.007825032230
         H           -1.202715120791     2.776232169984    -0.468064352035     1.007825032230

  Basis Set: AUG-CC-PVTZ
    Blend: AUG-CC-PVTZ
  Basis Set: (AUG-CC-PVTZ AUX)
    Blend: AUG-CC-PVTZ-JKFIT
	 Reference Energy          =    -512.5514590818282841 [Eh]
	 Singles Energy            =      -0.0000000000000000 [Eh]
	 Same-Spin Energy          =      -0.5370683796587188 [Eh]
	 Opposite-Spin Energy      =      -1.6461602000518185 [Eh]
	 Correlation Energy        =      -2.1832285797105371 [Eh]
	 Total Energy              =    -514.7346876615388283 [Eh]

	 ================> DF-SCS-MP2 Energies <==================
	-----------------------------------------------------------
	 SCS Same-Spin Scale       =       0.3333333333333333 [-]
	 SCS Opposite-Spin Scale   =       1.2000000000000000 [-]
	 SCS Same-Spin Energy      =      -0.1790227932195729 [Eh]
	 SCS Opposite-Spin Energy  =      -1.9753922400621822 [Eh]
	 SCS Correlation Energy    =      -2.1544150332817549 [Eh]
	 SCS Total Energy          =    -514.7058741151100776 [Eh]
	-----------------------------------------------------------

  Dipole Moment: [D]
     X:    -1.7200      Y:    -1.5752      Z:    -2.9757     Total:     3.7808

*** Psi4 exiting successfully. Buy a developer a beer!
