                               Psi4 1.4a3.dev225

  ==> Input File <==

--------------------------------------------------------------------------
#psi4
#
memory 32 gb

molecule  {
0 1
  O       -0.4983720     2.1660820    -0.3008080
  O        1.7439460     0.8852250     1.1595980
  N        2.0846670    -0.6693810    -0.4855240
  C       -0.1747200    -0.1425440     0.1301780
  C       -1.0501490     0.9240530    -0.1297870
  C       -0.6950920    -1.4344860     0.2644570
  C        1.2926210     0.1057900     0.3196980
  C       -2.4223480     0.6871570    -0.2466200
  C       -2.0666220    -1.6719060     0.1573390
  C       -2.9283400    -0.6051620    -0.0964900
  C        3.7259722    -0.4800643    -0.4757862
  H       -0.0118380    -2.2529100     0.4809780
  H       -3.0973410     1.5164000    -0.4561860
  H       -2.4584240    -2.6782030     0.2778980
  H       -3.9991860    -0.7724420    -0.1829770
  H        1.6477640    -1.1074140    -1.2860730
  H        3.8478870     0.3529870    -1.0808760
  H        3.9959260    -1.4118430    -0.8588240
  H        3.8425270    -0.3337350     0.5522170
  H       -1.2204240     2.8028430    -0.4486720
units angstrom
no_reorient  #important for SAPT in psi4, default
symmetry c1  #important for SAPT in psi4, default
}

set PROPERTIES_ORIGIN ["COM"]
properties('MP2/aug-cc-pvtz', properties = ['dipole'])
--------------------------------------------------------------------------

    Molecular point group: c1
  Charge       = 0
  Multiplicity = 1
  Basis Set: AUG-CC-PVTZ
    Blend: AUG-CC-PVTZ
  Basis Set: (AUG-CC-PVTZ AUX)
    Blend: AUG-CC-PVTZ-JKFIT

    Orbital Energies [Eh]
    ---------------------

    Doubly Occupied:

       1A    -20.594832     2A    -20.505678     3A    -15.575392
       4A    -11.343493     5A    -11.316849     6A    -11.266246
       7A    -11.253574     8A    -11.253541     9A    -11.245708
      10A    -11.243576    11A    -11.237320    12A     -1.406905
      13A     -1.357795    14A     -1.192343    15A     -1.154514
      16A     -1.040360    17A     -1.014380    18A     -0.960626
      19A     -0.863316    20A     -0.842429    21A     -0.770699
      22A     -0.737768    23A     -0.715080    24A     -0.671583
      25A     -0.640149    26A     -0.632735    27A     -0.619385
      28A     -0.606094    29A     -0.597310    30A     -0.585547
      31A     -0.579358    32A     -0.545271    33A     -0.531333
      34A     -0.522328    35A     -0.507370    36A     -0.486864
      37A     -0.412932    38A     -0.386285    39A     -0.350332
      40A     -0.322847

  @DF-RHF Final Energy:  -512.52436894440461

   => Energetics <=

    Nuclear Repulsion Energy =            583.6000005051802191
    One-Electron Energy =               -1856.4684463074315772
    Two-Electron Energy =                 760.3440768578466304
    Total Energy =                       -512.5243689444046140
  Basis Set: (AUG-CC-PVTZ AUX)
    Blend: AUG-CC-PVTZ-RI
    Molecular point group: c1

    Geometry (in Angstrom), charge = 0, multiplicity = 1:

       Center              X                  Y                   Z               Mass
    ------------   -----------------  -----------------  -----------------  -----------------
         O           -0.497427250276     2.138865972145    -0.320583150432    15.994914619570
         O            1.744890749724     0.858008972145     1.139822849568    15.994914619570
         N            2.085611749724    -0.696597027855    -0.505299150432    14.003074004430
         C           -0.173775250276    -0.169760027855     0.110402849568    12.000000000000
         C           -1.049204250276     0.896836972145    -0.149562150432    12.000000000000
         C           -0.694147250276    -1.461702027855     0.244681849568    12.000000000000
         C            1.293565749724     0.078573972145     0.299922849568    12.000000000000
         C           -2.421403250276     0.659940972145    -0.266395150432    12.000000000000
         C           -2.065677250276    -1.699122027855     0.137563849568    12.000000000000
         C           -2.927395250276    -0.632378027855    -0.116265150432    12.000000000000
         C            3.726916949724    -0.507280327855    -0.495561350432    12.000000000000
         H           -0.010893250276    -2.280126027855     0.461202849568     1.007825032230
         H           -3.096396250276     1.489183972145    -0.475961150432     1.007825032230
         H           -2.457479250276    -2.705419027855     0.258122849568     1.007825032230
         H           -3.998241250276    -0.799658027855    -0.202752150432     1.007825032230
         H            1.648708749724    -1.134630027855    -1.305848150432     1.007825032230
         H            3.848831749724     0.325770972145    -1.100651150432     1.007825032230
         H            3.996870749724    -1.439059027855    -0.878599150432     1.007825032230
         H            3.843471749724    -0.360951027855     0.532441849568     1.007825032230
         H           -1.219479250276     2.775626972145    -0.468447150432     1.007825032230

  Basis Set: AUG-CC-PVTZ
    Blend: AUG-CC-PVTZ
  Basis Set: (AUG-CC-PVTZ AUX)
    Blend: AUG-CC-PVTZ-JKFIT
	 Reference Energy          =    -512.5243689444046140 [Eh]
	 Singles Energy            =      -0.0000000000000000 [Eh]
	 Same-Spin Energy          =      -0.5370849178180133 [Eh]
	 Opposite-Spin Energy      =      -1.6480058272092681 [Eh]
	 Correlation Energy        =      -2.1850907450272814 [Eh]
	 Total Energy              =    -514.7094596894319238 [Eh]

	 ================> DF-SCS-MP2 Energies <==================
	-----------------------------------------------------------
	 SCS Same-Spin Scale       =       0.3333333333333333 [-]
	 SCS Opposite-Spin Scale   =       1.2000000000000000 [-]
	 SCS Same-Spin Energy      =      -0.1790283059393377 [Eh]
	 SCS Opposite-Spin Energy  =      -1.9776069926511217 [Eh]
	 SCS Correlation Energy    =      -2.1566352985904595 [Eh]
	 SCS Total Energy          =    -514.6810042429950727 [Eh]
	-----------------------------------------------------------

  Dipole Moment: [D]
     X:    -1.1650      Y:    -1.5788      Z:    -3.0696     Total:     3.6431

*** Psi4 exiting successfully. Buy a developer a beer!
