                               Psi4 1.4a3.dev225

  ==> Input File <==

--------------------------------------------------------------------------
#psi4
#
memory 32 gb

molecule  {
0 1
  O       -0.4983720     2.1660820    -0.3008080
  O        1.7439460     0.8852250     1.1595980
  N        2.0846670    -0.6693810    -0.4855240
  C       -0.1747200    -0.1425440     0.1301780
  C       -1.0626183     0.9392453    -0.1334899
  C       -0.6950920    -1.4344860     0.2644570
  C        1.2926210     0.1057900     0.3196980
  C       -2.4223480     0.6871570    -0.2466200
  C       -2.0666220    -1.6719060     0.1573390
  C       -2.9283400    -0.6051620    -0.0964900
  C        3.5272930    -0.5029810    -0.4769650
  H       -0.0118380    -2.2529100     0.4809780
  H       -3.0973410     1.5164000    -0.4561860
  H       -2.4584240    -2.6782030     0.2778980
  H       -3.9991860    -0.7724420    -0.1829770
  H        1.6477640    -1.1074140    -1.2860730
  H        3.8478870     0.3529870    -1.0808760
  H        3.9959260    -1.4118430    -0.8588240
  H        3.8425270    -0.3337350     0.5522170
  H       -1.2204240     2.8028430    -0.4486720
units angstrom
no_reorient  #important for SAPT in psi4, default
symmetry c1  #important for SAPT in psi4, default
}

set PROPERTIES_ORIGIN ["COM"]
properties('MP2/aug-cc-pvtz', properties = ['dipole'])
--------------------------------------------------------------------------

    Molecular point group: c1
  Charge       = 0
  Multiplicity = 1
  Basis Set: AUG-CC-PVTZ
    Blend: AUG-CC-PVTZ
  Basis Set: (AUG-CC-PVTZ AUX)
    Blend: AUG-CC-PVTZ-JKFIT

    Orbital Energies [Eh]
    ---------------------

    Doubly Occupied:

       1A    -20.600225     2A    -20.512844     3A    -15.583660
       4A    -11.349748     5A    -11.321231     6A    -11.256870
       7A    -11.256680     8A    -11.255824     9A    -11.250878
      10A    -11.244911    11A    -11.239876    12A     -1.415501
      13A     -1.366893    14A     -1.225052    15A     -1.158651
      16A     -1.045305    17A     -1.017880    18A     -0.949681
      19A     -0.865094    20A     -0.844436    21A     -0.783022
      22A     -0.742203    23A     -0.725033    24A     -0.676224
      25A     -0.646356    26A     -0.635499    27A     -0.619095
      28A     -0.613009    29A     -0.598409    30A     -0.586307
      31A     -0.576211    32A     -0.545049    33A     -0.536797
      34A     -0.523022    35A     -0.508898    36A     -0.489552
      37A     -0.421294    38A     -0.388623    39A     -0.354289
      40A     -0.324537

  @DF-RHF Final Energy:  -512.55149547764370

   => Energetics <=

    Nuclear Repulsion Energy =            586.9924960464112473
    One-Electron Energy =               -1862.9786457478969623
    Two-Electron Energy =                 763.4346542238421307
    Total Energy =                       -512.5514954776436980
  Basis Set: (AUG-CC-PVTZ AUX)
    Blend: AUG-CC-PVTZ-RI
    Molecular point group: c1

    Geometry (in Angstrom), charge = 0, multiplicity = 1:

       Center              X                  Y                   Z               Mass
    ------------   -----------------  -----------------  -----------------  -----------------
         O           -0.480654271522     2.139479574407    -0.320195363399    15.994914619570
         O            1.761663728478     0.858622574407     1.140210636601    15.994914619570
         N            2.102384728478    -0.695983425593    -0.504911363399    14.003074004430
         C           -0.157002271522    -0.169146425593     0.110790636601    12.000000000000
         C           -1.044900571522     0.912642874407    -0.152877263399    12.000000000000
         C           -0.677374271522    -1.461088425593     0.245069636601    12.000000000000
         C            1.310338728478     0.079187574407     0.300310636601    12.000000000000
         C           -2.404630271522     0.660554574407    -0.266007363399    12.000000000000
         C           -2.048904271522    -1.698508425593     0.137951636601    12.000000000000
         C           -2.910622271522    -0.631764425593    -0.115877363399    12.000000000000
         C            3.545010728478    -0.529583425593    -0.496352363399    12.000000000000
         H            0.005879728478    -2.279512425593     0.461590636601     1.007825032230
         H           -3.079623271522     1.489797574407    -0.475573363399     1.007825032230
         H           -2.440706271522    -2.704805425593     0.258510636601     1.007825032230
         H           -3.981468271522    -0.799044425593    -0.202364363399     1.007825032230
         H            1.665481728478    -1.134016425593    -1.305460363399     1.007825032230
         H            3.865604728478     0.326384574407    -1.100263363399     1.007825032230
         H            4.013643728478    -1.438445425593    -0.878211363399     1.007825032230
         H            3.860244728478    -0.360337425593     0.532829636601     1.007825032230
         H           -1.202706271522     2.776240574407    -0.468059363399     1.007825032230

  Basis Set: AUG-CC-PVTZ
    Blend: AUG-CC-PVTZ
  Basis Set: (AUG-CC-PVTZ AUX)
    Blend: AUG-CC-PVTZ-JKFIT
	 Reference Energy          =    -512.5514954776436980 [Eh]
	 Singles Energy            =      -0.0000000000000000 [Eh]
	 Same-Spin Energy          =      -0.5370849420841328 [Eh]
	 Opposite-Spin Energy      =      -1.6460915128521219 [Eh]
	 Correlation Energy        =      -2.1831764549362545 [Eh]
	 Total Energy              =    -514.7346719325799995 [Eh]

	 ================> DF-SCS-MP2 Energies <==================
	-----------------------------------------------------------
	 SCS Same-Spin Scale       =       0.3333333333333333 [-]
	 SCS Opposite-Spin Scale   =       1.2000000000000000 [-]
	 SCS Same-Spin Energy      =      -0.1790283140280443 [Eh]
	 SCS Opposite-Spin Energy  =      -1.9753098154225461 [Eh]
	 SCS Correlation Energy    =      -2.1543381294505903 [Eh]
	 SCS Total Energy          =    -514.7058336070942914 [Eh]
	-----------------------------------------------------------

  Dipole Moment: [D]
     X:    -1.6944      Y:    -1.5171      Z:    -2.9844     Total:     3.7523

*** Psi4 exiting successfully. Buy a developer a beer!
