                               Psi4 1.4a3.dev225

  ==> Input File <==

--------------------------------------------------------------------------
#psi4
#
memory 32 gb

molecule  {
0 1
  O       -0.4983720     2.1660820    -0.3008080
  O        1.7439460     0.8852250     1.1595980
  N        2.0846670    -0.6693810    -0.4855240
  C       -0.1747200    -0.1425440     0.1301780
  C       -1.0501490     0.9240530    -0.1297870
  C       -0.6950920    -1.4344860     0.2644570
  C        1.2926210     0.1057900     0.3196980
  C       -2.4223480     0.6871570    -0.2466200
  C       -2.0666220    -1.6719060     0.1573390
  C       -2.9283400    -0.6051620    -0.0964900
  C        3.5272930    -0.5029810    -0.4769650
  H       -0.0118380    -2.2529100     0.4809780
  H       -3.0973410     1.5164000    -0.4561860
  H       -2.4584240    -2.6782030     0.2778980
  H       -3.9991860    -0.7724420    -0.1829770
  H        1.6477640    -1.1074140    -1.2860730
  H        3.9100508     0.2787130    -1.1422628
  H        3.9959260    -1.4118430    -0.8588240
  H        3.8425270    -0.3337350     0.5522170
  H       -1.2204240     2.8028430    -0.4486720
units angstrom
no_reorient  #important for SAPT in psi4, default
symmetry c1  #important for SAPT in psi4, default
}

set PROPERTIES_ORIGIN ["COM"]
properties('MP2/aug-cc-pvtz', properties = ['dipole'])
--------------------------------------------------------------------------

    Molecular point group: c1
  Charge       = 0
  Multiplicity = 1
  Basis Set: AUG-CC-PVTZ
    Blend: AUG-CC-PVTZ
  Basis Set: (AUG-CC-PVTZ AUX)
    Blend: AUG-CC-PVTZ-JKFIT

    Orbital Energies [Eh]
    ---------------------

    Doubly Occupied:

       1A    -20.597786     2A    -20.513229     3A    -15.585049
       4A    -11.350442     5A    -11.320552     6A    -11.257509
       7A    -11.256869     8A    -11.256119     9A    -11.249707
      10A    -11.246674    11A    -11.240536    12A     -1.410008
      13A     -1.367193    14A     -1.225555    15A     -1.160159
      16A     -1.046845    17A     -1.017812    18A     -0.950806
      19A     -0.865460    20A     -0.844607    21A     -0.783223
      22A     -0.742563    23A     -0.724575    24A     -0.675380
      25A     -0.650290    26A     -0.635923    27A     -0.619366
      28A     -0.611374    29A     -0.595341    30A     -0.584905
      31A     -0.575788    32A     -0.545479    33A     -0.535286
      34A     -0.521989    35A     -0.511862    36A     -0.489735
      37A     -0.421783    38A     -0.388971    39A     -0.354489
      40A     -0.326252

  @DF-RHF Final Energy:  -512.55082279058865

   => Energetics <=

    Nuclear Repulsion Energy =            587.0069306264658735
    One-Electron Energy =               -1863.0005289946993798
    Two-Electron Energy =                 763.4427755776448521
    Total Energy =                       -512.5508227905886542
  Basis Set: (AUG-CC-PVTZ AUX)
    Blend: AUG-CC-PVTZ-RI
    Molecular point group: c1

    Geometry (in Angstrom), charge = 0, multiplicity = 1:

       Center              X                  Y                   Z               Mass
    ------------   -----------------  -----------------  -----------------  -----------------
         O           -0.482059522127     2.141181925327    -0.320079965745    15.994914619570
         O            1.760258477873     0.860324925327     1.140326034255    15.994914619570
         N            2.100979477873    -0.694281074673    -0.504795965745    14.003074004430
         C           -0.158407522127    -0.167444074673     0.110906034255    12.000000000000
         C           -1.033836522127     0.899152925327    -0.149058965745    12.000000000000
         C           -0.678779522127    -1.459386074673     0.245185034255    12.000000000000
         C            1.308933477873     0.080889925327     0.300426034255    12.000000000000
         C           -2.406035522127     0.662256925327    -0.265891965745    12.000000000000
         C           -2.050309522127    -1.696806074673     0.138067034255    12.000000000000
         C           -2.912027522127    -0.630062074673    -0.115761965745    12.000000000000
         C            3.543605477873    -0.527881074673    -0.496236965745    12.000000000000
         H            0.004474477873    -2.277810074673     0.461706034255     1.007825032230
         H           -3.081028522127     1.491499925327    -0.475457965745     1.007825032230
         H           -2.442111522127    -2.703103074673     0.258626034255     1.007825032230
         H           -3.982873522127    -0.797342074673    -0.202248965745     1.007825032230
         H            1.664076477873    -1.132314074673    -1.305344965745     1.007825032230
         H            3.926363277873     0.253812925327    -1.161534765745     1.007825032230
         H            4.012238477873    -1.436743074673    -0.878095965745     1.007825032230
         H            3.858839477873    -0.358635074673     0.532945034255     1.007825032230
         H           -1.204111522127     2.777942925327    -0.467943965745     1.007825032230

  Basis Set: AUG-CC-PVTZ
    Blend: AUG-CC-PVTZ
  Basis Set: (AUG-CC-PVTZ AUX)
    Blend: AUG-CC-PVTZ-JKFIT
	 Reference Energy          =    -512.5508227905886542 [Eh]
	 Singles Energy            =      -0.0000000000000000 [Eh]
	 Same-Spin Energy          =      -0.5370387485033725 [Eh]
	 Opposite-Spin Energy      =      -1.6460325781537759 [Eh]
	 Correlation Energy        =      -2.1830713266571484 [Eh]
	 Total Energy              =    -514.7338941172457680 [Eh]

	 ================> DF-SCS-MP2 Energies <==================
	-----------------------------------------------------------
	 SCS Same-Spin Scale       =       0.3333333333333333 [-]
	 SCS Opposite-Spin Scale   =       1.2000000000000000 [-]
	 SCS Same-Spin Energy      =      -0.1790129161677908 [Eh]
	 SCS Opposite-Spin Energy  =      -1.9752390937845310 [Eh]
	 SCS Correlation Energy    =      -2.1542520099523217 [Eh]
	 SCS Total Energy          =    -514.7050748005409559 [Eh]
	-----------------------------------------------------------

  Dipole Moment: [D]
     X:    -1.7197      Y:    -1.5874      Z:    -2.9947     Total:     3.8007

*** Psi4 exiting successfully. Buy a developer a beer!
