                               Psi4 1.4a3.dev225

  ==> Input File <==

--------------------------------------------------------------------------
#psi4
#
memory 32 gb

molecule  {
0 1
  O       -0.4983720     2.1660820    -0.3008080
  O        1.7439460     0.8852250     1.1595980
  N        2.0846670    -0.6693810    -0.4855240
  C       -0.1747200    -0.1425440     0.1301780
  C       -1.0501490     0.9240530    -0.1297870
  C       -0.6950920    -1.4344860     0.2644570
  C        1.2926210     0.1057900     0.3196980
  C       -2.5205453     0.6702043    -0.2549808
  C       -2.0666220    -1.6719060     0.1573390
  C       -2.9283400    -0.6051620    -0.0964900
  C        3.5272930    -0.5029810    -0.4769650
  H       -0.0118380    -2.2529100     0.4809780
  H       -3.0973410     1.5164000    -0.4561860
  H       -2.4584240    -2.6782030     0.2778980
  H       -3.9991860    -0.7724420    -0.1829770
  H        1.6477640    -1.1074140    -1.2860730
  H        3.8478870     0.3529870    -1.0808760
  H        3.9959260    -1.4118430    -0.8588240
  H        3.8425270    -0.3337350     0.5522170
  H       -1.2204240     2.8028430    -0.4486720
units angstrom
no_reorient  #important for SAPT in psi4, default
symmetry c1  #important for SAPT in psi4, default
}

set PROPERTIES_ORIGIN ["COM"]
properties('MP2/aug-cc-pvtz', properties = ['dipole'])
--------------------------------------------------------------------------

    Molecular point group: c1
  Charge       = 0
  Multiplicity = 1
  Basis Set: AUG-CC-PVTZ
    Blend: AUG-CC-PVTZ
  Basis Set: (AUG-CC-PVTZ AUX)
    Blend: AUG-CC-PVTZ-JKFIT

    Orbital Energies [Eh]
    ---------------------

    Doubly Occupied:

       1A    -20.603033     2A    -20.512638     3A    -15.583517
       4A    -11.349446     5A    -11.331479     6A    -11.257674
       7A    -11.255804     8A    -11.251616     9A    -11.249217
      10A    -11.246555    11A    -11.238447    12A     -1.412515
      13A     -1.366646    14A     -1.224968    15A     -1.156920
      16A     -1.052755    17A     -1.008632    18A     -0.950116
      19A     -0.862491    20A     -0.845025    21A     -0.782257
      22A     -0.743487    23A     -0.725302    24A     -0.672737
      25A     -0.653438    26A     -0.636915    27A     -0.622613
      28A     -0.614833    29A     -0.594724    30A     -0.585019
      31A     -0.576365    32A     -0.545416    33A     -0.542129
      34A     -0.518698    35A     -0.503569    36A     -0.490526
      37A     -0.420103    38A     -0.388599    39A     -0.361544
      40A     -0.316729

  @DF-RHF Final Energy:  -512.54056872470505

   => Energetics <=

    Nuclear Repulsion Energy =            585.7023447712612096
    One-Electron Energy =               -1860.3768330769669319
    Two-Electron Energy =                 762.1339195810007823
    Total Energy =                       -512.5405687247050537
  Basis Set: (AUG-CC-PVTZ AUX)
    Blend: AUG-CC-PVTZ-RI
    Molecular point group: c1

    Geometry (in Angstrom), charge = 0, multiplicity = 1:

       Center              X                  Y                   Z               Mass
    ------------   -----------------  -----------------  -----------------  -----------------
         O           -0.473844306391     2.142033073020    -0.319825354340    15.994914619570
         O            1.768473693609     0.861176073020     1.140580645660    15.994914619570
         N            2.109194693609    -0.693429926980    -0.504541354340    14.003074004430
         C           -0.150192306391    -0.166592926980     0.111160645660    12.000000000000
         C           -1.025621306391     0.900004073020    -0.148804354340    12.000000000000
         C           -0.670564306391    -1.458534926980     0.245439645660    12.000000000000
         C            1.317148693609     0.081741073020     0.300680645660    12.000000000000
         C           -2.496017606391     0.646155373020    -0.273998154340    12.000000000000
         C           -2.042094306391    -1.695954926980     0.138321645660    12.000000000000
         C           -2.903812306391    -0.629210926980    -0.115507354340    12.000000000000
         C            3.551820693609    -0.527029926980    -0.495982354340    12.000000000000
         H            0.012689693609    -2.276958926980     0.461960645660     1.007825032230
         H           -3.072813306391     1.492351073020    -0.475203354340     1.007825032230
         H           -2.433896306391    -2.702251926980     0.258880645660     1.007825032230
         H           -3.974658306391    -0.796490926980    -0.201994354340     1.007825032230
         H            1.672291693609    -1.131462926980    -1.305090354340     1.007825032230
         H            3.872414693609     0.328938073020    -1.099893354340     1.007825032230
         H            4.020453693609    -1.435891926980    -0.877841354340     1.007825032230
         H            3.867054693609    -0.357783926980     0.533199645660     1.007825032230
         H           -1.195896306391     2.778794073020    -0.467689354340     1.007825032230

  Basis Set: AUG-CC-PVTZ
    Blend: AUG-CC-PVTZ
  Basis Set: (AUG-CC-PVTZ AUX)
    Blend: AUG-CC-PVTZ-JKFIT
	 Reference Energy          =    -512.5405687247050537 [Eh]
	 Singles Energy            =      -0.0000000000000000 [Eh]
	 Same-Spin Energy          =      -0.5367897929936756 [Eh]
	 Opposite-Spin Energy      =      -1.6465872691533796 [Eh]
	 Correlation Energy        =      -2.1833770621470552 [Eh]
	 Total Energy              =    -514.7239457868521413 [Eh]

	 ================> DF-SCS-MP2 Energies <==================
	-----------------------------------------------------------
	 SCS Same-Spin Scale       =       0.3333333333333333 [-]
	 SCS Opposite-Spin Scale   =       1.2000000000000000 [-]
	 SCS Same-Spin Energy      =      -0.1789299309978918 [Eh]
	 SCS Opposite-Spin Energy  =      -1.9759047229840554 [Eh]
	 SCS Correlation Energy    =      -2.1548346539819474 [Eh]
	 SCS Total Energy          =    -514.6954033786870468 [Eh]
	-----------------------------------------------------------

  Dipole Moment: [D]
     X:    -1.6914      Y:    -1.4314      Z:    -2.9966     Total:     3.7268

*** Psi4 exiting successfully. Buy a developer a beer!
