                               Psi4 1.4a3.dev225

  ==> Input File <==

--------------------------------------------------------------------------
#psi4
#
memory 32 gb

molecule  {
0 1
  O       -0.4983720     2.1660820    -0.3008080
  O        1.7439460     0.8852250     1.1595980
  N        2.0846670    -0.6693810    -0.4855240
  C       -0.1747200    -0.1425440     0.1301780
  C       -1.0501490     0.9240530    -0.1297870
  C       -0.6950920    -1.4344860     0.2644570
  C        1.2926210     0.1057900     0.3196980
  C       -2.4223480     0.6871570    -0.2466200
  C       -2.0666220    -1.6719060     0.1573390
  C       -2.9283400    -0.6051620    -0.0964900
  C        3.5272930    -0.5029810    -0.4769650
  H       -0.0118380    -2.2529100     0.4809780
  H       -3.1097310     1.5316214    -0.4600327
  H       -2.4584240    -2.6782030     0.2778980
  H       -3.9991860    -0.7724420    -0.1829770
  H        1.6477640    -1.1074140    -1.2860730
  H        3.8478870     0.3529870    -1.0808760
  H        3.9959260    -1.4118430    -0.8588240
  H        3.8425270    -0.3337350     0.5522170
  H       -1.2204240     2.8028430    -0.4486720
units angstrom
no_reorient  #important for SAPT in psi4, default
symmetry c1  #important for SAPT in psi4, default
}

set PROPERTIES_ORIGIN ["COM"]
properties('MP2/aug-cc-pvtz', properties = ['dipole'])
--------------------------------------------------------------------------

    Molecular point group: c1
  Charge       = 0
  Multiplicity = 1
  Basis Set: AUG-CC-PVTZ
    Blend: AUG-CC-PVTZ
  Basis Set: (AUG-CC-PVTZ AUX)
    Blend: AUG-CC-PVTZ-JKFIT

    Orbital Energies [Eh]
    ---------------------

    Doubly Occupied:

       1A    -20.597661     2A    -20.513176     3A    -15.583972
       4A    -11.350122     5A    -11.320601     6A    -11.257427
       7A    -11.256961     8A    -11.256017     9A    -11.249657
      10A    -11.248888    11A    -11.240562    12A     -1.409888
      13A     -1.367097    14A     -1.225394    15A     -1.160063
      16A     -1.046503    17A     -1.017401    18A     -0.950299
      19A     -0.864663    20A     -0.844020    21A     -0.783076
      22A     -0.741432    23A     -0.723505    24A     -0.675127
      25A     -0.647847    26A     -0.635975    27A     -0.618474
      28A     -0.611297    29A     -0.595741    30A     -0.586205
      31A     -0.575187    32A     -0.545250    33A     -0.535700
      34A     -0.522602    35A     -0.510639    36A     -0.489876
      37A     -0.421546    38A     -0.388874    39A     -0.354457
      40A     -0.326250

  @DF-RHF Final Energy:  -512.55144056949302

   => Energetics <=

    Nuclear Repulsion Energy =            587.0576581057279100
    One-Electron Energy =               -1863.1193280335073723
    Two-Electron Energy =                 763.5102293582863240
    Total Energy =                       -512.5514405694930247
  Basis Set: (AUG-CC-PVTZ AUX)
    Blend: AUG-CC-PVTZ-RI
    Molecular point group: c1

    Geometry (in Angstrom), charge = 0, multiplicity = 1:

       Center              X                  Y                   Z               Mass
    ------------   -----------------  -----------------  -----------------  -----------------
         O           -0.481562133471     2.140584853190    -0.320463846822    15.994914619570
         O            1.760755866529     0.859727853190     1.139942153178    15.994914619570
         N            2.101476866529    -0.694878146810    -0.505179846822    14.003074004430
         C           -0.157910133471    -0.168041146810     0.110522153178    12.000000000000
         C           -1.033339133471     0.898555853190    -0.149442846822    12.000000000000
         C           -0.678282133471    -1.459983146810     0.244801153178    12.000000000000
         C            1.309430866529     0.080292853190     0.300042153178    12.000000000000
         C           -2.405538133471     0.661659853190    -0.266275846822    12.000000000000
         C           -2.049812133471    -1.697403146810     0.137683153178    12.000000000000
         C           -2.911530133471    -0.630659146810    -0.116145846822    12.000000000000
         C            3.544102866529    -0.528478146810    -0.496620846822    12.000000000000
         H            0.004971866529    -2.278407146810     0.461322153178     1.007825032230
         H           -3.092921133471     1.506124253190    -0.479688546822     1.007825032230
         H           -2.441614133471    -2.703700146810     0.258242153178     1.007825032230
         H           -3.982376133471    -0.797939146810    -0.202632846822     1.007825032230
         H            1.664573866529    -1.132911146810    -1.305728846822     1.007825032230
         H            3.864696866529     0.327489853190    -1.100531846822     1.007825032230
         H            4.012735866529    -1.437340146810    -0.878479846822     1.007825032230
         H            3.859336866529    -0.359232146810     0.532561153178     1.007825032230
         H           -1.203614133471     2.777345853190    -0.468327846822     1.007825032230

  Basis Set: AUG-CC-PVTZ
    Blend: AUG-CC-PVTZ
  Basis Set: (AUG-CC-PVTZ AUX)
    Blend: AUG-CC-PVTZ-JKFIT
	 Reference Energy          =    -512.5514405694930247 [Eh]
	 Singles Energy            =      -0.0000000000000000 [Eh]
	 Same-Spin Energy          =      -0.5370916228086086 [Eh]
	 Opposite-Spin Energy      =      -1.6462056726907466 [Eh]
	 Correlation Energy        =      -2.1832972954993553 [Eh]
	 Total Energy              =    -514.7347378649923257 [Eh]

	 ================> DF-SCS-MP2 Energies <==================
	-----------------------------------------------------------
	 SCS Same-Spin Scale       =       0.3333333333333333 [-]
	 SCS Opposite-Spin Scale   =       1.2000000000000000 [-]
	 SCS Same-Spin Energy      =      -0.1790305409362029 [Eh]
	 SCS Opposite-Spin Energy  =      -1.9754468072288958 [Eh]
	 SCS Correlation Energy    =      -2.1544773481650985 [Eh]
	 SCS Total Energy          =    -514.7059179176580983 [Eh]
	-----------------------------------------------------------

  Dipole Moment: [D]
     X:    -1.7047      Y:    -1.5880      Z:    -2.9723     Total:     3.7766

*** Psi4 exiting successfully. Buy a developer a beer!
