                               Psi4 1.4a3.dev225

  ==> Input File <==

--------------------------------------------------------------------------
#psi4
#
memory 32 gb

molecule  {
0 1
  O       -0.4983720     2.1660820    -0.3008080
  O        1.7439460     0.8852250     1.1595980
  N        2.0846670    -0.6693810    -0.4855240
  C       -0.1747200    -0.1425440     0.1301780
  C       -1.0501490     0.9240530    -0.1297870
  C       -0.6950920    -1.4344860     0.2644570
  C        1.2926210     0.1057900     0.3196980
  C       -2.4223480     0.6871570    -0.2466200
  C       -2.0666220    -1.6719060     0.1573390
  C       -2.9283400    -0.6051620    -0.0964900
  C        3.5272930    -0.5029810    -0.4769650
  H       -0.0118380    -2.2529100     0.4809780
  H       -3.0973410     1.5164000    -0.4561860
  H       -2.4584240    -2.6782030     0.2778980
  H       -3.9991860    -0.7724420    -0.1829770
  H        1.6477640    -1.1074140    -1.2860730
  H        3.8478870     0.3529870    -1.0808760
  H        3.9959260    -1.4118430    -0.8588240
  H        3.8425270    -0.3337350     0.5522170
  H       -1.1833579     2.7701553    -0.4410815
units angstrom
no_reorient  #important for SAPT in psi4, default
symmetry c1  #important for SAPT in psi4, default
}

set PROPERTIES_ORIGIN ["COM"]
properties('MP2/aug-cc-pvtz', properties = ['dipole'])
--------------------------------------------------------------------------

    Molecular point group: c1
  Charge       = 0
  Multiplicity = 1
  Basis Set: AUG-CC-PVTZ
    Blend: AUG-CC-PVTZ
  Basis Set: (AUG-CC-PVTZ AUX)
    Blend: AUG-CC-PVTZ-JKFIT

    Orbital Energies [Eh]
    ---------------------

    Doubly Occupied:

       1A    -20.593420     2A    -20.513321     3A    -15.584109
       4A    -11.350260     5A    -11.320838     6A    -11.257548
       7A    -11.257019     8A    -11.256124     9A    -11.249824
      10A    -11.247000    11A    -11.240799    12A     -1.421098
      13A     -1.367466    14A     -1.225537    15A     -1.161055
      16A     -1.047191    17A     -1.019548    18A     -0.950663
      19A     -0.866542    20A     -0.847718    21A     -0.783461
      22A     -0.748059    23A     -0.725896    24A     -0.676068
      25A     -0.649269    26A     -0.636398    27A     -0.620140
      28A     -0.612941    29A     -0.597207    30A     -0.587685
      31A     -0.576939    32A     -0.545379    33A     -0.536299
      34A     -0.523384    35A     -0.511556    36A     -0.490391
      37A     -0.421748    38A     -0.389010    39A     -0.354579
      40A     -0.326792

  @DF-RHF Final Energy:  -512.55288865798150

   => Energetics <=

    Nuclear Repulsion Energy =            587.5031754176981167
    One-Electron Energy =               -1863.9315650369385367
    Two-Electron Energy =                 763.8755009612590356
    Total Energy =                       -512.5528886579814980
  Basis Set: (AUG-CC-PVTZ AUX)
    Blend: AUG-CC-PVTZ-RI
    Molecular point group: c1

    Geometry (in Angstrom), charge = 0, multiplicity = 1:

       Center              X                  Y                   Z               Mass
    ------------   -----------------  -----------------  -----------------  -----------------
         O           -0.481892081818     2.140904480665    -0.320540150558    15.994914619570
         O            1.760425918182     0.860047480665     1.139865849442    15.994914619570
         N            2.101146918182    -0.694558519335    -0.505256150558    14.003074004430
         C           -0.158240081818    -0.167721519335     0.110445849442    12.000000000000
         C           -1.033669081818     0.898875480665    -0.149519150558    12.000000000000
         C           -0.678612081818    -1.459663519335     0.244724849442    12.000000000000
         C            1.309100918182     0.080612480665     0.299965849442    12.000000000000
         C           -2.405868081818     0.661979480665    -0.266352150558    12.000000000000
         C           -2.050142081818    -1.697083519335     0.137606849442    12.000000000000
         C           -2.911860081818    -0.630339519335    -0.116222150558    12.000000000000
         C            3.543772918182    -0.528158519335    -0.496697150558    12.000000000000
         H            0.004641918182    -2.278087519335     0.461245849442     1.007825032230
         H           -3.080861081818     1.491222480665    -0.475918150558     1.007825032230
         H           -2.441944081818    -2.703380519335     0.258165849442     1.007825032230
         H           -3.982706081818    -0.797619519335    -0.202709150558     1.007825032230
         H            1.664243918182    -1.132591519335    -1.305805150558     1.007825032230
         H            3.864366918182     0.327809480665    -1.100608150558     1.007825032230
         H            4.012405918182    -1.437020519335    -0.878556150558     1.007825032230
         H            3.859006918182    -0.358912519335     0.532484849442     1.007825032230
         H           -1.166877981818     2.744977780665    -0.460813650558     1.007825032230

  Basis Set: AUG-CC-PVTZ
    Blend: AUG-CC-PVTZ
  Basis Set: (AUG-CC-PVTZ AUX)
    Blend: AUG-CC-PVTZ-JKFIT
	 Reference Energy          =    -512.5528886579814980 [Eh]
	 Singles Energy            =      -0.0000000000000000 [Eh]
	 Same-Spin Energy          =      -0.5364014213593178 [Eh]
	 Opposite-Spin Energy      =      -1.6445100563135284 [Eh]
	 Correlation Energy        =      -2.1809114776728462 [Eh]
	 Total Energy              =    -514.7338001356542918 [Eh]

	 ================> DF-SCS-MP2 Energies <==================
	-----------------------------------------------------------
	 SCS Same-Spin Scale       =       0.3333333333333333 [-]
	 SCS Opposite-Spin Scale   =       1.2000000000000000 [-]
	 SCS Same-Spin Energy      =      -0.1788004737864393 [Eh]
	 SCS Opposite-Spin Energy  =      -1.9734120675762341 [Eh]
	 SCS Correlation Energy    =      -2.1522125413626734 [Eh]
	 SCS Total Energy          =    -514.7051011993441989 [Eh]
	-----------------------------------------------------------

  Dipole Moment: [D]
     X:    -1.6867      Y:    -1.6341      Z:    -2.9655     Total:     3.7828

*** Psi4 exiting successfully. Buy a developer a beer!
