                               Psi4 1.4a3.dev225

  ==> Input File <==

--------------------------------------------------------------------------
#psi4
#
memory 32 gb

molecule  {
0 1
  O       -0.4983720     2.1660820    -0.3008080
  O        1.7439460     0.8852250     1.1595980
  N        2.0846670    -0.6693810    -0.4855240
  C       -0.1747200    -0.1425440     0.1301780
  C       -1.0501490     0.9240530    -0.1297870
  C       -0.6950920    -1.4344860     0.2644570
  C        1.2926210     0.1057900     0.3196980
  C       -2.4223480     0.6871570    -0.2466200
  C       -2.0666220    -1.6719060     0.1573390
  C       -2.9283400    -0.6051620    -0.0964900
  C        3.5272930    -0.5029810    -0.4769650
  H        0.1137712    -2.4033689     0.5207832
  H       -3.0973410     1.5164000    -0.4561860
  H       -2.4584240    -2.6782030     0.2778980
  H       -3.9991860    -0.7724420    -0.1829770
  H        1.6477640    -1.1074140    -1.2860730
  H        3.8478870     0.3529870    -1.0808760
  H        3.9959260    -1.4118430    -0.8588240
  H        3.8425270    -0.3337350     0.5522170
  H       -1.2204240     2.8028430    -0.4486720
units angstrom
no_reorient  #important for SAPT in psi4, default
symmetry c1  #important for SAPT in psi4, default
}

set PROPERTIES_ORIGIN ["COM"]
properties('MP2/aug-cc-pvtz', properties = ['dipole'])
--------------------------------------------------------------------------

    Molecular point group: c1
  Charge       = 0
  Multiplicity = 1
  Basis Set: AUG-CC-PVTZ
    Blend: AUG-CC-PVTZ
  Basis Set: (AUG-CC-PVTZ AUX)
    Blend: AUG-CC-PVTZ-JKFIT

    Orbital Energies [Eh]
    ---------------------

    Doubly Occupied:

       1A    -20.598693     2A    -20.513128     3A    -15.583149
       4A    -11.350173     5A    -11.321957     6A    -11.278097
       7A    -11.258242     8A    -11.255645     9A    -11.251726
      10A    -11.247443    11A    -11.242423    12A     -1.410884
      13A     -1.366981    14A     -1.224792    15A     -1.160410
      16A     -1.046219    17A     -1.015907    18A     -0.949863
      19A     -0.860327    20A     -0.843139    21A     -0.783106
      22A     -0.734597    23A     -0.721247    24A     -0.674901
      25A     -0.648836    26A     -0.636052    27A     -0.616494
      28A     -0.600455    29A     -0.596654    30A     -0.580304
      31A     -0.574866    32A     -0.544882    33A     -0.533805
      34A     -0.520097    35A     -0.500480    36A     -0.491009
      37A     -0.421555    38A     -0.387907    39A     -0.355517
      40A     -0.327367

  @DF-RHF Final Energy:  -512.52964931311146

   => Energetics <=

    Nuclear Repulsion Energy =            586.2513304012177286
    One-Electron Energy =               -1861.5033040506573343
    Two-Electron Energy =                 762.7223243363281426
    Total Energy =                       -512.5296493131114630
  Basis Set: (AUG-CC-PVTZ AUX)
    Blend: AUG-CC-PVTZ-RI
    Molecular point group: c1

    Geometry (in Angstrom), charge = 0, multiplicity = 1:

       Center              X                  Y                   Z               Mass
    ------------   -----------------  -----------------  -----------------  -----------------
         O           -0.482482800648     2.141690195932    -0.320755072217    15.994914619570
         O            1.759835199352     0.860833195932     1.139650927783    15.994914619570
         N            2.100556199352    -0.693772804068    -0.505471072217    14.003074004430
         C           -0.158830800648    -0.166935804068     0.110230927783    12.000000000000
         C           -1.034259800648     0.899661195932    -0.149734072217    12.000000000000
         C           -0.679202800648    -1.458877804068     0.244509927783    12.000000000000
         C            1.308510199352     0.081398195932     0.299750927783    12.000000000000
         C           -2.406458800648     0.662765195932    -0.266567072217    12.000000000000
         C           -2.050732800648    -1.696297804068     0.137391927783    12.000000000000
         C           -2.912450800648    -0.629553804068    -0.116437072217    12.000000000000
         C            3.543182199352    -0.527372804068    -0.496912072217    12.000000000000
         H            0.129660399352    -2.427760704068     0.500836127783     1.007825032230
         H           -3.081451800648     1.492008195932    -0.476133072217     1.007825032230
         H           -2.442534800648    -2.702594804068     0.257950927783     1.007825032230
         H           -3.983296800648    -0.796833804068    -0.202924072217     1.007825032230
         H            1.663653199352    -1.131805804068    -1.306020072217     1.007825032230
         H            3.863776199352     0.328595195932    -1.100823072217     1.007825032230
         H            4.011815199352    -1.436234804068    -0.878771072217     1.007825032230
         H            3.858416199352    -0.358126804068     0.532269927783     1.007825032230
         H           -1.204534800648     2.778451195932    -0.468619072217     1.007825032230

  Basis Set: AUG-CC-PVTZ
    Blend: AUG-CC-PVTZ
  Basis Set: (AUG-CC-PVTZ AUX)
    Blend: AUG-CC-PVTZ-JKFIT
	 Reference Energy          =    -512.5296493131114630 [Eh]
	 Singles Energy            =      -0.0000000000000000 [Eh]
	 Same-Spin Energy          =      -0.5376927737247712 [Eh]
	 Opposite-Spin Energy      =      -1.6483305293413353 [Eh]
	 Correlation Energy        =      -2.1860233030661065 [Eh]
	 Total Energy              =    -514.7156726161775850 [Eh]

	 ================> DF-SCS-MP2 Energies <==================
	-----------------------------------------------------------
	 SCS Same-Spin Scale       =       0.3333333333333333 [-]
	 SCS Opposite-Spin Scale   =       1.2000000000000000 [-]
	 SCS Same-Spin Energy      =      -0.1792309245749237 [Eh]
	 SCS Opposite-Spin Energy  =      -1.9779966352096023 [Eh]
	 SCS Correlation Energy    =      -2.1572275597845261 [Eh]
	 SCS Total Energy          =    -514.6868768728959367 [Eh]
	-----------------------------------------------------------

  Dipole Moment: [D]
     X:    -1.7553      Y:    -1.5240      Z:    -2.9867     Total:     3.7847

*** Psi4 exiting successfully. Buy a developer a beer!
