                               Psi4 1.4a3.dev225

  ==> Input File <==

--------------------------------------------------------------------------
#psi4
#
memory 32 gb

molecule  {
0 1
  O       -0.4983720     2.1660820    -0.3008080
  O        1.7439460     0.8852250     1.1595980
  N        2.0846670    -0.6693810    -0.4855240
  C       -0.1747200    -0.1425440     0.1301780
  C       -1.0501490     0.9240530    -0.1297870
  C       -0.6950920    -1.4344860     0.2644570
  C        1.2926210     0.1057900     0.3196980
  C       -2.4223480     0.6871570    -0.2466200
  C       -1.8701338    -1.6378927     0.1726849
  C       -2.9283400    -0.6051620    -0.0964900
  C        3.5272930    -0.5029810    -0.4769650
  H       -0.0118380    -2.2529100     0.4809780
  H       -3.0973410     1.5164000    -0.4561860
  H       -2.4584240    -2.6782030     0.2778980
  H       -3.9991860    -0.7724420    -0.1829770
  H        1.6477640    -1.1074140    -1.2860730
  H        3.8478870     0.3529870    -1.0808760
  H        3.9959260    -1.4118430    -0.8588240
  H        3.8425270    -0.3337350     0.5522170
  H       -1.2204240     2.8028430    -0.4486720
units angstrom
no_reorient  #important for SAPT in psi4, default
symmetry c1  #important for SAPT in psi4, default
}

set PROPERTIES_ORIGIN ["COM"]
properties('MP2/aug-cc-pvtz', properties = ['dipole'])
--------------------------------------------------------------------------

    Molecular point group: c1
  Charge       = 0
  Multiplicity = 1
  Basis Set: AUG-CC-PVTZ
    Blend: AUG-CC-PVTZ
  Basis Set: (AUG-CC-PVTZ AUX)
    Blend: AUG-CC-PVTZ-JKFIT

    Orbital Energies [Eh]
    ---------------------

    Doubly Occupied:

       1A    -20.597513     2A    -20.510624     3A    -15.581800
       4A    -11.347006     5A    -11.319014     6A    -11.269291
       7A    -11.254685     8A    -11.252363     9A    -11.243402
      10A    -11.236483    11A    -11.225832    12A     -1.409595
      13A     -1.364583    14A     -1.223623    15A     -1.177237
      16A     -1.054401    17A     -1.026723    18A     -0.948258
      19A     -0.869032    20A     -0.835030    21A     -0.781421
      22A     -0.745572    23A     -0.714417    24A     -0.681667
      25A     -0.641421    26A     -0.630030    27A     -0.622232
      28A     -0.615639    29A     -0.602545    30A     -0.596161
      31A     -0.573042    32A     -0.543811    33A     -0.536400
      34A     -0.522270    35A     -0.502681    36A     -0.468943
      37A     -0.419414    38A     -0.387206    39A     -0.372323
      40A     -0.321258

  @DF-RHF Final Energy:  -512.48928096075554

   => Energetics <=

    Nuclear Repulsion Energy =            590.0990719950011680
    One-Electron Energy =               -1869.1268093985520409
    Two-Electron Energy =                 766.5384564427953364
    Total Energy =                       -512.4892809607555364
  Basis Set: (AUG-CC-PVTZ AUX)
    Blend: AUG-CC-PVTZ-RI
    Molecular point group: c1

    Geometry (in Angstrom), charge = 0, multiplicity = 1:

       Center              X                  Y                   Z               Mass
    ------------   -----------------  -----------------  -----------------  -----------------
         O           -0.497253204065     2.137984492826    -0.321708540702    15.994914619570
         O            1.745064795935     0.857127492826     1.138697459298    15.994914619570
         N            2.085785795935    -0.697478507174    -0.506424540702    14.003074004430
         C           -0.173601204065    -0.170641507174     0.109277459298    12.000000000000
         C           -1.049030204065     0.895955492826    -0.150687540702    12.000000000000
         C           -0.693973204065    -1.462583507174     0.243556459298    12.000000000000
         C            1.293739795935     0.077692492826     0.298797459298    12.000000000000
         C           -2.421229204065     0.659059492826    -0.267520540702    12.000000000000
         C           -1.869015004065    -1.665990207174     0.151784359298    12.000000000000
         C           -2.927221204065    -0.633259507174    -0.117390540702    12.000000000000
         C            3.528411795935    -0.531078507174    -0.497865540702    12.000000000000
         H           -0.010719204065    -2.281007507174     0.460077459298     1.007825032230
         H           -3.096222204065     1.488302492826    -0.477086540702     1.007825032230
         H           -2.457305204065    -2.706300507174     0.256997459298     1.007825032230
         H           -3.998067204065    -0.800539507174    -0.203877540702     1.007825032230
         H            1.648882795935    -1.135511507174    -1.306973540702     1.007825032230
         H            3.849005795935     0.324889492826    -1.101776540702     1.007825032230
         H            3.997044795935    -1.439940507174    -0.879724540702     1.007825032230
         H            3.843645795935    -0.361832507174     0.531316459298     1.007825032230
         H           -1.219305204065     2.774745492826    -0.469572540702     1.007825032230

  Basis Set: AUG-CC-PVTZ
    Blend: AUG-CC-PVTZ
  Basis Set: (AUG-CC-PVTZ AUX)
    Blend: AUG-CC-PVTZ-JKFIT
	 Reference Energy          =    -512.4892809607555364 [Eh]
	 Singles Energy            =      -0.0000000000000000 [Eh]
	 Same-Spin Energy          =      -0.5369246260219079 [Eh]
	 Opposite-Spin Energy      =      -1.6478372127868341 [Eh]
	 Correlation Energy        =      -2.1847618388087420 [Eh]
	 Total Energy              =    -514.6740427995642904 [Eh]

	 ================> DF-SCS-MP2 Energies <==================
	-----------------------------------------------------------
	 SCS Same-Spin Scale       =       0.3333333333333333 [-]
	 SCS Opposite-Spin Scale   =       1.2000000000000000 [-]
	 SCS Same-Spin Energy      =      -0.1789748753406360 [Eh]
	 SCS Opposite-Spin Energy  =      -1.9774046553442008 [Eh]
	 SCS Correlation Energy    =      -2.1563795306848368 [Eh]
	 SCS Total Energy          =    -514.6456604914403670 [Eh]
	-----------------------------------------------------------

  Dipole Moment: [D]
     X:    -1.8528      Y:    -1.5017      Z:    -2.9981     Total:     3.8310

*** Psi4 exiting successfully. Buy a developer a beer!
