                               Psi4 1.4a3.dev225

  ==> Input File <==

--------------------------------------------------------------------------
#psi4
#
memory 32 gb

molecule  {
0 1
  O       -0.4983720     2.1660820    -0.3008080
  O        1.7439460     0.8852250     1.1595980
  N        2.0846670    -0.6693810    -0.4855240
  C       -0.1747200    -0.1425440     0.1301780
  C       -1.0501490     0.9240530    -0.1297870
  C       -0.6950920    -1.4344860     0.2644570
  C        1.2637120     0.1340831     0.3490879
  C       -2.4223480     0.6871570    -0.2466200
  C       -2.0666220    -1.6719060     0.1573390
  C       -2.9283400    -0.6051620    -0.0964900
  C        3.5272930    -0.5029810    -0.4769650
  H       -0.0118380    -2.2529100     0.4809780
  H       -3.0973410     1.5164000    -0.4561860
  H       -2.4584240    -2.6782030     0.2778980
  H       -3.9991860    -0.7724420    -0.1829770
  H        1.6477640    -1.1074140    -1.2860730
  H        3.8478870     0.3529870    -1.0808760
  H        3.9959260    -1.4118430    -0.8588240
  H        3.8425270    -0.3337350     0.5522170
  H       -1.2204240     2.8028430    -0.4486720
units angstrom
no_reorient  #important for SAPT in psi4, default
symmetry c1  #important for SAPT in psi4, default
}

set PROPERTIES_ORIGIN ["COM"]
properties('MP2/aug-cc-pvtz', properties = ['dipole'])
--------------------------------------------------------------------------

    Molecular point group: c1
  Charge       = 0
  Multiplicity = 1
  Basis Set: AUG-CC-PVTZ
    Blend: AUG-CC-PVTZ
  Basis Set: (AUG-CC-PVTZ AUX)
    Blend: AUG-CC-PVTZ-JKFIT

    Orbital Energies [Eh]
    ---------------------

    Doubly Occupied:

       1A    -20.600062     2A    -20.521279     3A    -15.573819
       4A    -11.351112     5A    -11.322111     6A    -11.259400
       7A    -11.258565     8A    -11.250537     9A    -11.249696
      10A    -11.247811    11A    -11.241758    12A     -1.412802
      13A     -1.384266    14A     -1.210036    15A     -1.161462
      16A     -1.049699    17A     -1.019535    18A     -0.940388
      19A     -0.868640    20A     -0.845627    21A     -0.775901
      22A     -0.742584    23A     -0.721476    24A     -0.677911
      25A     -0.646698    26A     -0.638601    27A     -0.619077
      28A     -0.610826    29A     -0.597859    30A     -0.585487
      31A     -0.581245    32A     -0.540250    33A     -0.539290
      34A     -0.526700    35A     -0.513166    36A     -0.491503
      37A     -0.425857    38A     -0.383594    39A     -0.356204
      40A     -0.327980

  @DF-RHF Final Energy:  -512.55014392372993

   => Energetics <=

    Nuclear Repulsion Energy =            587.2982718562843729
    One-Electron Energy =               -1863.5552048134511551
    Two-Electron Energy =                 763.7067890334368485
    Total Energy =                       -512.5501439237299337
  Basis Set: (AUG-CC-PVTZ AUX)
    Blend: AUG-CC-PVTZ-RI
    Molecular point group: c1

    Geometry (in Angstrom), charge = 0, multiplicity = 1:

       Center              X                  Y                   Z               Mass
    ------------   -----------------  -----------------  -----------------  -----------------
         O           -0.479348352992     2.138438887686    -0.322824152291    15.994914619570
         O            1.762969647008     0.857581887686     1.137581847709    15.994914619570
         N            2.103690647008    -0.697024112314    -0.507540152291    14.003074004430
         C           -0.155696352992    -0.170187112314     0.108161847709    12.000000000000
         C           -1.031125352992     0.896409887686    -0.151803152291    12.000000000000
         C           -0.676068352992    -1.462129112314     0.242440847709    12.000000000000
         C            1.282735647008     0.106439987686     0.327071747709    12.000000000000
         C           -2.403324352992     0.659513887686    -0.268636152291    12.000000000000
         C           -2.047598352992    -1.699549112314     0.135322847709    12.000000000000
         C           -2.909316352992    -0.632805112314    -0.118506152291    12.000000000000
         C            3.546316647008    -0.530624112314    -0.498981152291    12.000000000000
         H            0.007185647008    -2.280553112314     0.458961847709     1.007825032230
         H           -3.078317352992     1.488756887686    -0.478202152291     1.007825032230
         H           -2.439400352992    -2.705846112314     0.255881847709     1.007825032230
         H           -3.980162352992    -0.800085112314    -0.204993152291     1.007825032230
         H            1.666787647008    -1.135057112314    -1.308089152291     1.007825032230
         H            3.866910647008     0.325343887686    -1.102892152291     1.007825032230
         H            4.014949647008    -1.439486112314    -0.880840152291     1.007825032230
         H            3.861550647008    -0.361378112314     0.530200847709     1.007825032230
         H           -1.201400352992     2.775199887686    -0.470688152291     1.007825032230

  Basis Set: AUG-CC-PVTZ
    Blend: AUG-CC-PVTZ
  Basis Set: (AUG-CC-PVTZ AUX)
    Blend: AUG-CC-PVTZ-JKFIT
	 Reference Energy          =    -512.5501439237299337 [Eh]
	 Singles Energy            =      -0.0000000000000000 [Eh]
	 Same-Spin Energy          =      -0.5367421059259480 [Eh]
	 Opposite-Spin Energy      =      -1.6456012089873042 [Eh]
	 Correlation Energy        =      -2.1823433149132523 [Eh]
	 Total Energy              =    -514.7324872386432162 [Eh]

	 ================> DF-SCS-MP2 Energies <==================
	-----------------------------------------------------------
	 SCS Same-Spin Scale       =       0.3333333333333333 [-]
	 SCS Opposite-Spin Scale   =       1.2000000000000000 [-]
	 SCS Same-Spin Energy      =      -0.1789140353086493 [Eh]
	 SCS Opposite-Spin Energy  =      -1.9747214507847650 [Eh]
	 SCS Correlation Energy    =      -2.1536354860934144 [Eh]
	 SCS Total Energy          =    -514.7037794098233690 [Eh]
	-----------------------------------------------------------

  Dipole Moment: [D]
     X:    -2.0213      Y:    -1.3667      Z:    -2.7145     Total:     3.6499

*** Psi4 exiting successfully. Buy a developer a beer!
