                               Psi4 1.4a3.dev225

  ==> Input File <==

--------------------------------------------------------------------------
#psi4
#
memory 32 gb

molecule  {
0 1
  O       -0.4983720     2.1660820    -0.3008080
  O        1.7439460     0.8852250     1.1595980
  N        2.0846670    -0.6693810    -0.4855240
  C       -0.1747200    -0.1425440     0.1301780
  C       -1.0501490     0.9240530    -0.1297870
  C       -0.6950920    -1.4344860     0.2644570
  C        1.3041846     0.0944728     0.3079420
  C       -2.4223480     0.6871570    -0.2466200
  C       -2.0666220    -1.6719060     0.1573390
  C       -2.9283400    -0.6051620    -0.0964900
  C        3.5272930    -0.5029810    -0.4769650
  H       -0.0118380    -2.2529100     0.4809780
  H       -3.0973410     1.5164000    -0.4561860
  H       -2.4584240    -2.6782030     0.2778980
  H       -3.9991860    -0.7724420    -0.1829770
  H        1.6477640    -1.1074140    -1.2860730
  H        3.8478870     0.3529870    -1.0808760
  H        3.9959260    -1.4118430    -0.8588240
  H        3.8425270    -0.3337350     0.5522170
  H       -1.2204240     2.8028430    -0.4486720
units angstrom
no_reorient  #important for SAPT in psi4, default
symmetry c1  #important for SAPT in psi4, default
}

set PROPERTIES_ORIGIN ["COM"]
properties('MP2/aug-cc-pvtz', properties = ['dipole'])
--------------------------------------------------------------------------

    Molecular point group: c1
  Charge       = 0
  Multiplicity = 1
  Basis Set: AUG-CC-PVTZ
    Blend: AUG-CC-PVTZ
  Basis Set: (AUG-CC-PVTZ AUX)
    Blend: AUG-CC-PVTZ-JKFIT

    Orbital Energies [Eh]
    ---------------------

    Doubly Occupied:

       1A    -20.596809     2A    -20.509766     3A    -15.587833
       4A    -11.349550     5A    -11.319723     6A    -11.258174
       7A    -11.256538     8A    -11.256024     9A    -11.249538
      10A    -11.246062    11A    -11.239883    12A     -1.408891
      13A     -1.361051    14A     -1.231091    15A     -1.159375
      16A     -1.045605    17A     -1.016956    18A     -0.954412
      19A     -0.863783    20A     -0.843640    21A     -0.786983
      22A     -0.742107    23A     -0.724029    24A     -0.674205
      25A     -0.649622    26A     -0.635642    27A     -0.619531
      28A     -0.613254    29A     -0.594824    30A     -0.585960
      31A     -0.572300    32A     -0.547314    33A     -0.534525
      34A     -0.521016    35A     -0.510606    36A     -0.489218
      37A     -0.419134    38A     -0.390305    39A     -0.353519
      40A     -0.325374

  @DF-RHF Final Energy:  -512.55113488754262

   => Energetics <=

    Nuclear Repulsion Energy =            587.1177091604241696
    One-Electron Energy =               -1863.2493427350150341
    Two-Electron Energy =                 763.5804986870483617
    Total Energy =                       -512.5511348875426165
  Basis Set: (AUG-CC-PVTZ AUX)
    Blend: AUG-CC-PVTZ-RI
    Molecular point group: c1

    Geometry (in Angstrom), charge = 0, multiplicity = 1:

       Center              X                  Y                   Z               Mass
    ------------   -----------------  -----------------  -----------------  -----------------
         O           -0.482563370195     2.141585406464    -0.319555650234    15.994914619570
         O            1.759754629805     0.860728406464     1.140850349766    15.994914619570
         N            2.100475629805    -0.693877593536    -0.504271650234    14.003074004430
         C           -0.158911370195    -0.167040593536     0.111430349766    12.000000000000
         C           -1.034340370195     0.899556406464    -0.148534650234    12.000000000000
         C           -0.679283370195    -1.458982593536     0.245709349766    12.000000000000
         C            1.319993229805     0.069976206464     0.289194349766    12.000000000000
         C           -2.406539370195     0.662660406464    -0.265367650234    12.000000000000
         C           -2.050813370195    -1.696402593536     0.138591349766    12.000000000000
         C           -2.912531370195    -0.629658593536    -0.115237650234    12.000000000000
         C            3.543101629805    -0.527477593536    -0.495712650234    12.000000000000
         H            0.003970629805    -2.277406593536     0.462230349766     1.007825032230
         H           -3.081532370195     1.491903406464    -0.474933650234     1.007825032230
         H           -2.442615370195    -2.702699593536     0.259150349766     1.007825032230
         H           -3.983377370195    -0.796938593536    -0.201724650234     1.007825032230
         H            1.663572629805    -1.131910593536    -1.304820650234     1.007825032230
         H            3.863695629805     0.328490406464    -1.099623650234     1.007825032230
         H            4.011734629805    -1.436339593536    -0.877571650234     1.007825032230
         H            3.858335629805    -0.358231593536     0.533469349766     1.007825032230
         H           -1.204615370195     2.778346406464    -0.467419650234     1.007825032230

  Basis Set: AUG-CC-PVTZ
    Blend: AUG-CC-PVTZ
  Basis Set: (AUG-CC-PVTZ AUX)
    Blend: AUG-CC-PVTZ-JKFIT
	 Reference Energy          =    -512.5511348875426165 [Eh]
	 Singles Energy            =      -0.0000000000000000 [Eh]
	 Same-Spin Energy          =      -0.5372016675721996 [Eh]
	 Opposite-Spin Energy      =      -1.6463013942659883 [Eh]
	 Correlation Energy        =      -2.1835030618381879 [Eh]
	 Total Energy              =    -514.7346379493808399 [Eh]

	 ================> DF-SCS-MP2 Energies <==================
	-----------------------------------------------------------
	 SCS Same-Spin Scale       =       0.3333333333333333 [-]
	 SCS Opposite-Spin Scale   =       1.2000000000000000 [-]
	 SCS Same-Spin Energy      =      -0.1790672225240665 [Eh]
	 SCS Opposite-Spin Energy  =      -1.9755616731191858 [Eh]
	 SCS Correlation Energy    =      -2.1546288956432522 [Eh]
	 SCS Total Energy          =    -514.7057637831858301 [Eh]
	-----------------------------------------------------------

  Dipole Moment: [D]
     X:    -1.5883      Y:    -1.6647      Z:    -3.0766     Total:     3.8418

*** Psi4 exiting successfully. Buy a developer a beer!
