                               Psi4 1.4a3.dev225

  ==> Input File <==

--------------------------------------------------------------------------
#psi4
#
memory 32 gb

molecule  {
0 1
  O       -0.4983720     2.1660820    -0.3008080
  O        1.7439460     0.8852250     1.1595980
  N        2.0846670    -0.6693810    -0.4855240
  C       -0.1747200    -0.1425440     0.1301780
  C       -1.0501490     0.9240530    -0.1297870
  C       -0.6726558    -1.4427806     0.2693786
  C        1.2926210     0.1057900     0.3196980
  C       -2.4223480     0.6871570    -0.2466200
  C       -2.0666220    -1.6719060     0.1573390
  C       -2.9283400    -0.6051620    -0.0964900
  C        3.5272930    -0.5029810    -0.4769650
  H       -0.0118380    -2.2529100     0.4809780
  H       -3.0973410     1.5164000    -0.4561860
  H       -2.4584240    -2.6782030     0.2778980
  H       -3.9991860    -0.7724420    -0.1829770
  H        1.6477640    -1.1074140    -1.2860730
  H        3.8478870     0.3529870    -1.0808760
  H        3.9959260    -1.4118430    -0.8588240
  H        3.8425270    -0.3337350     0.5522170
  H       -1.2204240     2.8028430    -0.4486720
units angstrom
no_reorient  #important for SAPT in psi4, default
symmetry c1  #important for SAPT in psi4, default
}

set PROPERTIES_ORIGIN ["COM"]
properties('MP2/aug-cc-pvtz', properties = ['dipole'])
--------------------------------------------------------------------------

    Molecular point group: c1
  Charge       = 0
  Multiplicity = 1
  Basis Set: AUG-CC-PVTZ
    Blend: AUG-CC-PVTZ
  Basis Set: (AUG-CC-PVTZ AUX)
    Blend: AUG-CC-PVTZ-JKFIT

    Orbital Energies [Eh]
    ---------------------

    Doubly Occupied:

       1A    -20.597804     2A    -20.512884     3A    -15.583859
       4A    -11.349580     5A    -11.320527     6A    -11.258191
       7A    -11.256455     8A    -11.255976     9A    -11.250345
      10A    -11.246691    11A    -11.242691    12A     -1.409999
      13A     -1.366907    14A     -1.225338    15A     -1.158027
      16A     -1.047480    17A     -1.015435    18A     -0.950085
      19A     -0.866025    20A     -0.844304    21A     -0.782624
      22A     -0.743652    23A     -0.723656    24A     -0.673615
      25A     -0.648063    26A     -0.636064    27A     -0.622063
      28A     -0.614040    29A     -0.595712    30A     -0.585424
      31A     -0.574383    32A     -0.545215    33A     -0.536716
      34A     -0.521676    35A     -0.513194    36A     -0.488132
      37A     -0.420809    38A     -0.388799    39A     -0.354591
      40A     -0.324729

  @DF-RHF Final Energy:  -512.55106183682972

   => Energetics <=

    Nuclear Repulsion Energy =            586.9490348391072985
    One-Electron Energy =               -1862.8966702129910118
    Two-Electron Energy =                 763.3965735370539960
    Total Energy =                       -512.5510618368297173
  Basis Set: (AUG-CC-PVTZ AUX)
    Blend: AUG-CC-PVTZ-RI
    Molecular point group: c1

    Geometry (in Angstrom), charge = 0, multiplicity = 1:

       Center              X                  Y                   Z               Mass
    ------------   -----------------  -----------------  -----------------  -----------------
         O           -0.483427055652     2.141345300541    -0.320880466799    15.994914619570
         O            1.758890944348     0.860488300541     1.139525533201    15.994914619570
         N            2.099611944348    -0.694117699459    -0.505596466799    14.003074004430
         C           -0.159775055652    -0.167280699459     0.110105533201    12.000000000000
         C           -1.035204055652     0.899316300541    -0.149859466799    12.000000000000
         C           -0.657710855652    -1.467517299459     0.249306133201    12.000000000000
         C            1.307565944348     0.081053300541     0.299625533201    12.000000000000
         C           -2.407403055652     0.662420300541    -0.266692466799    12.000000000000
         C           -2.051677055652    -1.696642699459     0.137266533201    12.000000000000
         C           -2.913395055652    -0.629898699459    -0.116562466799    12.000000000000
         C            3.542237944348    -0.527717699459    -0.497037466799    12.000000000000
         H            0.003106944348    -2.277646699459     0.460905533201     1.007825032230
         H           -3.082396055652     1.491663300541    -0.476258466799     1.007825032230
         H           -2.443479055652    -2.702939699459     0.257825533201     1.007825032230
         H           -3.984241055652    -0.797178699459    -0.203049466799     1.007825032230
         H            1.662708944348    -1.132150699459    -1.306145466799     1.007825032230
         H            3.862831944348     0.328250300541    -1.100948466799     1.007825032230
         H            4.010870944348    -1.436579699459    -0.878896466799     1.007825032230
         H            3.857471944348    -0.358471699459     0.532144533201     1.007825032230
         H           -1.205479055652     2.778106300541    -0.468744466799     1.007825032230

  Basis Set: AUG-CC-PVTZ
    Blend: AUG-CC-PVTZ
  Basis Set: (AUG-CC-PVTZ AUX)
    Blend: AUG-CC-PVTZ-JKFIT
	 Reference Energy          =    -512.5510618368297173 [Eh]
	 Singles Energy            =      -0.0000000000000000 [Eh]
	 Same-Spin Energy          =      -0.5370414779755899 [Eh]
	 Opposite-Spin Energy      =      -1.6462057171747757 [Eh]
	 Correlation Energy        =      -2.1832471951503658 [Eh]
	 Total Energy              =    -514.7343090319800467 [Eh]

	 ================> DF-SCS-MP2 Energies <==================
	-----------------------------------------------------------
	 SCS Same-Spin Scale       =       0.3333333333333333 [-]
	 SCS Opposite-Spin Scale   =       1.2000000000000000 [-]
	 SCS Same-Spin Energy      =      -0.1790138259918633 [Eh]
	 SCS Opposite-Spin Energy  =      -1.9754468606097308 [Eh]
	 SCS Correlation Energy    =      -2.1544606866015941 [Eh]
	 SCS Total Energy          =    -514.7055225234313411 [Eh]
	-----------------------------------------------------------

  Dipole Moment: [D]
     X:    -1.7094      Y:    -1.5832      Z:    -2.9727     Total:     3.7770

*** Psi4 exiting successfully. Buy a developer a beer!
