                               Psi4 1.4a3.dev225

  ==> Input File <==

--------------------------------------------------------------------------
#psi4
#
memory 32 gb

molecule  {
0 1
  O       -0.4983720     2.1660820    -0.3008080
  O        1.7439460     0.8852250     1.1595980
  N        2.0846670    -0.6693810    -0.4855240
  C       -0.1747200    -0.1425440     0.1301780
  C       -1.0501490     0.9240530    -0.1297870
  C       -0.6950920    -1.4344860     0.2644570
  C        1.2926210     0.1057900     0.3196980
  C       -2.4223480     0.6871570    -0.2466200
  C       -2.0666220    -1.6719060     0.1573390
  C       -2.9283400    -0.6051620    -0.0964900
  C        3.5272930    -0.5029810    -0.4769650
  H       -0.0118380    -2.2529100     0.4809780
  H       -3.0849510     1.5011786    -0.4523393
  H       -2.4584240    -2.6782030     0.2778980
  H       -3.9991860    -0.7724420    -0.1829770
  H        1.6477640    -1.1074140    -1.2860730
  H        3.8478870     0.3529870    -1.0808760
  H        3.9959260    -1.4118430    -0.8588240
  H        3.8425270    -0.3337350     0.5522170
  H       -1.2204240     2.8028430    -0.4486720
units angstrom
no_reorient  #important for SAPT in psi4, default
symmetry c1  #important for SAPT in psi4, default
}

set PROPERTIES_ORIGIN ["COM"]
properties('MP2/aug-cc-pvtz', properties = ['dipole'])
--------------------------------------------------------------------------

    Molecular point group: c1
  Charge       = 0
  Multiplicity = 1
  Basis Set: AUG-CC-PVTZ
    Blend: AUG-CC-PVTZ
  Basis Set: (AUG-CC-PVTZ AUX)
    Blend: AUG-CC-PVTZ-JKFIT

    Orbital Energies [Eh]
    ---------------------

    Doubly Occupied:

       1A    -20.597795     2A    -20.513061     3A    -15.583860
       4A    -11.349963     5A    -11.320193     6A    -11.257256
       7A    -11.256538     8A    -11.255943     9A    -11.249345
      10A    -11.244176    11A    -11.240253    12A     -1.409997
      13A     -1.366989    14A     -1.225285    15A     -1.159992
      16A     -1.046976    17A     -1.017984    18A     -0.950221
      19A     -0.865782    20A     -0.844476    21A     -0.783243
      22A     -0.743142    23A     -0.723758    24A     -0.675291
      25A     -0.648925    26A     -0.636231    27A     -0.620299
      28A     -0.613417    29A     -0.595733    30A     -0.586085
      31A     -0.575394    32A     -0.545195    33A     -0.536002
      34A     -0.522615    35A     -0.511633    36A     -0.489667
      37A     -0.421438    38A     -0.388782    39A     -0.354228
      40A     -0.326026

  @DF-RHF Final Energy:  -512.55223067165707

   => Energetics <=

    Nuclear Repulsion Energy =            587.2700481223714633
    One-Electron Energy =               -1863.5381761348021428
    Two-Electron Energy =                 763.7158973407736084
    Total Energy =                       -512.5522306716570711
  Basis Set: (AUG-CC-PVTZ AUX)
    Blend: AUG-CC-PVTZ-RI
    Molecular point group: c1

    Geometry (in Angstrom), charge = 0, multiplicity = 1:

       Center              X                  Y                   Z               Mass
    ------------   -----------------  -----------------  -----------------  -----------------
         O           -0.481727454231     2.140787953547    -0.320515173647    15.994914619570
         O            1.760590545769     0.859930953547     1.139890826353    15.994914619570
         N            2.101311545769    -0.694675046453    -0.505231173647    14.003074004430
         C           -0.158075454231    -0.167838046453     0.110470826353    12.000000000000
         C           -1.033504454231     0.898758953547    -0.149494173647    12.000000000000
         C           -0.678447454231    -1.459780046453     0.244749826353    12.000000000000
         C            1.309265545769     0.080495953547     0.299990826353    12.000000000000
         C           -2.405703454231     0.661862953547    -0.266327173647    12.000000000000
         C           -2.049977454231    -1.697200046453     0.137631826353    12.000000000000
         C           -2.911695454231    -0.630456046453    -0.116197173647    12.000000000000
         C            3.543937545769    -0.528275046453    -0.496672173647    12.000000000000
         H            0.004806545769    -2.278204046453     0.461270826353     1.007825032230
         H           -3.068306454231     1.475884553547    -0.472046473647     1.007825032230
         H           -2.441779454231    -2.703497046453     0.258190826353     1.007825032230
         H           -3.982541454231    -0.797736046453    -0.202684173647     1.007825032230
         H            1.664408545769    -1.132708046453    -1.305780173647     1.007825032230
         H            3.864531545769     0.327692953547    -1.100583173647     1.007825032230
         H            4.012570545769    -1.437137046453    -0.878531173647     1.007825032230
         H            3.859171545769    -0.359029046453     0.532509826353     1.007825032230
         H           -1.203779454231     2.777548953547    -0.468379173647     1.007825032230

  Basis Set: AUG-CC-PVTZ
    Blend: AUG-CC-PVTZ
  Basis Set: (AUG-CC-PVTZ AUX)
    Blend: AUG-CC-PVTZ-JKFIT
	 Reference Energy          =    -512.5522306716570711 [Eh]
	 Singles Energy            =      -0.0000000000000000 [Eh]
	 Same-Spin Energy          =      -0.5370064934071043 [Eh]
	 Opposite-Spin Energy      =      -1.6459285550155773 [Eh]
	 Correlation Energy        =      -2.1829350484226815 [Eh]
	 Total Energy              =    -514.7351657200797490 [Eh]

	 ================> DF-SCS-MP2 Energies <==================
	-----------------------------------------------------------
	 SCS Same-Spin Scale       =       0.3333333333333333 [-]
	 SCS Opposite-Spin Scale   =       1.2000000000000000 [-]
	 SCS Same-Spin Energy      =      -0.1790021644690347 [Eh]
	 SCS Opposite-Spin Energy  =      -1.9751142660186927 [Eh]
	 SCS Correlation Energy    =      -2.1541164304877274 [Eh]
	 SCS Total Energy          =    -514.7063471021448322 [Eh]
	-----------------------------------------------------------

  Dipole Moment: [D]
     X:    -1.7126      Y:    -1.5733      Z:    -2.9755     Total:     3.7764

*** Psi4 exiting successfully. Buy a developer a beer!
