                               Psi4 1.4a3.dev225

  ==> Input File <==

--------------------------------------------------------------------------
#psi4
#
memory 32 gb

molecule  {
0 1
  O       -0.4983720     2.1660820    -0.3008080
  O        1.7439460     0.8852250     1.1595980
  N        2.0846670    -0.6693810    -0.4855240
  C       -0.1747200    -0.1425440     0.1301780
  C       -1.0501490     0.9240530    -0.1297870
  C       -0.6950920    -1.4344860     0.2644570
  C        1.2926210     0.1057900     0.3196980
  C       -2.4223480     0.6871570    -0.2466200
  C       -2.0666220    -1.6719060     0.1573390
  C       -2.9283400    -0.6051620    -0.0964900
  C        3.5272930    -0.5029810    -0.4769650
  H       -0.0118380    -2.2529100     0.4809780
  H       -3.0973410     1.5164000    -0.4561860
  H       -2.4584240    -2.6782030     0.2778980
  H       -3.9991860    -0.7724420    -0.1829770
  H        1.6477640    -1.1074140    -1.2860730
  H        3.8332550     0.3139204    -1.0533133
  H        3.9959260    -1.4118430    -0.8588240
  H        3.8425270    -0.3337350     0.5522170
  H       -1.2204240     2.8028430    -0.4486720
units angstrom
no_reorient  #important for SAPT in psi4, default
symmetry c1  #important for SAPT in psi4, default
}

set PROPERTIES_ORIGIN ["COM"]
properties('MP2/aug-cc-pvtz', properties = ['dipole'])
--------------------------------------------------------------------------

    Molecular point group: c1
  Charge       = 0
  Multiplicity = 1
  Basis Set: AUG-CC-PVTZ
    Blend: AUG-CC-PVTZ
  Basis Set: (AUG-CC-PVTZ AUX)
    Blend: AUG-CC-PVTZ-JKFIT

    Orbital Energies [Eh]
    ---------------------

    Doubly Occupied:

       1A    -20.597626     2A    -20.512766     3A    -15.583237
       4A    -11.349768     5A    -11.320244     6A    -11.257169
       7A    -11.256609     8A    -11.249891     9A    -11.249317
      10A    -11.246424    11A    -11.240268    12A     -1.409834
      13A     -1.366765    14A     -1.225182    15A     -1.159889
      16A     -1.046778    17A     -1.017548    18A     -0.954002
      19A     -0.865456    20A     -0.844675    21A     -0.783169
      22A     -0.742137    23A     -0.723654    24A     -0.675153
      25A     -0.649417    26A     -0.638067    27A     -0.621942
      28A     -0.613261    29A     -0.595965    30A     -0.586187
      31A     -0.575067    32A     -0.544674    33A     -0.536798
      34A     -0.523295    35A     -0.511939    36A     -0.489853
      37A     -0.421253    38A     -0.389474    39A     -0.354183
      40A     -0.326006

  @DF-RHF Final Energy:  -512.55118161875669

   => Energetics <=

    Nuclear Repulsion Energy =            587.3886461100613587
    One-Electron Energy =               -1863.7697692508479577
    Two-Electron Energy =                 763.8299415220300261
    Total Energy =                       -512.5511816187566865
  Basis Set: (AUG-CC-PVTZ AUX)
    Blend: AUG-CC-PVTZ-RI
    Molecular point group: c1

    Geometry (in Angstrom), charge = 0, multiplicity = 1:

       Center              X                  Y                   Z               Mass
    ------------   -----------------  -----------------  -----------------  -----------------
         O           -0.481547175879     2.140947037752    -0.320673395889    15.994914619570
         O            1.760770824121     0.860090037752     1.139732604111    15.994914619570
         N            2.101491824121    -0.694515962248    -0.505389395889    14.003074004430
         C           -0.157895175879    -0.167678962248     0.110312604111    12.000000000000
         C           -1.033324175879     0.898918037752    -0.149652395889    12.000000000000
         C           -0.678267175879    -1.459620962248     0.244591604111    12.000000000000
         C            1.309445824121     0.080655037752     0.299832604111    12.000000000000
         C           -2.405523175879     0.662022037752    -0.266485395889    12.000000000000
         C           -2.049797175879    -1.697040962248     0.137473604111    12.000000000000
         C           -2.911515175879    -0.630296962248    -0.116355395889    12.000000000000
         C            3.544117824121    -0.528115962248    -0.496830395889    12.000000000000
         H            0.004986824121    -2.278044962248     0.461112604111     1.007825032230
         H           -3.080516175879     1.491265037752    -0.476051395889     1.007825032230
         H           -2.441599175879    -2.703337962248     0.258032604111     1.007825032230
         H           -3.982361175879    -0.797576962248    -0.202842395889     1.007825032230
         H            1.664588824121    -1.132548962248    -1.305938395889     1.007825032230
         H            3.850079824121     0.288785437752    -1.073178695889     1.007825032230
         H            4.012750824121    -1.436977962248    -0.878689395889     1.007825032230
         H            3.859351824121    -0.358869962248     0.532351604111     1.007825032230
         H           -1.203599175879     2.777708037752    -0.468537395889     1.007825032230

  Basis Set: AUG-CC-PVTZ
    Blend: AUG-CC-PVTZ
  Basis Set: (AUG-CC-PVTZ AUX)
    Blend: AUG-CC-PVTZ-JKFIT
	 Reference Energy          =    -512.5511816187566865 [Eh]
	 Singles Energy            =      -0.0000000000000000 [Eh]
	 Same-Spin Energy          =      -0.5370498510991842 [Eh]
	 Opposite-Spin Energy      =      -1.6457830573624752 [Eh]
	 Correlation Energy        =      -2.1828329084616596 [Eh]
	 Total Energy              =    -514.7340145272183918 [Eh]

	 ================> DF-SCS-MP2 Energies <==================
	-----------------------------------------------------------
	 SCS Same-Spin Scale       =       0.3333333333333333 [-]
	 SCS Opposite-Spin Scale   =       1.2000000000000000 [-]
	 SCS Same-Spin Energy      =      -0.1790166170330614 [Eh]
	 SCS Opposite-Spin Energy  =      -1.9749396688349701 [Eh]
	 SCS Correlation Energy    =      -2.1539562858680315 [Eh]
	 SCS Total Energy          =    -514.7051379046247348 [Eh]
	-----------------------------------------------------------

  Dipole Moment: [D]
     X:    -1.6783      Y:    -1.5673      Z:    -2.9920     Total:     3.7716

*** Psi4 exiting successfully. Buy a developer a beer!
