                               Psi4 1.4a3.dev225

  ==> Input File <==

--------------------------------------------------------------------------
#psi4
#
memory 32 gb

molecule  {
0 1
  O       -0.4983720     2.1660820    -0.3008080
  O        1.7439460     0.8852250     1.1595980
  N        2.0846670    -0.6693810    -0.4855240
  C       -0.1747200    -0.1425440     0.1301780
  C       -1.0501490     0.9240530    -0.1297870
  C       -0.6950920    -1.4344860     0.2644570
  C        1.2926210     0.1057900     0.3196980
  C       -2.4223480     0.6871570    -0.2466200
  C       -2.0666220    -1.6719060     0.1573390
  C       -2.9283400    -0.6051620    -0.0964900
  C        3.5272930    -0.5029810    -0.4769650
  H       -0.0118380    -2.2529100     0.4809780
  H       -3.0973410     1.5164000    -0.4561860
  H       -2.4584240    -2.6782030     0.2778980
  H       -4.1961634    -0.8032124    -0.1988859
  H        1.6477640    -1.1074140    -1.2860730
  H        3.8478870     0.3529870    -1.0808760
  H        3.9959260    -1.4118430    -0.8588240
  H        3.8425270    -0.3337350     0.5522170
  H       -1.2204240     2.8028430    -0.4486720
units angstrom
no_reorient  #important for SAPT in psi4, default
symmetry c1  #important for SAPT in psi4, default
}

set PROPERTIES_ORIGIN ["COM"]
properties('MP2/aug-cc-pvtz', properties = ['dipole'])
--------------------------------------------------------------------------

    Molecular point group: c1
  Charge       = 0
  Multiplicity = 1
  Basis Set: AUG-CC-PVTZ
    Blend: AUG-CC-PVTZ
  Basis Set: (AUG-CC-PVTZ AUX)
    Blend: AUG-CC-PVTZ-JKFIT

    Orbital Energies [Eh]
    ---------------------

    Doubly Occupied:

       1A    -20.598865     2A    -20.513748     3A    -15.584507
       4A    -11.350716     5A    -11.321948     6A    -11.278076
       7A    -11.258952     8A    -11.256410     9A    -11.250495
      10A    -11.248794    11A    -11.242647    12A     -1.411020
      13A     -1.367675    14A     -1.225930    15A     -1.160671
      16A     -1.044399    17A     -1.019091    18A     -0.949404
      19A     -0.861193    20A     -0.842052    21A     -0.782724
      22A     -0.740841    23A     -0.723037    24A     -0.668130
      25A     -0.643033    26A     -0.635940    27A     -0.615053
      28A     -0.613572    29A     -0.596803    30A     -0.579902
      31A     -0.574442    32A     -0.545677    33A     -0.536007
      34A     -0.515715    35A     -0.502588    36A     -0.491145
      37A     -0.421918    38A     -0.389375    39A     -0.355657
      40A     -0.327466

  @DF-RHF Final Energy:  -512.52983249418946

   => Energetics <=

    Nuclear Repulsion Energy =            586.2186313159645579
    One-Electron Energy =               -1861.4056986538646470
    Two-Electron Energy =                 762.6572348437106257
    Total Energy =                       -512.5298324941894634
  Basis Set: (AUG-CC-PVTZ AUX)
    Blend: AUG-CC-PVTZ-RI
    Molecular point group: c1

    Geometry (in Angstrom), charge = 0, multiplicity = 1:

       Center              X                  Y                   Z               Mass
    ------------   -----------------  -----------------  -----------------  -----------------
         O           -0.480330651257     2.140891689322    -0.320383373372    15.994914619570
         O            1.761987348743     0.860034689322     1.140022626628    15.994914619570
         N            2.102708348743    -0.694571310678    -0.505099373372    14.003074004430
         C           -0.156678651257    -0.167734310678     0.110602626628    12.000000000000
         C           -1.032107651257     0.898862689322    -0.149362373372    12.000000000000
         C           -0.677050651257    -1.459676310678     0.244881626628    12.000000000000
         C            1.310662348743     0.080599689322     0.300122626628    12.000000000000
         C           -2.404306651257     0.661966689322    -0.266195373372    12.000000000000
         C           -2.048580651257    -1.697096310678     0.137763626628    12.000000000000
         C           -2.910298651257    -0.630352310678    -0.116065373372    12.000000000000
         C            3.545334348743    -0.528171310678    -0.496540373372    12.000000000000
         H            0.006203348743    -2.278100310678     0.461402626628     1.007825032230
         H           -3.079299651257     1.491209689322    -0.475761373372     1.007825032230
         H           -2.440382651257    -2.703393310678     0.258322626628     1.007825032230
         H           -4.178122051257    -0.828402710678    -0.218461273372     1.007825032230
         H            1.665805348743    -1.132604310678    -1.305648373372     1.007825032230
         H            3.865928348743     0.327796689322    -1.100451373372     1.007825032230
         H            4.013967348743    -1.437033310678    -0.878399373372     1.007825032230
         H            3.860568348743    -0.358925310678     0.532641626628     1.007825032230
         H           -1.202382651257     2.777652689322    -0.468247373372     1.007825032230

  Basis Set: AUG-CC-PVTZ
    Blend: AUG-CC-PVTZ
  Basis Set: (AUG-CC-PVTZ AUX)
    Blend: AUG-CC-PVTZ-JKFIT
	 Reference Energy          =    -512.5298324941894634 [Eh]
	 Singles Energy            =      -0.0000000000000000 [Eh]
	 Same-Spin Energy          =      -0.5375408073905141 [Eh]
	 Opposite-Spin Energy      =      -1.6482847149509054 [Eh]
	 Correlation Energy        =      -2.1858255223414194 [Eh]
	 Total Energy              =    -514.7156580165309379 [Eh]

	 ================> DF-SCS-MP2 Energies <==================
	-----------------------------------------------------------
	 SCS Same-Spin Scale       =       0.3333333333333333 [-]
	 SCS Opposite-Spin Scale   =       1.2000000000000000 [-]
	 SCS Same-Spin Energy      =      -0.1791802691301714 [Eh]
	 SCS Opposite-Spin Energy  =      -1.9779416579410865 [Eh]
	 SCS Correlation Energy    =      -2.1571219270712576 [Eh]
	 SCS Total Energy          =    -514.6869544212606797 [Eh]
	-----------------------------------------------------------

  Dipole Moment: [D]
     X:    -1.5989      Y:    -1.5603      Z:    -2.9665     Total:     3.7136

*** Psi4 exiting successfully. Buy a developer a beer!
