                               Psi4 1.4a3.dev225

  ==> Input File <==

--------------------------------------------------------------------------
#psi4
#
memory 32 gb

molecule  {
0 1
  O       -0.4983720     2.1660820    -0.3008080
  O        1.7439460     0.8852250     1.1595980
  N        2.0846670    -0.6693810    -0.4855240
  C       -0.1747200    -0.1425440     0.1301780
  C       -1.0501490     0.9240530    -0.1297870
  C       -0.6950920    -1.4344860     0.2644570
  C        1.2926210     0.1057900     0.3196980
  C       -2.4223480     0.6871570    -0.2466200
  C       -2.1648661    -1.6889126     0.1496660
  C       -2.9283400    -0.6051620    -0.0964900
  C        3.5272930    -0.5029810    -0.4769650
  H       -0.0118380    -2.2529100     0.4809780
  H       -3.0973410     1.5164000    -0.4561860
  H       -2.4584240    -2.6782030     0.2778980
  H       -3.9991860    -0.7724420    -0.1829770
  H        1.6477640    -1.1074140    -1.2860730
  H        3.8478870     0.3529870    -1.0808760
  H        3.9959260    -1.4118430    -0.8588240
  H        3.8425270    -0.3337350     0.5522170
  H       -1.2204240     2.8028430    -0.4486720
units angstrom
no_reorient  #important for SAPT in psi4, default
symmetry c1  #important for SAPT in psi4, default
}

set PROPERTIES_ORIGIN ["COM"]
properties('MP2/aug-cc-pvtz', properties = ['dipole'])
--------------------------------------------------------------------------

    Molecular point group: c1
  Charge       = 0
  Multiplicity = 1
  Basis Set: AUG-CC-PVTZ
    Blend: AUG-CC-PVTZ
  Basis Set: (AUG-CC-PVTZ AUX)
    Blend: AUG-CC-PVTZ-JKFIT

    Orbital Energies [Eh]
    ---------------------

    Doubly Occupied:

       1A    -20.598392     2A    -20.514160     3A    -15.584790
       4A    -11.351328     5A    -11.321667     6A    -11.268071
       7A    -11.256535     8A    -11.252320     9A    -11.250511
      10A    -11.243745    11A    -11.241232    12A     -1.410534
      13A     -1.368095    14A     -1.226116    15A     -1.155832
      16A     -1.051099    17A     -1.011044    18A     -0.950268
      19A     -0.866635    20A     -0.843896    21A     -0.784265
      22A     -0.741677    23A     -0.727371    24A     -0.673463
      25A     -0.655428    26A     -0.638230    27A     -0.619033
      28A     -0.611530    29A     -0.595910    30A     -0.579652
      31A     -0.572984    32A     -0.550449    33A     -0.545550
      34A     -0.517284    35A     -0.507654    36A     -0.486888
      37A     -0.421394    38A     -0.389474    39A     -0.355967
      40A     -0.323613

  @DF-RHF Final Energy:  -512.54082419301039

   => Energetics <=

    Nuclear Repulsion Energy =            585.9321138840646199
    One-Electron Energy =               -1860.8177001551428020
    Two-Electron Energy =                 762.3447620780677880
    Total Energy =                       -512.5408241930103941
  Basis Set: (AUG-CC-PVTZ AUX)
    Blend: AUG-CC-PVTZ-RI
    Molecular point group: c1

    Geometry (in Angstrom), charge = 0, multiplicity = 1:

       Center              X                  Y                   Z               Mass
    ------------   -----------------  -----------------  -----------------  -----------------
         O           -0.473840588744     2.142037354668    -0.319879991029    15.994914619570
         O            1.768477411256     0.861180354668     1.140526008971    15.994914619570
         N            2.109198411256    -0.693425645332    -0.504595991029    14.003074004430
         C           -0.150188588744    -0.166588645332     0.111106008971    12.000000000000
         C           -1.025617588744     0.900008354668    -0.148858991029    12.000000000000
         C           -0.670560588744    -1.458530645332     0.245385008971    12.000000000000
         C            1.317152411256     0.081745354668     0.300626008971    12.000000000000
         C           -2.397816588744     0.663112354668    -0.265691991029    12.000000000000
         C           -2.140334688744    -1.712957245332     0.130594008971    12.000000000000
         C           -2.903808588744    -0.629206645332    -0.115561991029    12.000000000000
         C            3.551824411256    -0.527025645332    -0.496036991029    12.000000000000
         H            0.012693411256    -2.276954645332     0.461906008971     1.007825032230
         H           -3.072809588744     1.492355354668    -0.475257991029     1.007825032230
         H           -2.433892588744    -2.702247645332     0.258826008971     1.007825032230
         H           -3.974654588744    -0.796486645332    -0.202048991029     1.007825032230
         H            1.672295411256    -1.131458645332    -1.305144991029     1.007825032230
         H            3.872418411256     0.328942354668    -1.099947991029     1.007825032230
         H            4.020457411256    -1.435887645332    -0.877895991029     1.007825032230
         H            3.867058411256    -0.357779645332     0.533145008971     1.007825032230
         H           -1.195892588744     2.778798354668    -0.467743991029     1.007825032230

  Basis Set: AUG-CC-PVTZ
    Blend: AUG-CC-PVTZ
  Basis Set: (AUG-CC-PVTZ AUX)
    Blend: AUG-CC-PVTZ-JKFIT
	 Reference Energy          =    -512.5408241930103941 [Eh]
	 Singles Energy            =      -0.0000000000000000 [Eh]
	 Same-Spin Energy          =      -0.5366414354556325 [Eh]
	 Opposite-Spin Energy      =      -1.6466130303314146 [Eh]
	 Correlation Energy        =      -2.1832544657870470 [Eh]
	 Total Energy              =    -514.7240786587974526 [Eh]

	 ================> DF-SCS-MP2 Energies <==================
	-----------------------------------------------------------
	 SCS Same-Spin Scale       =       0.3333333333333333 [-]
	 SCS Opposite-Spin Scale   =       1.2000000000000000 [-]
	 SCS Same-Spin Energy      =      -0.1788804784852108 [Eh]
	 SCS Opposite-Spin Energy  =      -1.9759356363976974 [Eh]
	 SCS Correlation Energy    =      -2.1548161148829084 [Eh]
	 SCS Total Energy          =    -514.6956403078933135 [Eh]
	-----------------------------------------------------------

  Dipole Moment: [D]
     X:    -1.6277      Y:    -1.5998      Z:    -2.9640     Total:     3.7409

*** Psi4 exiting successfully. Buy a developer a beer!
