                               Psi4 1.4a3.dev225

  ==> Input File <==

--------------------------------------------------------------------------
#psi4
#
memory 32 gb

molecule  {
0 1
  O       -0.4983720     2.1660820    -0.3008080
  O        1.7439460     0.8852250     1.1595980
  N        2.0846670    -0.6693810    -0.4855240
  C       -0.1747200    -0.1425440     0.1301780
  C       -1.0501490     0.9240530    -0.1297870
  C       -0.7034722    -1.3872415     0.2559592
  C        1.2926210     0.1057900     0.3196980
  C       -2.4223480     0.6871570    -0.2466200
  C       -2.0666220    -1.6719060     0.1573390
  C       -2.9283400    -0.6051620    -0.0964900
  C        3.5272930    -0.5029810    -0.4769650
  H       -0.0118380    -2.2529100     0.4809780
  H       -3.0973410     1.5164000    -0.4561860
  H       -2.4584240    -2.6782030     0.2778980
  H       -3.9991860    -0.7724420    -0.1829770
  H        1.6477640    -1.1074140    -1.2860730
  H        3.8478870     0.3529870    -1.0808760
  H        3.9959260    -1.4118430    -0.8588240
  H        3.8425270    -0.3337350     0.5522170
  H       -1.2204240     2.8028430    -0.4486720
units angstrom
no_reorient  #important for SAPT in psi4, default
symmetry c1  #important for SAPT in psi4, default
}

set PROPERTIES_ORIGIN ["COM"]
properties('MP2/aug-cc-pvtz', properties = ['dipole'])
--------------------------------------------------------------------------

    Molecular point group: c1
  Charge       = 0
  Multiplicity = 1
  Basis Set: AUG-CC-PVTZ
    Blend: AUG-CC-PVTZ
  Basis Set: (AUG-CC-PVTZ AUX)
    Blend: AUG-CC-PVTZ-JKFIT

    Orbital Energies [Eh]
    ---------------------

    Doubly Occupied:

       1A    -20.598083     2A    -20.514004     3A    -15.584359
       4A    -11.351098     5A    -11.320831     6A    -11.256265
       7A    -11.256158     8A    -11.256026     9A    -11.245945
      10A    -11.244830    11A    -11.239324    12A     -1.410302
      13A     -1.367848    14A     -1.225950    15A     -1.164654
      16A     -1.050569    17A     -1.015966    18A     -0.951087
      19A     -0.862612    20A     -0.846533    21A     -0.784715
      22A     -0.741018    23A     -0.723552    24A     -0.677120
      25A     -0.648472    26A     -0.636802    27A     -0.617666
      28A     -0.609026    29A     -0.596471    30A     -0.584844
      31A     -0.577832    32A     -0.545536    33A     -0.537319
      34A     -0.522001    35A     -0.506490    36A     -0.492012
      37A     -0.422474    38A     -0.389069    39A     -0.358768
      40A     -0.325004

  @DF-RHF Final Energy:  -512.54957227777891

   => Energetics <=

    Nuclear Repulsion Energy =            588.0505619461844162
    One-Electron Energy =               -1865.0830009850355964
    Two-Electron Energy =                 764.4828667610722732
    Total Energy =                       -512.5495722777789069
  Basis Set: (AUG-CC-PVTZ AUX)
    Blend: AUG-CC-PVTZ-RI
    Molecular point group: c1

    Geometry (in Angstrom), charge = 0, multiplicity = 1:

       Center              X                  Y                   Z               Mass
    ------------   -----------------  -----------------  -----------------  -----------------
         O           -0.480979096882     2.136933447536    -0.319814471487    15.994914619570
         O            1.761338903118     0.856076447536     1.140591528513    15.994914619570
         N            2.102059903118    -0.698529552464    -0.504530471487    14.003074004430
         C           -0.157327096882    -0.171692552464     0.111171528513    12.000000000000
         C           -1.032756096882     0.894904447536    -0.148793471487    12.000000000000
         C           -0.686079296882    -1.416390052464     0.236952728513    12.000000000000
         C            1.310013903118     0.076641447536     0.300691528513    12.000000000000
         C           -2.404955096882     0.658008447536    -0.265626471487    12.000000000000
         C           -2.049229096882    -1.701054552464     0.138332528513    12.000000000000
         C           -2.910947096882    -0.634310552464    -0.115496471487    12.000000000000
         C            3.544685903118    -0.532129552464    -0.495971471487    12.000000000000
         H            0.005554903118    -2.282058552464     0.461971528513     1.007825032230
         H           -3.079948096882     1.487251447536    -0.475192471487     1.007825032230
         H           -2.441031096882    -2.707351552464     0.258891528513     1.007825032230
         H           -3.981793096882    -0.801590552464    -0.201983471487     1.007825032230
         H            1.665156903118    -1.136562552464    -1.305079471487     1.007825032230
         H            3.865279903118     0.323838447536    -1.099882471487     1.007825032230
         H            4.013318903118    -1.440991552464    -0.877830471487     1.007825032230
         H            3.859919903118    -0.362883552464     0.533210528513     1.007825032230
         H           -1.203031096882     2.773694447536    -0.467678471487     1.007825032230

  Basis Set: AUG-CC-PVTZ
    Blend: AUG-CC-PVTZ
  Basis Set: (AUG-CC-PVTZ AUX)
    Blend: AUG-CC-PVTZ-JKFIT
	 Reference Energy          =    -512.5495722777789069 [Eh]
	 Singles Energy            =      -0.0000000000000000 [Eh]
	 Same-Spin Energy          =      -0.5370131734342383 [Eh]
	 Opposite-Spin Energy      =      -1.6459691211335490 [Eh]
	 Correlation Energy        =      -2.1829822945677870 [Eh]
	 Total Energy              =    -514.7325545723466576 [Eh]

	 ================> DF-SCS-MP2 Energies <==================
	-----------------------------------------------------------
	 SCS Same-Spin Scale       =       0.3333333333333333 [-]
	 SCS Opposite-Spin Scale   =       1.2000000000000000 [-]
	 SCS Same-Spin Energy      =      -0.1790043911447461 [Eh]
	 SCS Opposite-Spin Energy  =      -1.9751629453602586 [Eh]
	 SCS Correlation Energy    =      -2.1541673365050045 [Eh]
	 SCS Total Energy          =    -514.7037396142839043 [Eh]
	-----------------------------------------------------------

  Dipole Moment: [D]
     X:    -1.6815      Y:    -1.5668      Z:    -2.9781     Total:     3.7619

*** Psi4 exiting successfully. Buy a developer a beer!
