                               Psi4 1.4a3.dev225

  ==> Input File <==

--------------------------------------------------------------------------
#psi4
#
memory 32 gb

molecule  {
0 1
  O       -0.4983720     2.1660820    -0.3008080
  O        1.7439460     0.8852250     1.1595980
  N        2.0846670    -0.6693810    -0.4855240
  C       -0.1747200    -0.1425440     0.1301780
  C       -1.0501490     0.9240530    -0.1297870
  C       -0.7135133    -1.3403439     0.2473413
  C        1.2926210     0.1057900     0.3196980
  C       -2.4223480     0.6871570    -0.2466200
  C       -2.0666220    -1.6719060     0.1573390
  C       -2.9283400    -0.6051620    -0.0964900
  C        3.5272930    -0.5029810    -0.4769650
  H       -0.0118380    -2.2529100     0.4809780
  H       -3.0973410     1.5164000    -0.4561860
  H       -2.4584240    -2.6782030     0.2778980
  H       -3.9991860    -0.7724420    -0.1829770
  H        1.6477640    -1.1074140    -1.2860730
  H        3.8478870     0.3529870    -1.0808760
  H        3.9959260    -1.4118430    -0.8588240
  H        3.8425270    -0.3337350     0.5522170
  H       -1.2204240     2.8028430    -0.4486720
units angstrom
no_reorient  #important for SAPT in psi4, default
symmetry c1  #important for SAPT in psi4, default
}

set PROPERTIES_ORIGIN ["COM"]
properties('MP2/aug-cc-pvtz', properties = ['dipole'])
--------------------------------------------------------------------------

    Molecular point group: c1
  Charge       = 0
  Multiplicity = 1
  Basis Set: AUG-CC-PVTZ
    Blend: AUG-CC-PVTZ
  Basis Set: (AUG-CC-PVTZ AUX)
    Blend: AUG-CC-PVTZ-JKFIT

    Orbital Energies [Eh]
    ---------------------

    Doubly Occupied:

       1A    -20.598516     2A    -20.514953     3A    -15.584802
       4A    -11.352249     5A    -11.321398     6A    -11.256551
       7A    -11.255713     8A    -11.254901     9A    -11.243258
      10A    -11.242353    11A    -11.238639    12A     -1.410748
      13A     -1.368701    14A     -1.226595    15A     -1.170058
      16A     -1.054700    17A     -1.014379    18A     -0.952026
      19A     -0.860540    20A     -0.849021    21A     -0.786337
      22A     -0.740741    23A     -0.722961    24A     -0.679996
      25A     -0.648714    26A     -0.637600    27A     -0.617607
      28A     -0.605016    29A     -0.597363    30A     -0.583562
      31A     -0.579864    32A     -0.545854    33A     -0.538679
      34A     -0.522829    35A     -0.498007    36A     -0.494565
      37A     -0.423139    38A     -0.389250    39A     -0.363501
      40A     -0.323977

  @DF-RHF Final Energy:  -512.54072712209813

   => Energetics <=

    Nuclear Repulsion Energy =            588.9521283071557036
    One-Electron Energy =               -1866.8463885506889710
    Two-Electron Energy =                 765.3535331214350208
    Total Energy =                       -512.5407271220981329
  Basis Set: (AUG-CC-PVTZ AUX)
    Blend: AUG-CC-PVTZ-RI
    Molecular point group: c1

    Geometry (in Angstrom), charge = 0, multiplicity = 1:

       Center              X                  Y                   Z               Mass
    ------------   -----------------  -----------------  -----------------  -----------------
         O           -0.480181463193     2.133208048357    -0.319129892371    15.994914619570
         O            1.762136536807     0.852351048357     1.141276107629    15.994914619570
         N            2.102857536807    -0.702254951643    -0.503845892371    14.003074004430
         C           -0.156529463193    -0.175417951643     0.111856107629    12.000000000000
         C           -1.031958463193     0.891179048357    -0.148108892371    12.000000000000
         C           -0.695322763193    -1.373217851643     0.229019407629    12.000000000000
         C            1.310811536807     0.072916048357     0.301376107629    12.000000000000
         C           -2.404157463193     0.654283048357    -0.264941892371    12.000000000000
         C           -2.048431463193    -1.704779951643     0.139017107629    12.000000000000
         C           -2.910149463193    -0.638035951643    -0.114811892371    12.000000000000
         C            3.545483536807    -0.535854951643    -0.495286892371    12.000000000000
         H            0.006352536807    -2.285783951643     0.462656107629     1.007825032230
         H           -3.079150463193     1.483526048357    -0.474507892371     1.007825032230
         H           -2.440233463193    -2.711076951643     0.259576107629     1.007825032230
         H           -3.980995463193    -0.805315951643    -0.201298892371     1.007825032230
         H            1.665954536807    -1.140287951643    -1.304394892371     1.007825032230
         H            3.866077536807     0.320113048357    -1.099197892371     1.007825032230
         H            4.014116536807    -1.444716951643    -0.877145892371     1.007825032230
         H            3.860717536807    -0.366608951643     0.533895107629     1.007825032230
         H           -1.202233463193     2.769969048357    -0.466993892371     1.007825032230

  Basis Set: AUG-CC-PVTZ
    Blend: AUG-CC-PVTZ
  Basis Set: (AUG-CC-PVTZ AUX)
    Blend: AUG-CC-PVTZ-JKFIT
	 Reference Energy          =    -512.5407271220981329 [Eh]
	 Singles Energy            =      -0.0000000000000000 [Eh]
	 Same-Spin Energy          =      -0.5370584581907765 [Eh]
	 Opposite-Spin Energy      =      -1.6462086495348727 [Eh]
	 Correlation Energy        =      -2.1832671077256491 [Eh]
	 Total Energy              =    -514.7239942298238020 [Eh]

	 ================> DF-SCS-MP2 Energies <==================
	-----------------------------------------------------------
	 SCS Same-Spin Scale       =       0.3333333333333333 [-]
	 SCS Opposite-Spin Scale   =       1.2000000000000000 [-]
	 SCS Same-Spin Energy      =      -0.1790194860635921 [Eh]
	 SCS Opposite-Spin Energy  =      -1.9754503794418472 [Eh]
	 SCS Correlation Energy    =      -2.1544698655054395 [Eh]
	 SCS Total Energy          =    -514.6951969876035946 [Eh]
	-----------------------------------------------------------

  Dipole Moment: [D]
     X:    -1.6604      Y:    -1.5440      Z:    -2.9846     Total:     3.7481

*** Psi4 exiting successfully. Buy a developer a beer!
