                               Psi4 1.4a3.dev225

  ==> Input File <==

--------------------------------------------------------------------------
#psi4
#
memory 32 gb

molecule  {
0 1
  O       -0.4983720     2.1660820    -0.3008080
  O        1.7439460     0.8852250     1.1595980
  N        2.0846670    -0.6693810    -0.4855240
  C       -0.1747200    -0.1425440     0.1301780
  C       -1.0501490     0.9240530    -0.1297870
  C       -0.8261448    -1.3765511     0.2341218
  C        1.2926210     0.1057900     0.3196980
  C       -2.4223480     0.6871570    -0.2466200
  C       -2.0666220    -1.6719060     0.1573390
  C       -2.9283400    -0.6051620    -0.0964900
  C        3.5272930    -0.5029810    -0.4769650
  H       -0.0118380    -2.2529100     0.4809780
  H       -3.0973410     1.5164000    -0.4561860
  H       -2.4584240    -2.6782030     0.2778980
  H       -3.9991860    -0.7724420    -0.1829770
  H        1.6477640    -1.1074140    -1.2860730
  H        3.8478870     0.3529870    -1.0808760
  H        3.9959260    -1.4118430    -0.8588240
  H        3.8425270    -0.3337350     0.5522170
  H       -1.2204240     2.8028430    -0.4486720
units angstrom
no_reorient  #important for SAPT in psi4, default
symmetry c1  #important for SAPT in psi4, default
}

set PROPERTIES_ORIGIN ["COM"]
properties('MP2/aug-cc-pvtz', properties = ['dipole'])
--------------------------------------------------------------------------

    Molecular point group: c1
  Charge       = 0
  Multiplicity = 1
  Basis Set: AUG-CC-PVTZ
    Blend: AUG-CC-PVTZ
  Basis Set: (AUG-CC-PVTZ AUX)
    Blend: AUG-CC-PVTZ-JKFIT

    Orbital Energies [Eh]
    ---------------------

    Doubly Occupied:

       1A    -20.597655     2A    -20.514450     3A    -15.584065
       4A    -11.352964     5A    -11.320287     6A    -11.259234
       7A    -11.255857     8A    -11.253120     9A    -11.246532
      10A    -11.246283    11A    -11.226698    12A     -1.410001
      13A     -1.367863    14A     -1.225306    15A     -1.175852
      16A     -1.044469    17A     -1.032266    18A     -0.951167
      19A     -0.865890    20A     -0.840131    21A     -0.786851
      22A     -0.739964    23A     -0.721305    24A     -0.685512
      25A     -0.650378    26A     -0.636759    27A     -0.617048
      28A     -0.599155    29A     -0.596752    30A     -0.591919
      31A     -0.576158    32A     -0.545163    33A     -0.537365
      34A     -0.523659    35A     -0.502021    36A     -0.480921
      37A     -0.424745    38A     -0.388618    39A     -0.356459
      40A     -0.333192

  @DF-RHF Final Energy:  -512.52426880146834

   => Energetics <=

    Nuclear Repulsion Energy =            588.6789764299695662
    One-Electron Energy =               -1866.2784221683982651
    Two-Electron Energy =                 765.0751769369602471
    Total Energy =                       -512.5242688014683381
  Basis Set: (AUG-CC-PVTZ AUX)
    Blend: AUG-CC-PVTZ-RI
    Molecular point group: c1

    Geometry (in Angstrom), charge = 0, multiplicity = 1:

       Center              X                  Y                   Z               Mass
    ------------   -----------------  -----------------  -----------------  -----------------
         O           -0.471234367871     2.136084235478    -0.318079776492    15.994914619570
         O            1.771083632129     0.855227235478     1.142326223508    15.994914619570
         N            2.111804632129    -0.699378764522    -0.502795776492    14.003074004430
         C           -0.147582367871    -0.172541764522     0.112906223508    12.000000000000
         C           -1.023011367871     0.894055235478    -0.147058776492    12.000000000000
         C           -0.799007167871    -1.406548864522     0.216850023508    12.000000000000
         C            1.319758632129     0.075792235478     0.302426223508    12.000000000000
         C           -2.395210367871     0.657159235478    -0.263891776492    12.000000000000
         C           -2.039484367871    -1.701903764522     0.140067223508    12.000000000000
         C           -2.901202367871    -0.635159764522    -0.113761776492    12.000000000000
         C            3.554430632129    -0.532978764522    -0.494236776492    12.000000000000
         H            0.015299632129    -2.282907764522     0.463706223508     1.007825032230
         H           -3.070203367871     1.486402235478    -0.473457776492     1.007825032230
         H           -2.431286367871    -2.708200764522     0.260626223508     1.007825032230
         H           -3.972048367871    -0.802439764522    -0.200248776492     1.007825032230
         H            1.674901632129    -1.137411764522    -1.303344776492     1.007825032230
         H            3.875024632129     0.322989235478    -1.098147776492     1.007825032230
         H            4.023063632129    -1.441840764522    -0.876095776492     1.007825032230
         H            3.869664632129    -0.363732764522     0.534945223508     1.007825032230
         H           -1.193286367871     2.772845235478    -0.465943776492     1.007825032230

  Basis Set: AUG-CC-PVTZ
    Blend: AUG-CC-PVTZ
  Basis Set: (AUG-CC-PVTZ AUX)
    Blend: AUG-CC-PVTZ-JKFIT
	 Reference Energy          =    -512.5242688014683381 [Eh]
	 Singles Energy            =      -0.0000000000000000 [Eh]
	 Same-Spin Energy          =      -0.5375214935101620 [Eh]
	 Opposite-Spin Energy      =      -1.6469788281451341 [Eh]
	 Correlation Energy        =      -2.1845003216552961 [Eh]
	 Total Energy              =    -514.7087691231236022 [Eh]

	 ================> DF-SCS-MP2 Energies <==================
	-----------------------------------------------------------
	 SCS Same-Spin Scale       =       0.3333333333333333 [-]
	 SCS Opposite-Spin Scale   =       1.2000000000000000 [-]
	 SCS Same-Spin Energy      =      -0.1791738311700540 [Eh]
	 SCS Opposite-Spin Energy  =      -1.9763745937741608 [Eh]
	 SCS Correlation Energy    =      -2.1555484249442149 [Eh]
	 SCS Total Energy          =    -514.6798172264125242 [Eh]
	-----------------------------------------------------------

  Dipole Moment: [D]
     X:    -1.7461      Y:    -1.5123      Z:    -2.9953     Total:     3.7826

*** Psi4 exiting successfully. Buy a developer a beer!
