                               Psi4 1.4a3.dev225

  ==> Input File <==

--------------------------------------------------------------------------
#psi4
#
memory 32 gb

molecule  {
0 1
  O       -0.4983720     2.1660820    -0.3008080
  O        1.7439460     0.8852250     1.1595980
  N        2.0846670    -0.6693810    -0.4855240
  C       -0.1747200    -0.1425440     0.1301780
  C       -1.0501490     0.9240530    -0.1297870
  C       -0.6950920    -1.4344860     0.2644570
  C        1.2926210     0.1057900     0.3196980
  C       -2.4223480     0.6871570    -0.2466200
  C       -2.0666220    -1.6719060     0.1573390
  C       -2.9283400    -0.6051620    -0.0964900
  C        3.5272930    -0.5029810    -0.4769650
  H       -0.0118380    -2.2529100     0.4809780
  H       -3.0973410     1.5164000    -0.4561860
  H       -2.4584240    -2.6782030     0.2778980
  H       -3.9794883    -0.7693650    -0.1813861
  H        1.6477640    -1.1074140    -1.2860730
  H        3.8478870     0.3529870    -1.0808760
  H        3.9959260    -1.4118430    -0.8588240
  H        3.8425270    -0.3337350     0.5522170
  H       -1.2204240     2.8028430    -0.4486720
units angstrom
no_reorient  #important for SAPT in psi4, default
symmetry c1  #important for SAPT in psi4, default
}

set PROPERTIES_ORIGIN ["COM"]
properties('MP2/aug-cc-pvtz', properties = ['dipole'])
--------------------------------------------------------------------------

    Molecular point group: c1
  Charge       = 0
  Multiplicity = 1
  Basis Set: AUG-CC-PVTZ
    Blend: AUG-CC-PVTZ
  Basis Set: (AUG-CC-PVTZ AUX)
    Blend: AUG-CC-PVTZ-JKFIT

    Orbital Energies [Eh]
    ---------------------

    Doubly Occupied:

       1A    -20.597639     2A    -20.513077     3A    -15.583876
       4A    -11.349997     5A    -11.320271     6A    -11.257213
       7A    -11.255951     8A    -11.254425     9A    -11.249439
      10A    -11.246376    11A    -11.240237    12A     -1.409860
      13A     -1.367001    14A     -1.225299    15A     -1.160049
      16A     -1.047168    17A     -1.017581    18A     -0.950438
      19A     -0.865986    20A     -0.844512    21A     -0.783277
      22A     -0.742559    23A     -0.723797    24A     -0.676495
      25A     -0.648916    26A     -0.636101    27A     -0.619692
      28A     -0.612447    29A     -0.595660    30A     -0.586792
      31A     -0.575279    32A     -0.545193    33A     -0.535951
      34A     -0.523459    35A     -0.511263    36A     -0.489665
      37A     -0.421465    38A     -0.388791    39A     -0.354252
      40A     -0.326037

  @DF-RHF Final Energy:  -512.55222203455378

   => Energetics <=

    Nuclear Repulsion Energy =            587.2690248747936721
    One-Electron Energy =               -1863.5355216322809611
    Two-Electron Energy =                 763.7142747229336237
    Total Energy =                       -512.5522220345537789
  Basis Set: (AUG-CC-PVTZ AUX)
    Blend: AUG-CC-PVTZ-RI
    Molecular point group: c1

    Geometry (in Angstrom), charge = 0, multiplicity = 1:

       Center              X                  Y                   Z               Mass
    ------------   -----------------  -----------------  -----------------  -----------------
         O           -0.481776207844     2.140665875040    -0.320500123987    15.994914619570
         O            1.760541792156     0.859808875040     1.139905876013    15.994914619570
         N            2.101262792156    -0.694797124960    -0.505216123987    14.003074004430
         C           -0.158124207844    -0.167960124960     0.110485876013    12.000000000000
         C           -1.033553207844     0.898636875040    -0.149479123987    12.000000000000
         C           -0.678496207844    -1.459902124960     0.244764876013    12.000000000000
         C            1.309216792156     0.080373875040     0.300005876013    12.000000000000
         C           -2.405752207844     0.661740875040    -0.266312123987    12.000000000000
         C           -2.050026207844    -1.697322124960     0.137646876013    12.000000000000
         C           -2.911744207844    -0.630578124960    -0.116182123987    12.000000000000
         C            3.543888792156    -0.528397124960    -0.496657123987    12.000000000000
         H            0.004757792156    -2.278326124960     0.461285876013     1.007825032230
         H           -3.080745207844     1.490983875040    -0.475878123987     1.007825032230
         H           -2.441828207844    -2.703619124960     0.258205876013     1.007825032230
         H           -3.962892507844    -0.794781124960    -0.201078223987     1.007825032230
         H            1.664359792156    -1.132830124960    -1.305765123987     1.007825032230
         H            3.864482792156     0.327570875040    -1.100568123987     1.007825032230
         H            4.012521792156    -1.437259124960    -0.878516123987     1.007825032230
         H            3.859122792156    -0.359151124960     0.532524876013     1.007825032230
         H           -1.203828207844     2.777426875040    -0.468364123987     1.007825032230

  Basis Set: AUG-CC-PVTZ
    Blend: AUG-CC-PVTZ
  Basis Set: (AUG-CC-PVTZ AUX)
    Blend: AUG-CC-PVTZ-JKFIT
	 Reference Energy          =    -512.5522220345537789 [Eh]
	 Singles Energy            =      -0.0000000000000000 [Eh]
	 Same-Spin Energy          =      -0.5370126354217626 [Eh]
	 Opposite-Spin Energy      =      -1.6459191539077274 [Eh]
	 Correlation Energy        =      -2.1829317893294897 [Eh]
	 Total Energy              =    -514.7351538238832518 [Eh]

	 ================> DF-SCS-MP2 Energies <==================
	-----------------------------------------------------------
	 SCS Same-Spin Scale       =       0.3333333333333333 [-]
	 SCS Opposite-Spin Scale   =       1.2000000000000000 [-]
	 SCS Same-Spin Energy      =      -0.1790042118072542 [Eh]
	 SCS Opposite-Spin Energy  =      -1.9751029846892727 [Eh]
	 SCS Correlation Energy    =      -2.1541071964965268 [Eh]
	 SCS Total Energy          =    -514.7063292310502902 [Eh]
	-----------------------------------------------------------

  Dipole Moment: [D]
     X:    -1.7159      Y:    -1.5817      Z:    -2.9744     Total:     3.7807

*** Psi4 exiting successfully. Buy a developer a beer!
