                               Psi4 1.4a3.dev225

  ==> Input File <==

--------------------------------------------------------------------------
#psi4
#
memory 32 gb

molecule  {
0 1
  O       -0.4983720     2.1660820    -0.3008080
  O        1.7439460     0.8852250     1.1595980
  N        2.0846670    -0.6693810    -0.4855240
  C       -0.1747200    -0.1425440     0.1301780
  C       -1.0501490     0.9240530    -0.1297870
  C       -0.6950920    -1.4344860     0.2644570
  C        1.2926210     0.1057900     0.3196980
  C       -2.4223480     0.6871570    -0.2466200
  C       -2.0666220    -1.6719060     0.1573390
  C       -2.9283400    -0.6051620    -0.0964900
  C        3.5272930    -0.5029810    -0.4769650
  H       -0.0118380    -2.2529100     0.4809780
  H       -3.0973410     1.5164000    -0.4561860
  H       -2.4584240    -2.6782030     0.2778980
  H       -3.9991860    -0.7724420    -0.1829770
  H        1.6909469    -1.0641194    -1.2069477
  H        3.8478870     0.3529870    -1.0808760
  H        3.9959260    -1.4118430    -0.8588240
  H        3.8425270    -0.3337350     0.5522170
  H       -1.2204240     2.8028430    -0.4486720
units angstrom
no_reorient  #important for SAPT in psi4, default
symmetry c1  #important for SAPT in psi4, default
}

set PROPERTIES_ORIGIN ["COM"]
properties('MP2/aug-cc-pvtz', properties = ['dipole'])
--------------------------------------------------------------------------

    Molecular point group: c1
  Charge       = 0
  Multiplicity = 1
  Basis Set: AUG-CC-PVTZ
    Blend: AUG-CC-PVTZ
  Basis Set: (AUG-CC-PVTZ AUX)
    Blend: AUG-CC-PVTZ-JKFIT

    Orbital Energies [Eh]
    ---------------------

    Doubly Occupied:

       1A    -20.598016     2A    -20.513470     3A    -15.573790
       4A    -11.350326     5A    -11.320791     6A    -11.257788
       7A    -11.257075     8A    -11.256121     9A    -11.249866
      10A    -11.246762    11A    -11.240602    12A     -1.410248
      13A     -1.368353    14A     -1.239037    15A     -1.160547
      16A     -1.047166    17A     -1.017955    18A     -0.952842
      19A     -0.867131    20A     -0.847810    21A     -0.801424
      22A     -0.743561    23A     -0.726855    24A     -0.675653
      25A     -0.649951    26A     -0.636860    27A     -0.620084
      28A     -0.613055    29A     -0.596038    30A     -0.587612
      31A     -0.576811    32A     -0.549169    33A     -0.536233
      34A     -0.522907    35A     -0.511515    36A     -0.490107
      37A     -0.422116    38A     -0.390652    39A     -0.354777
      40A     -0.326416

  @DF-RHF Final Energy:  -512.54564035297631

   => Energetics <=

    Nuclear Repulsion Energy =            587.7587738317698722
    One-Electron Energy =               -1864.3938439613937135
    Two-Electron Energy =                 764.0894297766474210
    Total Energy =                       -512.5456403529763065
  Basis Set: (AUG-CC-PVTZ AUX)
    Blend: AUG-CC-PVTZ-RI
    Molecular point group: c1

    Geometry (in Angstrom), charge = 0, multiplicity = 1:

       Center              X                  Y                   Z               Mass
    ------------   -----------------  -----------------  -----------------  -----------------
         O           -0.481932890294     2.140397561715    -0.321017397835    15.994914619570
         O            1.760385109706     0.859540561715     1.139388602165    15.994914619570
         N            2.101106109706    -0.695065438285    -0.505733397835    14.003074004430
         C           -0.158280890294    -0.168228438285     0.109968602165    12.000000000000
         C           -1.033709890294     0.898368561715    -0.149996397835    12.000000000000
         C           -0.678652890294    -1.460170438285     0.244247602165    12.000000000000
         C            1.309060109706     0.080105561715     0.299488602165    12.000000000000
         C           -2.405908890294     0.661472561715    -0.266829397835    12.000000000000
         C           -2.050182890294    -1.697590438285     0.137129602165    12.000000000000
         C           -2.911900890294    -0.630846438285    -0.116699397835    12.000000000000
         C            3.543732109706    -0.528665438285    -0.497174397835    12.000000000000
         H            0.004601109706    -2.278594438285     0.460768602165     1.007825032230
         H           -3.080901890294     1.490715561715    -0.476395397835     1.007825032230
         H           -2.441984890294    -2.703887438285     0.257688602165     1.007825032230
         H           -3.982746890294    -0.798126438285    -0.203186397835     1.007825032230
         H            1.707386009706    -1.089803838285    -1.227157097835     1.007825032230
         H            3.864326109706     0.327302561715    -1.101085397835     1.007825032230
         H            4.012365109706    -1.437527438285    -0.879033397835     1.007825032230
         H            3.858966109706    -0.359419438285     0.532007602165     1.007825032230
         H           -1.203984890294     2.777158561715    -0.468881397835     1.007825032230

  Basis Set: AUG-CC-PVTZ
    Blend: AUG-CC-PVTZ
  Basis Set: (AUG-CC-PVTZ AUX)
    Blend: AUG-CC-PVTZ-JKFIT
	 Reference Energy          =    -512.5456403529763065 [Eh]
	 Singles Energy            =      -0.0000000000000000 [Eh]
	 Same-Spin Energy          =      -0.5363121027184801 [Eh]
	 Opposite-Spin Energy      =      -1.6444771303028649 [Eh]
	 Correlation Energy        =      -2.1807892330213452 [Eh]
	 Total Energy              =    -514.7264295859976073 [Eh]

	 ================> DF-SCS-MP2 Energies <==================
	-----------------------------------------------------------
	 SCS Same-Spin Scale       =       0.3333333333333333 [-]
	 SCS Opposite-Spin Scale   =       1.2000000000000000 [-]
	 SCS Same-Spin Energy      =      -0.1787707009061600 [Eh]
	 SCS Opposite-Spin Energy  =      -1.9733725563634379 [Eh]
	 SCS Correlation Energy    =      -2.1521432572695978 [Eh]
	 SCS Total Energy          =    -514.6977836102458923 [Eh]
	-----------------------------------------------------------

  Dipole Moment: [D]
     X:    -1.7130      Y:    -1.5428      Z:    -2.9066     Total:     3.7099

*** Psi4 exiting successfully. Buy a developer a beer!
