                               Psi4 1.4a3.dev225

  ==> Input File <==

--------------------------------------------------------------------------
#psi4
#
memory 32 gb

molecule  {
0 1
  O       -0.4983720     2.1660820    -0.3008080
  O        1.7439460     0.8852250     1.1595980
  N        2.0846670    -0.6693810    -0.4855240
  C       -0.1747200    -0.1425440     0.1301780
  C       -1.0501490     0.9240530    -0.1297870
  C       -0.6950920    -1.4344860     0.2644570
  C        1.2926210     0.1057900     0.3196980
  C       -2.4223480     0.6871570    -0.2466200
  C       -2.0666220    -1.6719060     0.1573390
  C       -2.9283400    -0.6051620    -0.0964900
  C        3.5272930    -0.5029810    -0.4769650
  H       -0.0118380    -2.2529100     0.4809780
  H       -3.0973410     1.5164000    -0.4561860
  H       -2.4584240    -2.6782030     0.2778980
  H       -3.9991860    -0.7724420    -0.1829770
  H        1.6477640    -1.1074140    -1.2860730
  H        3.8690330     0.3292329    -1.1021082
  H        3.9959260    -1.4118430    -0.8588240
  H        3.8425270    -0.3337350     0.5522170
  H       -1.2204240     2.8028430    -0.4486720
units angstrom
no_reorient  #important for SAPT in psi4, default
symmetry c1  #important for SAPT in psi4, default
}

set PROPERTIES_ORIGIN ["COM"]
properties('MP2/aug-cc-pvtz', properties = ['dipole'])
--------------------------------------------------------------------------

    Molecular point group: c1
  Charge       = 0
  Multiplicity = 1
  Basis Set: AUG-CC-PVTZ
    Blend: AUG-CC-PVTZ
  Basis Set: (AUG-CC-PVTZ AUX)
    Blend: AUG-CC-PVTZ-JKFIT

    Orbital Energies [Eh]
    ---------------------

    Doubly Occupied:

       1A    -20.597747     2A    -20.513150     3A    -15.584286
       4A    -11.350175     5A    -11.320446     6A    -11.257396
       7A    -11.256785     8A    -11.256020     9A    -11.249567
      10A    -11.246592    11A    -11.240449    12A     -1.409964
      13A     -1.367086    14A     -1.225399    15A     -1.160066
      16A     -1.046758    17A     -1.017723    18A     -0.950403
      19A     -0.865274    20A     -0.844360    21A     -0.783165
      22A     -0.742348    23A     -0.723925    24A     -0.675255
      25A     -0.648943    26A     -0.636027    27A     -0.619255
      28A     -0.612131    29A     -0.595586    30A     -0.585757
      31A     -0.575471    32A     -0.545063    33A     -0.535860
      34A     -0.522507    35A     -0.511490    36A     -0.489777
      37A     -0.421587    38A     -0.388949    39A     -0.354389
      40A     -0.326175

  @DF-RHF Final Energy:  -512.55196185615421

   => Energetics <=

    Nuclear Repulsion Energy =            587.1085419451324015
    One-Electron Energy =               -1863.2143960837829582
    Two-Electron Energy =                 763.5538922824963493
    Total Energy =                       -512.5519618561542075
  Basis Set: (AUG-CC-PVTZ AUX)
    Blend: AUG-CC-PVTZ-RI
    Molecular point group: c1

    Geometry (in Angstrom), charge = 0, multiplicity = 1:

       Center              X                  Y                   Z               Mass
    ------------   -----------------  -----------------  -----------------  -----------------
         O           -0.481785870235     2.140844879796    -0.320347858764    15.994914619570
         O            1.760532129765     0.859987879796     1.140058141236    15.994914619570
         N            2.101253129765    -0.694618120204    -0.505063858764    14.003074004430
         C           -0.158133870235    -0.167781120204     0.110638141236    12.000000000000
         C           -1.033562870235     0.898815879796    -0.149326858764    12.000000000000
         C           -0.678505870235    -1.459723120204     0.244917141236    12.000000000000
         C            1.309207129765     0.080552879796     0.300158141236    12.000000000000
         C           -2.405761870235     0.661919879796    -0.266159858764    12.000000000000
         C           -2.050035870235    -1.697143120204     0.137799141236    12.000000000000
         C           -2.911753870235    -0.630399120204    -0.116029858764    12.000000000000
         C            3.543879129765    -0.528218120204    -0.496504858764    12.000000000000
         H            0.004748129765    -2.278147120204     0.461438141236     1.007825032230
         H           -3.080754870235     1.491162879796    -0.475725858764     1.007825032230
         H           -2.441837870235    -2.703440120204     0.258358141236     1.007825032230
         H           -3.982599870235    -0.797679120204    -0.202516858764     1.007825032230
         H            1.664350129765    -1.132651120204    -1.305612858764     1.007825032230
         H            3.885619129765     0.303995779796    -1.121648058764     1.007825032230
         H            4.012512129765    -1.437080120204    -0.878363858764     1.007825032230
         H            3.859113129765    -0.358972120204     0.532677141236     1.007825032230
         H           -1.203837870235     2.777605879796    -0.468211858764     1.007825032230

  Basis Set: AUG-CC-PVTZ
    Blend: AUG-CC-PVTZ
  Basis Set: (AUG-CC-PVTZ AUX)
    Blend: AUG-CC-PVTZ-JKFIT
	 Reference Energy          =    -512.5519618561542075 [Eh]
	 Singles Energy            =      -0.0000000000000000 [Eh]
	 Same-Spin Energy          =      -0.5370305133702038 [Eh]
	 Opposite-Spin Energy      =      -1.6460304608288308 [Eh]
	 Correlation Energy        =      -2.1830609741990346 [Eh]
	 Total Energy              =    -514.7350228303532731 [Eh]

	 ================> DF-SCS-MP2 Energies <==================
	-----------------------------------------------------------
	 SCS Same-Spin Scale       =       0.3333333333333333 [-]
	 SCS Opposite-Spin Scale   =       1.2000000000000000 [-]
	 SCS Same-Spin Energy      =      -0.1790101711234013 [Eh]
	 SCS Opposite-Spin Energy  =      -1.9752365529945968 [Eh]
	 SCS Correlation Energy    =      -2.1542467241179981 [Eh]
	 SCS Total Energy          =    -514.7062085802722322 [Eh]
	-----------------------------------------------------------

  Dipole Moment: [D]
     X:    -1.7128      Y:    -1.5817      Z:    -2.9808     Total:     3.7842

*** Psi4 exiting successfully. Buy a developer a beer!
