                               Psi4 1.4a3.dev225

  ==> Input File <==

--------------------------------------------------------------------------
#psi4
#
memory 32 gb

molecule  {
0 1
  O       -0.4983720     2.1660820    -0.3008080
  O        1.7439460     0.8852250     1.1595980
  N        2.0846670    -0.6693810    -0.4855240
  C       -0.1747200    -0.1425440     0.1301780
  C       -1.0501490     0.9240530    -0.1297870
  C       -0.6950920    -1.4344860     0.2644570
  C        1.2926210     0.1057900     0.3196980
  C       -2.4223480     0.6871570    -0.2466200
  C       -2.0862708    -1.6753073     0.1558044
  C       -2.9283400    -0.6051620    -0.0964900
  C        3.5272930    -0.5029810    -0.4769650
  H       -0.0118380    -2.2529100     0.4809780
  H       -3.0973410     1.5164000    -0.4561860
  H       -2.4584240    -2.6782030     0.2778980
  H       -3.9991860    -0.7724420    -0.1829770
  H        1.6477640    -1.1074140    -1.2860730
  H        3.8478870     0.3529870    -1.0808760
  H        3.9959260    -1.4118430    -0.8588240
  H        3.8425270    -0.3337350     0.5522170
  H       -1.2204240     2.8028430    -0.4486720
units angstrom
no_reorient  #important for SAPT in psi4, default
symmetry c1  #important for SAPT in psi4, default
}

set PROPERTIES_ORIGIN ["COM"]
properties('MP2/aug-cc-pvtz', properties = ['dipole'])
--------------------------------------------------------------------------

    Molecular point group: c1
  Charge       = 0
  Multiplicity = 1
  Basis Set: AUG-CC-PVTZ
    Blend: AUG-CC-PVTZ
  Basis Set: (AUG-CC-PVTZ AUX)
    Blend: AUG-CC-PVTZ-JKFIT

    Orbital Energies [Eh]
    ---------------------

    Doubly Occupied:

       1A    -20.597832     2A    -20.513351     3A    -15.584113
       4A    -11.350328     5A    -11.320618     6A    -11.259779
       7A    -11.256104     8A    -11.255434     9A    -11.250117
      10A    -11.245968    11A    -11.240596    12A     -1.410040
      13A     -1.367276    14A     -1.225513    15A     -1.159018
      16A     -1.047443    17A     -1.016161    18A     -0.950318
      19A     -0.865281    20A     -0.844414    21A     -0.783356
      22A     -0.742083    23A     -0.724410    24A     -0.674591
      25A     -0.649687    26A     -0.636628    27A     -0.619195
      28A     -0.612323    29A     -0.595758    30A     -0.584192
      31A     -0.575340    32A     -0.545392    33A     -0.538587
      34A     -0.520820    35A     -0.512344    36A     -0.489068
      37A     -0.421560    38A     -0.388980    39A     -0.354108
      40A     -0.325898

  @DF-RHF Final Energy:  -512.55158303242456

   => Energetics <=

    Nuclear Repulsion Energy =            586.9069479519237120
    One-Electron Energy =               -1862.8090248017838348
    Two-Electron Energy =                 763.3504938174355630
    Total Energy =                       -512.5515830324245599
  Basis Set: (AUG-CC-PVTZ AUX)
    Blend: AUG-CC-PVTZ-RI
    Molecular point group: c1

    Geometry (in Angstrom), charge = 0, multiplicity = 1:

       Center              X                  Y                   Z               Mass
    ------------   -----------------  -----------------  -----------------  -----------------
         O           -0.480083954419     2.140956592040    -0.320367606393    15.994914619570
         O            1.762234045581     0.860099592040     1.140038393607    15.994914619570
         N            2.102955045581    -0.694506407960    -0.505083606393    14.003074004430
         C           -0.156431954419    -0.167669407960     0.110618393607    12.000000000000
         C           -1.031860954419     0.898927592040    -0.149346606393    12.000000000000
         C           -0.676803954419    -1.459611407960     0.244897393607    12.000000000000
         C            1.310909045581     0.080664592040     0.300138393607    12.000000000000
         C           -2.404059954419     0.662031592040    -0.266179606393    12.000000000000
         C           -2.067982754419    -1.700432707960     0.136244793607    12.000000000000
         C           -2.910051954419    -0.630287407960    -0.116049606393    12.000000000000
         C            3.545581045581    -0.528106407960    -0.496524606393    12.000000000000
         H            0.006450045581    -2.278035407960     0.461418393607     1.007825032230
         H           -3.079052954419     1.491274592040    -0.475745606393     1.007825032230
         H           -2.440135954419    -2.703328407960     0.258338393607     1.007825032230
         H           -3.980897954419    -0.797567407960    -0.202536606393     1.007825032230
         H            1.666052045581    -1.132539407960    -1.305632606393     1.007825032230
         H            3.866175045581     0.327861592040    -1.100435606393     1.007825032230
         H            4.014214045581    -1.436968407960    -0.878383606393     1.007825032230
         H            3.860815045581    -0.358860407960     0.532657393607     1.007825032230
         H           -1.202135954419     2.777717592040    -0.468231606393     1.007825032230

  Basis Set: AUG-CC-PVTZ
    Blend: AUG-CC-PVTZ
  Basis Set: (AUG-CC-PVTZ AUX)
    Blend: AUG-CC-PVTZ-JKFIT
	 Reference Energy          =    -512.5515830324245599 [Eh]
	 Singles Energy            =      -0.0000000000000000 [Eh]
	 Same-Spin Energy          =      -0.5369872842862832 [Eh]
	 Opposite-Spin Energy      =      -1.6460905170019071 [Eh]
	 Correlation Energy        =      -2.1830778012881904 [Eh]
	 Total Energy              =    -514.7346608337127236 [Eh]

	 ================> DF-SCS-MP2 Energies <==================
	-----------------------------------------------------------
	 SCS Same-Spin Scale       =       0.3333333333333333 [-]
	 SCS Opposite-Spin Scale   =       1.2000000000000000 [-]
	 SCS Same-Spin Energy      =      -0.1789957614287611 [Eh]
	 SCS Opposite-Spin Energy  =      -1.9753086204022885 [Eh]
	 SCS Correlation Energy    =      -2.1543043818310497 [Eh]
	 SCS Total Energy          =    -514.7058874142555851 [Eh]
	-----------------------------------------------------------

  Dipole Moment: [D]
     X:    -1.6926      Y:    -1.5850      Z:    -2.9718     Total:     3.7695

*** Psi4 exiting successfully. Buy a developer a beer!
