                               Psi4 1.4a3.dev225

  ==> Input File <==

--------------------------------------------------------------------------
#psi4
#
memory 32 gb

molecule  {
0 1
  O       -0.4983720     2.1660820    -0.3008080
  O        1.7439460     0.8852250     1.1595980
  N        2.0846670    -0.6693810    -0.4855240
  C       -0.1747200    -0.1425440     0.1301780
  C       -1.0582053     0.9059185    -0.1272900
  C       -0.6950920    -1.4344860     0.2644570
  C        1.2926210     0.1057900     0.3196980
  C       -2.4223480     0.6871570    -0.2466200
  C       -2.0666220    -1.6719060     0.1573390
  C       -2.9283400    -0.6051620    -0.0964900
  C        3.5272930    -0.5029810    -0.4769650
  H       -0.0118380    -2.2529100     0.4809780
  H       -3.0973410     1.5164000    -0.4561860
  H       -2.4584240    -2.6782030     0.2778980
  H       -3.9991860    -0.7724420    -0.1829770
  H        1.6477640    -1.1074140    -1.2860730
  H        3.8478870     0.3529870    -1.0808760
  H        3.9959260    -1.4118430    -0.8588240
  H        3.8425270    -0.3337350     0.5522170
  H       -1.2204240     2.8028430    -0.4486720
units angstrom
no_reorient  #important for SAPT in psi4, default
symmetry c1  #important for SAPT in psi4, default
}

set PROPERTIES_ORIGIN ["COM"]
properties('MP2/aug-cc-pvtz', properties = ['dipole'])
--------------------------------------------------------------------------

    Molecular point group: c1
  Charge       = 0
  Multiplicity = 1
  Basis Set: AUG-CC-PVTZ
    Blend: AUG-CC-PVTZ
  Basis Set: (AUG-CC-PVTZ AUX)
    Blend: AUG-CC-PVTZ-JKFIT

    Orbital Energies [Eh]
    ---------------------

    Doubly Occupied:

       1A    -20.593706     2A    -20.513462     3A    -15.584374
       4A    -11.350870     5A    -11.318347     6A    -11.257904
       7A    -11.257284     8A    -11.256235     9A    -11.249835
      10A    -11.246541    11A    -11.241505    12A     -1.399678
      13A     -1.367070    14A     -1.225764    15A     -1.162670
      16A     -1.048312    17A     -1.019466    18A     -0.950871
      19A     -0.865891    20A     -0.843219    21A     -0.783854
      22A     -0.740688    23A     -0.721572    24A     -0.673850
      25A     -0.648667    26A     -0.636237    27A     -0.619478
      28A     -0.612469    29A     -0.591184    30A     -0.586551
      31A     -0.573866    32A     -0.545473    33A     -0.535030
      34A     -0.523350    35A     -0.512589    36A     -0.490365
      37A     -0.422162    38A     -0.389090    39A     -0.355183
      40A     -0.329045

  @DF-RHF Final Energy:  -512.55138901023065

   => Energetics <=

    Nuclear Repulsion Energy =            587.2295094978525185
    One-Electron Energy =               -1863.4743809645528927
    Two-Electron Energy =                 763.6934824564696100
    Total Energy =                       -512.5513890102306505
  Basis Set: (AUG-CC-PVTZ AUX)
    Blend: AUG-CC-PVTZ-RI
    Molecular point group: c1

    Geometry (in Angstrom), charge = 0, multiplicity = 1:

       Center              X                  Y                   Z               Mass
    ------------   -----------------  -----------------  -----------------  -----------------
         O           -0.481004826488     2.142126951529    -0.320687864132    15.994914619570
         O            1.761313173512     0.861269951529     1.139718135868    15.994914619570
         N            2.102034173512    -0.693336048471    -0.505403864132    14.003074004430
         C           -0.157352826488    -0.166499048471     0.110298135868    12.000000000000
         C           -1.040838126488     0.881963451529    -0.147169864132    12.000000000000
         C           -0.677724826488    -1.458441048471     0.244577135868    12.000000000000
         C            1.309988173512     0.081834951529     0.299818135868    12.000000000000
         C           -2.404980826488     0.663201951529    -0.266499864132    12.000000000000
         C           -2.049254826488    -1.695861048471     0.137459135868    12.000000000000
         C           -2.910972826488    -0.629117048471    -0.116369864132    12.000000000000
         C            3.544660173512    -0.526936048471    -0.496844864132    12.000000000000
         H            0.005529173512    -2.276865048471     0.461098135868     1.007825032230
         H           -3.079973826488     1.492444951529    -0.476065864132     1.007825032230
         H           -2.441056826488    -2.702158048471     0.258018135868     1.007825032230
         H           -3.981818826488    -0.796397048471    -0.202856864132     1.007825032230
         H            1.665131173512    -1.131369048471    -1.305952864132     1.007825032230
         H            3.865254173512     0.329031951529    -1.100755864132     1.007825032230
         H            4.013293173512    -1.435798048471    -0.878703864132     1.007825032230
         H            3.859894173512    -0.357690048471     0.532337135868     1.007825032230
         H           -1.203056826488     2.778887951529    -0.468551864132     1.007825032230

  Basis Set: AUG-CC-PVTZ
    Blend: AUG-CC-PVTZ
  Basis Set: (AUG-CC-PVTZ AUX)
    Blend: AUG-CC-PVTZ-JKFIT
	 Reference Energy          =    -512.5513890102306505 [Eh]
	 Singles Energy            =      -0.0000000000000000 [Eh]
	 Same-Spin Energy          =      -0.5370500038174347 [Eh]
	 Opposite-Spin Energy      =      -1.6462919910361749 [Eh]
	 Correlation Energy        =      -2.1833419948536097 [Eh]
	 Total Energy              =    -514.7347310050843134 [Eh]

	 ================> DF-SCS-MP2 Energies <==================
	-----------------------------------------------------------
	 SCS Same-Spin Scale       =       0.3333333333333333 [-]
	 SCS Opposite-Spin Scale   =       1.2000000000000000 [-]
	 SCS Same-Spin Energy      =      -0.1790166679391449 [Eh]
	 SCS Opposite-Spin Energy  =      -1.9755503892434096 [Eh]
	 SCS Correlation Energy    =      -2.1545670571825544 [Eh]
	 SCS Total Energy          =    -514.7059560674132399 [Eh]
	-----------------------------------------------------------

  Dipole Moment: [D]
     X:    -1.7412      Y:    -1.7031      Z:    -2.9556     Total:     3.8299

*** Psi4 exiting successfully. Buy a developer a beer!
