                               Psi4 1.4a3.dev225

  ==> Input File <==

--------------------------------------------------------------------------
#psi4
#
memory 32 gb

molecule  {
0 1
  O       -0.4983720     2.1660820    -0.3008080
  O        1.7439460     0.8852250     1.1595980
  N        2.0846670    -0.6693810    -0.4855240
  C       -0.1747200    -0.1425440     0.1301780
  C       -1.0702898     0.8787167    -0.1235444
  C       -0.6950920    -1.4344860     0.2644570
  C        1.2926210     0.1057900     0.3196980
  C       -2.4223480     0.6871570    -0.2466200
  C       -2.0666220    -1.6719060     0.1573390
  C       -2.9283400    -0.6051620    -0.0964900
  C        3.5272930    -0.5029810    -0.4769650
  H       -0.0118380    -2.2529100     0.4809780
  H       -3.0973410     1.5164000    -0.4561860
  H       -2.4584240    -2.6782030     0.2778980
  H       -3.9991860    -0.7724420    -0.1829770
  H        1.6477640    -1.1074140    -1.2860730
  H        3.8478870     0.3529870    -1.0808760
  H        3.9959260    -1.4118430    -0.8588240
  H        3.8425270    -0.3337350     0.5522170
  H       -1.2204240     2.8028430    -0.4486720
units angstrom
no_reorient  #important for SAPT in psi4, default
symmetry c1  #important for SAPT in psi4, default
}

set PROPERTIES_ORIGIN ["COM"]
properties('MP2/aug-cc-pvtz', properties = ['dipole'])
--------------------------------------------------------------------------

    Molecular point group: c1
  Charge       = 0
  Multiplicity = 1
  Basis Set: AUG-CC-PVTZ
    Blend: AUG-CC-PVTZ
  Basis Set: (AUG-CC-PVTZ AUX)
    Blend: AUG-CC-PVTZ-JKFIT

    Orbital Energies [Eh]
    ---------------------

    Doubly Occupied:

       1A    -20.587837     2A    -20.513972     3A    -15.585049
       4A    -11.352108     5A    -11.315564     6A    -11.258773
       7A    -11.258119     8A    -11.256612     9A    -11.250313
      10A    -11.246503    11A    -11.243026    12A     -1.385776
      13A     -1.366585    14A     -1.226394    15A     -1.166712
      16A     -1.050807    17A     -1.022023    18A     -0.951791
      19A     -0.867179    20A     -0.842051    21A     -0.784943
      22A     -0.739934    23A     -0.717239    24A     -0.672337
      25A     -0.649414    26A     -0.636736    27A     -0.619708
      28A     -0.612088    29A     -0.588644    30A     -0.583812
      31A     -0.571422    32A     -0.545842    33A     -0.533431
      34A     -0.525045    35A     -0.513235    36A     -0.490964
      37A     -0.423093    38A     -0.389480    39A     -0.356488
      40A     -0.333245

  @DF-RHF Final Energy:  -512.54854654968278

   => Energetics <=

    Nuclear Repulsion Energy =            587.3431911535809604
    One-Electron Energy =               -1863.7148863573543167
    Two-Electron Energy =                 763.8231486540906872
    Total Energy =                       -512.5485465496827828
  Basis Set: (AUG-CC-PVTZ AUX)
    Blend: AUG-CC-PVTZ-RI
    Molecular point group: c1

    Geometry (in Angstrom), charge = 0, multiplicity = 1:

       Center              X                  Y                   Z               Mass
    ------------   -----------------  -----------------  -----------------  -----------------
         O           -0.480044871472     2.144287777741    -0.320985402922    15.994914619570
         O            1.762273128528     0.863430777741     1.139420597078    15.994914619570
         N            2.102994128528    -0.691175222259    -0.505701402922    14.003074004430
         C           -0.156392871472    -0.164338222259     0.110000597078    12.000000000000
         C           -1.051962671472     0.856922477741    -0.143721802922    12.000000000000
         C           -0.676764871472    -1.456280222259     0.244279597078    12.000000000000
         C            1.310948128528     0.083995777741     0.299520597078    12.000000000000
         C           -2.404020871472     0.665362777741    -0.266797402922    12.000000000000
         C           -2.048294871472    -1.693700222259     0.137161597078    12.000000000000
         C           -2.910012871472    -0.626956222259    -0.116667402922    12.000000000000
         C            3.545620128528    -0.524775222259    -0.497142402922    12.000000000000
         H            0.006489128528    -2.274704222259     0.460800597078     1.007825032230
         H           -3.079013871472     1.494605777741    -0.476363402922     1.007825032230
         H           -2.440096871472    -2.699997222259     0.257720597078     1.007825032230
         H           -3.980858871472    -0.794236222259    -0.203154402922     1.007825032230
         H            1.666091128528    -1.129208222259    -1.306250402922     1.007825032230
         H            3.866214128528     0.331192777741    -1.101053402922     1.007825032230
         H            4.014253128528    -1.433637222259    -0.879001402922     1.007825032230
         H            3.860854128528    -0.355529222259     0.532039597078     1.007825032230
         H           -1.202096871472     2.781048777741    -0.468849402922     1.007825032230

  Basis Set: AUG-CC-PVTZ
    Blend: AUG-CC-PVTZ
  Basis Set: (AUG-CC-PVTZ AUX)
    Blend: AUG-CC-PVTZ-JKFIT
	 Reference Energy          =    -512.5485465496827828 [Eh]
	 Singles Energy            =      -0.0000000000000000 [Eh]
	 Same-Spin Energy          =      -0.5371052564619868 [Eh]
	 Opposite-Spin Energy      =      -1.6467325019001746 [Eh]
	 Correlation Energy        =      -2.1838377583621615 [Eh]
	 Total Energy              =    -514.7323843080449706 [Eh]

	 ================> DF-SCS-MP2 Energies <==================
	-----------------------------------------------------------
	 SCS Same-Spin Scale       =       0.3333333333333333 [-]
	 SCS Opposite-Spin Scale   =       1.2000000000000000 [-]
	 SCS Same-Spin Energy      =      -0.1790350854873289 [Eh]
	 SCS Opposite-Spin Energy  =      -1.9760790022802095 [Eh]
	 SCS Correlation Energy    =      -2.1551140877675383 [Eh]
	 SCS Total Energy          =    -514.7036606374502981 [Eh]
	-----------------------------------------------------------

  Dipole Moment: [D]
     X:    -1.7874      Y:    -1.8812      Z:    -2.9288     Total:     3.9130

*** Psi4 exiting successfully. Buy a developer a beer!
