                               Psi4 1.4a3.dev225

  ==> Input File <==

--------------------------------------------------------------------------
#psi4
#
memory 32 gb

molecule  {
0 1
  O       -0.4983720     2.1660820    -0.3008080
  O        1.7439460     0.8852250     1.1595980
  N        2.0846670    -0.6693810    -0.4855240
  C       -0.1747200    -0.1425440     0.1301780
  C       -1.0501490     0.9240530    -0.1297870
  C       -0.6950920    -1.4344860     0.2644570
  C        1.2926210     0.1057900     0.3196980
  C       -2.4223480     0.6871570    -0.2466200
  C       -2.0666220    -1.6719060     0.1573390
  C       -2.9283400    -0.6051620    -0.0964900
  C        3.5272930    -0.5029810    -0.4769650
  H       -0.0118380    -2.2529100     0.4809780
  H       -3.0973410     1.5164000    -0.4561860
  H       -2.4584240    -2.6782030     0.2778980
  H       -3.9991860    -0.7724420    -0.1829770
  H        1.6261725    -1.1290613    -1.3256356
  H        3.8478870     0.3529870    -1.0808760
  H        3.9959260    -1.4118430    -0.8588240
  H        3.8425270    -0.3337350     0.5522170
  H       -1.2204240     2.8028430    -0.4486720
units angstrom
no_reorient  #important for SAPT in psi4, default
symmetry c1  #important for SAPT in psi4, default
}

set PROPERTIES_ORIGIN ["COM"]
properties('MP2/aug-cc-pvtz', properties = ['dipole'])
--------------------------------------------------------------------------

    Molecular point group: c1
  Charge       = 0
  Multiplicity = 1
  Basis Set: AUG-CC-PVTZ
    Blend: AUG-CC-PVTZ
  Basis Set: (AUG-CC-PVTZ AUX)
    Blend: AUG-CC-PVTZ-JKFIT

    Orbital Energies [Eh]
    ---------------------

    Doubly Occupied:

       1A    -20.597581     2A    -20.513018     3A    -15.588396
       4A    -11.349961     5A    -11.320185     6A    -11.257102
       7A    -11.256570     8A    -11.255946     9A    -11.249316
      10A    -11.246437    11A    -11.240297    12A     -1.409789
      13A     -1.366597    14A     -1.219993    15A     -1.159751
      16A     -1.046496    17A     -1.017532    18A     -0.949273
      19A     -0.864612    20A     -0.843127    21A     -0.775075
      22A     -0.741428    23A     -0.721201    24A     -0.674949
      25A     -0.647452    26A     -0.635718    27A     -0.618843
      28A     -0.612291    29A     -0.595585    30A     -0.585489
      31A     -0.574474    32A     -0.542790    33A     -0.535604
      34A     -0.522461    35A     -0.511000    36A     -0.489586
      37A     -0.421209    38A     -0.388041    39A     -0.354093
      40A     -0.325989

  @DF-RHF Final Energy:  -512.54824776107546

   => Energetics <=

    Nuclear Repulsion Energy =            586.8942498103373282
    One-Electron Energy =               -1862.8344752696093565
    Two-Electron Energy =                 763.3919776981964560
    Total Energy =                       -512.5482477610754586
  Basis Set: (AUG-CC-PVTZ AUX)
    Blend: AUG-CC-PVTZ-RI
    Molecular point group: c1

    Geometry (in Angstrom), charge = 0, multiplicity = 1:

       Center              X                  Y                   Z               Mass
    ------------   -----------------  -----------------  -----------------  -----------------
         O           -0.481500745296     2.140830824196    -0.320225566768    15.994914619570
         O            1.760817254704     0.859973824196     1.140180433232    15.994914619570
         N            2.101538254704    -0.694632175804    -0.504941566768    14.003074004430
         C           -0.157848745296    -0.167795175804     0.110760433232    12.000000000000
         C           -1.033277745296     0.898801824196    -0.149204566768    12.000000000000
         C           -0.678220745296    -1.459737175804     0.245039433232    12.000000000000
         C            1.309492254704     0.080538824196     0.300280433232    12.000000000000
         C           -2.405476745296     0.661905824196    -0.266037566768    12.000000000000
         C           -2.049750745296    -1.697157175804     0.137921433232    12.000000000000
         C           -2.911468745296    -0.630413175804    -0.115907566768    12.000000000000
         C            3.544164254704    -0.528232175804    -0.496382566768    12.000000000000
         H            0.005033254704    -2.278161175804     0.461560433232     1.007825032230
         H           -3.080469745296     1.491148824196    -0.475603566768     1.007825032230
         H           -2.441552745296    -2.703454175804     0.258480433232     1.007825032230
         H           -3.982314745296    -0.797693175804    -0.202394566768     1.007825032230
         H            1.643043754704    -1.154312475804    -1.345053166768     1.007825032230
         H            3.864758254704     0.327735824196    -1.100293566768     1.007825032230
         H            4.012797254704    -1.437094175804    -0.878241566768     1.007825032230
         H            3.859398254704    -0.358986175804     0.532799433232     1.007825032230
         H           -1.203552745296     2.777591824196    -0.468089566768     1.007825032230

  Basis Set: AUG-CC-PVTZ
    Blend: AUG-CC-PVTZ
  Basis Set: (AUG-CC-PVTZ AUX)
    Blend: AUG-CC-PVTZ-JKFIT
	 Reference Energy          =    -512.5482477610754586 [Eh]
	 Singles Energy            =      -0.0000000000000000 [Eh]
	 Same-Spin Energy          =      -0.5374416651863879 [Eh]
	 Opposite-Spin Energy      =      -1.6469999735509953 [Eh]
	 Correlation Energy        =      -2.1844416387373831 [Eh]
	 Total Energy              =    -514.7326893998128980 [Eh]

	 ================> DF-SCS-MP2 Energies <==================
	-----------------------------------------------------------
	 SCS Same-Spin Scale       =       0.3333333333333333 [-]
	 SCS Opposite-Spin Scale   =       1.2000000000000000 [-]
	 SCS Same-Spin Energy      =      -0.1791472217287960 [Eh]
	 SCS Opposite-Spin Energy  =      -1.9763999682611941 [Eh]
	 SCS Correlation Energy    =      -2.1555471899899903 [Eh]
	 SCS Total Energy          =    -514.7037949510654471 [Eh]
	-----------------------------------------------------------

  Dipole Moment: [D]
     X:    -1.7064      Y:    -1.5979      Z:    -3.0062     Total:     3.8082

*** Psi4 exiting successfully. Buy a developer a beer!
