                               Psi4 1.4a3.dev225

  ==> Input File <==

--------------------------------------------------------------------------
#psi4
#
memory 32 gb

molecule  {
0 1
  O       -0.4983720     2.1660820    -0.3008080
  O        1.7439460     0.8852250     1.1595980
  N        2.0846670    -0.6693810    -0.4855240
  C       -0.1747200    -0.1425440     0.1301780
  C       -1.0420927     0.9421875    -0.1322840
  C       -0.6950920    -1.4344860     0.2644570
  C        1.2926210     0.1057900     0.3196980
  C       -2.4223480     0.6871570    -0.2466200
  C       -2.0666220    -1.6719060     0.1573390
  C       -2.9283400    -0.6051620    -0.0964900
  C        3.5272930    -0.5029810    -0.4769650
  H       -0.0118380    -2.2529100     0.4809780
  H       -3.0973410     1.5164000    -0.4561860
  H       -2.4584240    -2.6782030     0.2778980
  H       -3.9991860    -0.7724420    -0.1829770
  H        1.6477640    -1.1074140    -1.2860730
  H        3.8478870     0.3529870    -1.0808760
  H        3.9959260    -1.4118430    -0.8588240
  H        3.8425270    -0.3337350     0.5522170
  H       -1.2204240     2.8028430    -0.4486720
units angstrom
no_reorient  #important for SAPT in psi4, default
symmetry c1  #important for SAPT in psi4, default
}

set PROPERTIES_ORIGIN ["COM"]
properties('MP2/aug-cc-pvtz', properties = ['dipole'])
--------------------------------------------------------------------------

    Molecular point group: c1
  Charge       = 0
  Multiplicity = 1
  Basis Set: AUG-CC-PVTZ
    Blend: AUG-CC-PVTZ
  Basis Set: (AUG-CC-PVTZ AUX)
    Blend: AUG-CC-PVTZ-JKFIT

    Orbital Energies [Eh]
    ---------------------

    Doubly Occupied:

       1A    -20.601860     2A    -20.512765     3A    -15.583446
       4A    -11.349206     5A    -11.322577     6A    -11.256779
       7A    -11.256210     8A    -11.255718     9A    -11.249137
      10A    -11.246535    11A    -11.239227    12A     -1.420863
      13A     -1.366903    14A     -1.224905    15A     -1.157400
      16A     -1.045170    17A     -1.015829    18A     -0.949645
      19A     -0.864681    20A     -0.845461    21A     -0.782470
      22A     -0.744775    23A     -0.724798    24A     -0.676871
      25A     -0.648155    26A     -0.636117    27A     -0.619038
      28A     -0.612416    29A     -0.600997    30A     -0.585500
      31A     -0.576478    32A     -0.544964    33A     -0.536453
      34A     -0.522117    35A     -0.509091    36A     -0.489043
      37A     -0.420776    38A     -0.388559    39A     -0.353508
      40A     -0.323141

  @DF-RHF Final Energy:  -512.55177711648935

   => Energetics <=

    Nuclear Repulsion Energy =            587.1035863952789668
    One-Electron Energy =               -1863.1915624810023928
    Two-Electron Energy =                 763.5361989692339648
    Total Energy =                       -512.5517771164893475
  Basis Set: (AUG-CC-PVTZ AUX)
    Blend: AUG-CC-PVTZ-RI
    Molecular point group: c1

    Geometry (in Angstrom), charge = 0, multiplicity = 1:

       Center              X                  Y                   Z               Mass
    ------------   -----------------  -----------------  -----------------  -----------------
         O           -0.482284761214     2.139245855208    -0.320291156337    15.994914619570
         O            1.760033238786     0.858388855208     1.140114843663    15.994914619570
         N            2.100754238786    -0.696217144792    -0.505007156337    14.003074004430
         C           -0.158632761214    -0.169380144792     0.110694843663    12.000000000000
         C           -1.026005461214     0.915351355208    -0.151767156337    12.000000000000
         C           -0.679004761214    -1.461322144792     0.244973843663    12.000000000000
         C            1.308708238786     0.078953855208     0.300214843663    12.000000000000
         C           -2.406260761214     0.660320855208    -0.266103156337    12.000000000000
         C           -2.050534761214    -1.698742144792     0.137855843663    12.000000000000
         C           -2.912252761214    -0.631998144792    -0.115973156337    12.000000000000
         C            3.543380238786    -0.529817144792    -0.496448156337    12.000000000000
         H            0.004249238786    -2.279746144792     0.461494843663     1.007825032230
         H           -3.081253761214     1.489563855208    -0.475669156337     1.007825032230
         H           -2.442336761214    -2.705039144792     0.258414843663     1.007825032230
         H           -3.983098761214    -0.799278144792    -0.202460156337     1.007825032230
         H            1.663851238786    -1.134250144792    -1.305556156337     1.007825032230
         H            3.863974238786     0.326150855208    -1.100359156337     1.007825032230
         H            4.012013238786    -1.438679144792    -0.878307156337     1.007825032230
         H            3.858614238786    -0.360571144792     0.532733843663     1.007825032230
         H           -1.204336761214     2.776006855208    -0.468155156337     1.007825032230

  Basis Set: AUG-CC-PVTZ
    Blend: AUG-CC-PVTZ
  Basis Set: (AUG-CC-PVTZ AUX)
    Blend: AUG-CC-PVTZ-JKFIT
	 Reference Energy          =    -512.5517771164893475 [Eh]
	 Singles Energy            =      -0.0000000000000000 [Eh]
	 Same-Spin Energy          =      -0.5370704295668502 [Eh]
	 Opposite-Spin Energy      =      -1.6458703801284607 [Eh]
	 Correlation Energy        =      -2.1829408096953111 [Eh]
	 Total Energy              =    -514.7347179261846577 [Eh]

	 ================> DF-SCS-MP2 Energies <==================
	-----------------------------------------------------------
	 SCS Same-Spin Scale       =       0.3333333333333333 [-]
	 SCS Opposite-Spin Scale   =       1.2000000000000000 [-]
	 SCS Same-Spin Energy      =      -0.1790234765222834 [Eh]
	 SCS Opposite-Spin Energy  =      -1.9750444561541527 [Eh]
	 SCS Correlation Energy    =      -2.1540679326764360 [Eh]
	 SCS Total Energy          =    -514.7058450491657595 [Eh]
	-----------------------------------------------------------

  Dipole Moment: [D]
     X:    -1.6752      Y:    -1.4543      Z:    -2.9927     Total:     3.7252

*** Psi4 exiting successfully. Buy a developer a beer!
