                               Psi4 1.4a3.dev225

  ==> Input File <==

--------------------------------------------------------------------------
#psi4
#
memory 32 gb

molecule  {
0 1
  O       -0.4983720     2.1660820    -0.3008080
  O        1.7439460     0.8852250     1.1595980
  N        2.0846670    -0.6693810    -0.4855240
  C       -0.1747200    -0.1425440     0.1301780
  C       -0.9878024     0.8480917    -0.1112727
  C       -0.6950920    -1.4344860     0.2644570
  C        1.2926210     0.1057900     0.3196980
  C       -2.4223480     0.6871570    -0.2466200
  C       -2.0666220    -1.6719060     0.1573390
  C       -2.9283400    -0.6051620    -0.0964900
  C        3.5272930    -0.5029810    -0.4769650
  H       -0.0118380    -2.2529100     0.4809780
  H       -3.0973410     1.5164000    -0.4561860
  H       -2.4584240    -2.6782030     0.2778980
  H       -3.9991860    -0.7724420    -0.1829770
  H        1.6477640    -1.1074140    -1.2860730
  H        3.8478870     0.3529870    -1.0808760
  H        3.9959260    -1.4118430    -0.8588240
  H        3.8425270    -0.3337350     0.5522170
  H       -1.2204240     2.8028430    -0.4486720
units angstrom
no_reorient  #important for SAPT in psi4, default
symmetry c1  #important for SAPT in psi4, default
}

set PROPERTIES_ORIGIN ["COM"]
properties('MP2/aug-cc-pvtz', properties = ['dipole'])
--------------------------------------------------------------------------

    Molecular point group: c1
  Charge       = 0
  Multiplicity = 1
  Basis Set: AUG-CC-PVTZ
    Blend: AUG-CC-PVTZ
  Basis Set: (AUG-CC-PVTZ AUX)
    Blend: AUG-CC-PVTZ-JKFIT

    Orbital Energies [Eh]
    ---------------------

    Doubly Occupied:

       1A    -20.584867     2A    -20.514790     3A    -15.585424
       4A    -11.351896     5A    -11.315106     6A    -11.259576
       7A    -11.256977     8A    -11.256908     9A    -11.254636
      10A    -11.243638    11A    -11.241086    12A     -1.383856
      13A     -1.366595    14A     -1.227048    15A     -1.168910
      16A     -1.057570    17A     -1.015012    18A     -0.953406
      19A     -0.867316    20A     -0.842437    21A     -0.783843
      22A     -0.743821    23A     -0.713890    24A     -0.670585
      25A     -0.659909    26A     -0.638734    27A     -0.619447
      28A     -0.611457    29A     -0.588124    30A     -0.582017
      31A     -0.569639    32A     -0.546236    33A     -0.534961
      34A     -0.518465    35A     -0.513676    36A     -0.490307
      37A     -0.422145    38A     -0.390043    39A     -0.360361
      40A     -0.331226

  @DF-RHF Final Energy:  -512.53854560624779

   => Energetics <=

    Nuclear Repulsion Energy =            588.0957238643353548
    One-Electron Energy =               -1865.1966570090503410
    Two-Electron Energy =                 764.5623875384670782
    Total Energy =                       -512.5385456062477942
  Basis Set: (AUG-CC-PVTZ AUX)
    Blend: AUG-CC-PVTZ-RI
    Molecular point group: c1

    Geometry (in Angstrom), charge = 0, multiplicity = 1:

       Center              X                  Y                   Z               Mass
    ------------   -----------------  -----------------  -----------------  -----------------
         O           -0.486597413440     2.146720532292    -0.321960228523    15.994914619570
         O            1.755720586560     0.865863532292     1.138445771477    15.994914619570
         N            2.096441586560    -0.688742467708    -0.506676228523    14.003074004430
         C           -0.162945413440    -0.161905467708     0.109025771477    12.000000000000
         C           -0.976027813440     0.828730232292    -0.132424928523    12.000000000000
         C           -0.683317413440    -1.453847467708     0.243304771477    12.000000000000
         C            1.304395586560     0.086428532292     0.298545771477    12.000000000000
         C           -2.410573413440     0.667795532292    -0.267772228523    12.000000000000
         C           -2.054847413440    -1.691267467708     0.136186771477    12.000000000000
         C           -2.916565413440    -0.624523467708    -0.117642228523    12.000000000000
         C            3.539067586560    -0.522342467708    -0.498117228523    12.000000000000
         H           -0.000063413440    -2.272271467708     0.459825771477     1.007825032230
         H           -3.085566413440     1.497038532292    -0.477338228523     1.007825032230
         H           -2.446649413440    -2.697564467708     0.256745771477     1.007825032230
         H           -3.987411413440    -0.791803467708    -0.204129228523     1.007825032230
         H            1.659538586560    -1.126775467708    -1.307225228523     1.007825032230
         H            3.859661586560     0.333625532292    -1.102028228523     1.007825032230
         H            4.007700586560    -1.431204467708    -0.879976228523     1.007825032230
         H            3.854301586560    -0.353096467708     0.531064771477     1.007825032230
         H           -1.208649413440     2.783481532292    -0.469824228523     1.007825032230

  Basis Set: AUG-CC-PVTZ
    Blend: AUG-CC-PVTZ
  Basis Set: (AUG-CC-PVTZ AUX)
    Blend: AUG-CC-PVTZ-JKFIT
	 Reference Energy          =    -512.5385456062477942 [Eh]
	 Singles Energy            =      -0.0000000000000000 [Eh]
	 Same-Spin Energy          =      -0.5366245236073499 [Eh]
	 Opposite-Spin Energy      =      -1.6465567540496209 [Eh]
	 Correlation Energy        =      -2.1831812776569706 [Eh]
	 Total Energy              =    -514.7217268839048074 [Eh]

	 ================> DF-SCS-MP2 Energies <==================
	-----------------------------------------------------------
	 SCS Same-Spin Scale       =       0.3333333333333333 [-]
	 SCS Opposite-Spin Scale   =       1.2000000000000000 [-]
	 SCS Same-Spin Energy      =      -0.1788748412024500 [Eh]
	 SCS Opposite-Spin Energy  =      -1.9758681048595450 [Eh]
	 SCS Correlation Energy    =      -2.1547429460619951 [Eh]
	 SCS Total Energy          =    -514.6932885523098093 [Eh]
	-----------------------------------------------------------

  Dipole Moment: [D]
     X:    -1.7669      Y:    -1.9197      Z:    -2.9164     Total:     3.9131

*** Psi4 exiting successfully. Buy a developer a beer!
