                               Psi4 1.4a3.dev225

  ==> Input File <==

--------------------------------------------------------------------------
#psi4
#
memory 32 gb

molecule  {
0 1
  O       -0.4983720     2.1660820    -0.3008080
  O        1.7439460     0.8852250     1.1595980
  N        2.0846670    -0.6693810    -0.4855240
  C       -0.1747200    -0.1425440     0.1301780
  C       -1.0501490     0.9240530    -0.1297870
  C       -0.6950920    -1.4344860     0.2644570
  C        1.4082571    -0.0073824     0.2021382
  C       -2.4223480     0.6871570    -0.2466200
  C       -2.0666220    -1.6719060     0.1573390
  C       -2.9283400    -0.6051620    -0.0964900
  C        3.5272930    -0.5029810    -0.4769650
  H       -0.0118380    -2.2529100     0.4809780
  H       -3.0973410     1.5164000    -0.4561860
  H       -2.4584240    -2.6782030     0.2778980
  H       -3.9991860    -0.7724420    -0.1829770
  H        1.6477640    -1.1074140    -1.2860730
  H        3.8478870     0.3529870    -1.0808760
  H        3.9959260    -1.4118430    -0.8588240
  H        3.8425270    -0.3337350     0.5522170
  H       -1.2204240     2.8028430    -0.4486720
units angstrom
no_reorient  #important for SAPT in psi4, default
symmetry c1  #important for SAPT in psi4, default
}

set PROPERTIES_ORIGIN ["COM"]
properties('MP2/aug-cc-pvtz', properties = ['dipole'])
--------------------------------------------------------------------------

    Molecular point group: c1
  Charge       = 0
  Multiplicity = 1
  Basis Set: AUG-CC-PVTZ
    Blend: AUG-CC-PVTZ
  Basis Set: (AUG-CC-PVTZ AUX)
    Blend: AUG-CC-PVTZ-JKFIT

    Orbital Energies [Eh]
    ---------------------

    Doubly Occupied:

       1A    -20.588888     2A    -20.477828     3A    -15.619712
       4A    -11.340275     5A    -11.314021     6A    -11.278382
       7A    -11.252217     8A    -11.249772     9A    -11.249662
      10A    -11.241976    11A    -11.235608    12A     -1.400538
      13A     -1.375987    14A     -1.229807    15A     -1.153240
      16A     -1.039061    17A     -1.011465    18A     -0.992564
      19A     -0.852239    20A     -0.839774    21A     -0.832664
      22A     -0.740270    23A     -0.724448    24A     -0.675890
      25A     -0.661971    26A     -0.650541    27A     -0.623210
      28A     -0.608335    29A     -0.588612    30A     -0.580569
      31A     -0.571359    32A     -0.537982    33A     -0.528484
      34A     -0.516342    35A     -0.495040    36A     -0.486760
      37A     -0.391797    38A     -0.383145    39A     -0.344614
      40A     -0.317743

  @DF-RHF Final Energy:  -512.48387598772433

   => Energetics <=

    Nuclear Repulsion Energy =            587.0729890720215280
    One-Electron Energy =               -1863.1081494115687747
    Two-Electron Energy =                 763.5512843518229147
    Total Energy =                       -512.4838759877243319
  Basis Set: (AUG-CC-PVTZ AUX)
    Blend: AUG-CC-PVTZ-RI
    Molecular point group: c1

    Geometry (in Angstrom), charge = 0, multiplicity = 1:

       Center              X                  Y                   Z               Mass
    ------------   -----------------  -----------------  -----------------  -----------------
         O           -0.490830565233     2.149676466101    -0.311150926121    15.994914619570
         O            1.751487434767     0.868819466101     1.149255073879    15.994914619570
         N            2.092208434767    -0.685786533899    -0.495866926121    14.003074004430
         C           -0.167178565233    -0.158949533899     0.119835073879    12.000000000000
         C           -1.042607565233     0.907647466101    -0.140129926121    12.000000000000
         C           -0.687550565233    -1.450891533899     0.254114073879    12.000000000000
         C            1.415798534767    -0.023787933899     0.191795273879    12.000000000000
         C           -2.414806565233     0.670751466101    -0.256962926121    12.000000000000
         C           -2.059080565233    -1.688311533899     0.146996073879    12.000000000000
         C           -2.920798565233    -0.621567533899    -0.106832926121    12.000000000000
         C            3.534834434767    -0.519386533899    -0.487307926121    12.000000000000
         H           -0.004296565233    -2.269315533899     0.470635073879     1.007825032230
         H           -3.089799565233     1.499994466101    -0.466528926121     1.007825032230
         H           -2.450882565233    -2.694608533899     0.267555073879     1.007825032230
         H           -3.991644565233    -0.788847533899    -0.193319926121     1.007825032230
         H            1.655305434767    -1.123819533899    -1.296415926121     1.007825032230
         H            3.855428434767     0.336581466101    -1.091218926121     1.007825032230
         H            4.003467434767    -1.428248533899    -0.869166926121     1.007825032230
         H            3.850068434767    -0.350140533899     0.541874073879     1.007825032230
         H           -1.212882565233     2.786437466101    -0.459014926121     1.007825032230

  Basis Set: AUG-CC-PVTZ
    Blend: AUG-CC-PVTZ
  Basis Set: (AUG-CC-PVTZ AUX)
    Blend: AUG-CC-PVTZ-JKFIT
	 Reference Energy          =    -512.4838759877243319 [Eh]
	 Singles Energy            =      -0.0000000000000000 [Eh]
	 Same-Spin Energy          =      -0.5388314607234644 [Eh]
	 Opposite-Spin Energy      =      -1.6489921021182212 [Eh]
	 Correlation Energy        =      -2.1878235628416856 [Eh]
	 Total Energy              =    -514.6716995505660179 [Eh]

	 ================> DF-SCS-MP2 Energies <==================
	-----------------------------------------------------------
	 SCS Same-Spin Scale       =       0.3333333333333333 [-]
	 SCS Opposite-Spin Scale   =       1.2000000000000000 [-]
	 SCS Same-Spin Energy      =      -0.1796104869078215 [Eh]
	 SCS Opposite-Spin Energy  =      -1.9787905225418654 [Eh]
	 SCS Correlation Energy    =      -2.1584010094496868 [Eh]
	 SCS Total Energy          =    -514.6422769971740081 [Eh]
	-----------------------------------------------------------

  Dipole Moment: [D]
     X:    -0.6340      Y:    -2.4200      Z:    -4.0039     Total:     4.7212

*** Psi4 exiting successfully. Buy a developer a beer!
