                               Psi4 1.4a3.dev225

  ==> Input File <==

--------------------------------------------------------------------------
#psi4
#
memory 32 gb

molecule  {
0 1
  O       -0.4983720     2.1660820    -0.3008080
  O        1.7439460     0.8852250     1.1595980
  N        2.0846670    -0.6693810    -0.4855240
  C       -0.1747200    -0.1425440     0.1301780
  C       -1.0300082     0.9693893    -0.1360296
  C       -0.6950920    -1.4344860     0.2644570
  C        1.2926210     0.1057900     0.3196980
  C       -2.4223480     0.6871570    -0.2466200
  C       -2.0666220    -1.6719060     0.1573390
  C       -2.9283400    -0.6051620    -0.0964900
  C        3.5272930    -0.5029810    -0.4769650
  H       -0.0118380    -2.2529100     0.4809780
  H       -3.0973410     1.5164000    -0.4561860
  H       -2.4584240    -2.6782030     0.2778980
  H       -3.9991860    -0.7724420    -0.1829770
  H        1.6477640    -1.1074140    -1.2860730
  H        3.8478870     0.3529870    -1.0808760
  H        3.9959260    -1.4118430    -0.8588240
  H        3.8425270    -0.3337350     0.5522170
  H       -1.2204240     2.8028430    -0.4486720
units angstrom
no_reorient  #important for SAPT in psi4, default
symmetry c1  #important for SAPT in psi4, default
}

set PROPERTIES_ORIGIN ["COM"]
properties('MP2/aug-cc-pvtz', properties = ['dipole'])
--------------------------------------------------------------------------

    Molecular point group: c1
  Charge       = 0
  Multiplicity = 1
  Basis Set: AUG-CC-PVTZ
    Blend: AUG-CC-PVTZ
  Basis Set: (AUG-CC-PVTZ AUX)
    Blend: AUG-CC-PVTZ-JKFIT

    Orbital Energies [Eh]
    ---------------------

    Doubly Occupied:

       1A    -20.608316     2A    -20.512223     3A    -15.582726
       4A    -11.347944     5A    -11.326104     6A    -11.255947
       7A    -11.255419     8A    -11.255319     9A    -11.248532
      10A    -11.246453    11A    -11.237302    12A     -1.438447
      13A     -1.366586    14A     -1.224242    15A     -1.153530
      16A     -1.042922    17A     -1.012955    18A     -0.948729
      19A     -0.864570    20A     -0.847525    21A     -0.781498
      22A     -0.749833    23A     -0.725181    24A     -0.680139
      25A     -0.648094    26A     -0.636523    27A     -0.618803
      28A     -0.611971    29A     -0.609624    30A     -0.584459
      31A     -0.577642    32A     -0.544565    33A     -0.536955
      34A     -0.521618    35A     -0.505092    36A     -0.487751
      37A     -0.419616    38A     -0.388149    39A     -0.352286
      40A     -0.318504

  @DF-RHF Final Energy:  -512.54928559909990

   => Energetics <=

    Nuclear Repulsion Energy =            587.0306466059921604
    One-Electron Energy =               -1863.0116740007640601
    Two-Electron Energy =                 763.4317417956719964
    Total Energy =                       -512.5492855990999033
  Basis Set: (AUG-CC-PVTZ AUX)
    Blend: AUG-CC-PVTZ-RI
    Molecular point group: c1

    Geometry (in Angstrom), charge = 0, multiplicity = 1:

       Center              X                  Y                   Z               Mass
    ------------   -----------------  -----------------  -----------------  -----------------
         O           -0.483244716231     2.137085028996    -0.319993617547    15.994914619570
         O            1.759073283769     0.856228028996     1.140412382453    15.994914619570
         N            2.099794283769    -0.698377971004    -0.504709617547    14.003074004430
         C           -0.159592716231    -0.171540971004     0.110992382453    12.000000000000
         C           -1.014880916231     0.940392328996    -0.155215217547    12.000000000000
         C           -0.679964716231    -1.463482971004     0.245271382453    12.000000000000
         C            1.307748283769     0.076793028996     0.300512382453    12.000000000000
         C           -2.407220716231     0.658160028996    -0.265805617547    12.000000000000
         C           -2.051494716231    -1.700902971004     0.138153382453    12.000000000000
         C           -2.913212716231    -0.634158971004    -0.115675617547    12.000000000000
         C            3.542420283769    -0.531977971004    -0.496150617547    12.000000000000
         H            0.003289283769    -2.281906971004     0.461792382453     1.007825032230
         H           -3.082213716231     1.487403028996    -0.475371617547     1.007825032230
         H           -2.443296716231    -2.707199971004     0.258712382453     1.007825032230
         H           -3.984058716231    -0.801438971004    -0.202162617547     1.007825032230
         H            1.662891283769    -1.136410971004    -1.305258617547     1.007825032230
         H            3.863014283769     0.323990028996    -1.100061617547     1.007825032230
         H            4.011053283769    -1.440839971004    -0.878009617547     1.007825032230
         H            3.857654283769    -0.362731971004     0.533031382453     1.007825032230
         H           -1.205296716231     2.773846028996    -0.467857617547     1.007825032230

  Basis Set: AUG-CC-PVTZ
    Blend: AUG-CC-PVTZ
  Basis Set: (AUG-CC-PVTZ AUX)
    Blend: AUG-CC-PVTZ-JKFIT
	 Reference Energy          =    -512.5492855990999033 [Eh]
	 Singles Energy            =      -0.0000000000000000 [Eh]
	 Same-Spin Energy          =      -0.5371458472578281 [Eh]
	 Opposite-Spin Energy      =      -1.6456649749285652 [Eh]
	 Correlation Energy        =      -2.1828108221863936 [Eh]
	 Total Energy              =    -514.7320964212863146 [Eh]

	 ================> DF-SCS-MP2 Energies <==================
	-----------------------------------------------------------
	 SCS Same-Spin Scale       =       0.3333333333333333 [-]
	 SCS Opposite-Spin Scale   =       1.2000000000000000 [-]
	 SCS Same-Spin Energy      =      -0.1790486157526094 [Eh]
	 SCS Opposite-Spin Energy  =      -1.9747979699142781 [Eh]
	 SCS Correlation Energy    =      -2.1538465856668876 [Eh]
	 SCS Total Energy          =    -514.7031321847667868 [Eh]
	-----------------------------------------------------------

  Dipole Moment: [D]
     X:    -1.6219      Y:    -1.2581      Z:    -3.0217     Total:     3.6529

*** Psi4 exiting successfully. Buy a developer a beer!
