                               Psi4 1.4a3.dev225

  ==> Input File <==

--------------------------------------------------------------------------
#psi4
#
memory 32 gb

molecule  {
0 1
  O       -0.4983720     2.1660820    -0.3008080
  O        1.7439460     0.8852250     1.1595980
  N        2.0846670    -0.6693810    -0.4855240
  C       -0.1747200    -0.1425440     0.1301780
  C       -1.0501490     0.9240530    -0.1297870
  C       -0.6950920    -1.4344860     0.2644570
  C        1.2926210     0.1057900     0.3196980
  C       -2.4223480     0.6871570    -0.2466200
  C       -2.0666220    -1.6719060     0.1573390
  C       -2.9283400    -0.6051620    -0.0964900
  C        3.5272930    -0.5029810    -0.4769650
  H       -0.0118380    -2.2529100     0.4809780
  H       -3.0973410     1.5164000    -0.4561860
  H       -2.4584240    -2.6782030     0.2778980
  H       -3.9991860    -0.7724420    -0.1829770
  H        1.6477640    -1.1074140    -1.2860730
  H        3.8478870     0.3529870    -1.0808760
  H        4.0173926    -1.4534750    -0.8763157
  H        3.8425270    -0.3337350     0.5522170
  H       -1.2204240     2.8028430    -0.4486720
units angstrom
no_reorient  #important for SAPT in psi4, default
symmetry c1  #important for SAPT in psi4, default
}

set PROPERTIES_ORIGIN ["COM"]
properties('MP2/aug-cc-pvtz', properties = ['dipole'])
--------------------------------------------------------------------------

    Molecular point group: c1
  Charge       = 0
  Multiplicity = 1
  Basis Set: AUG-CC-PVTZ
    Blend: AUG-CC-PVTZ
  Basis Set: (AUG-CC-PVTZ AUX)
    Blend: AUG-CC-PVTZ-JKFIT

    Orbital Energies [Eh]
    ---------------------

    Doubly Occupied:

       1A    -20.597899     2A    -20.513487     3A    -15.584498
       4A    -11.350475     5A    -11.320583     6A    -11.262068
       7A    -11.257517     8A    -11.256904     9A    -11.249714
      10A    -11.246699    11A    -11.240547    12A     -1.410119
      13A     -1.367443    14A     -1.225522    15A     -1.160175
      16A     -1.046720    17A     -1.017833    18A     -0.946804
      19A     -0.865028    20A     -0.843921    21A     -0.783491
      22A     -0.742221    23A     -0.723017    24A     -0.675381
      25A     -0.647921    26A     -0.636399    27A     -0.619474
      28A     -0.612150    29A     -0.595644    30A     -0.585169
      31A     -0.574573    32A     -0.539792    33A     -0.535724
      34A     -0.522436    35A     -0.511438    36A     -0.489852
      37A     -0.421842    38A     -0.388932    39A     -0.354516
      40A     -0.326300

  @DF-RHF Final Energy:  -512.54998112558053

   => Energetics <=

    Nuclear Repulsion Energy =            586.9357814896171703
    One-Electron Energy =               -1862.8710713394959839
    Two-Electron Energy =                 763.3853087242981701
    Total Energy =                       -512.5499811255805298
  Basis Set: (AUG-CC-PVTZ AUX)
    Blend: AUG-CC-PVTZ-RI
    Molecular point group: c1

    Geometry (in Angstrom), charge = 0, multiplicity = 1:

       Center              X                  Y                   Z               Mass
    ------------   -----------------  -----------------  -----------------  -----------------
         O           -0.481788009131     2.140964152920    -0.320372813659    15.994914619570
         O            1.760529990869     0.860107152920     1.140033186341    15.994914619570
         N            2.101250990869    -0.694498847080    -0.505088813659    14.003074004430
         C           -0.158136009131    -0.167661847080     0.110613186341    12.000000000000
         C           -1.033565009131     0.898935152920    -0.149351813659    12.000000000000
         C           -0.678508009131    -1.459603847080     0.244892186341    12.000000000000
         C            1.309204990869     0.080672152920     0.300133186341    12.000000000000
         C           -2.405764009131     0.662039152920    -0.266184813659    12.000000000000
         C           -2.050038009131    -1.697023847080     0.137774186341    12.000000000000
         C           -2.911756009131    -0.630279847080    -0.116054813659    12.000000000000
         C            3.543876990869    -0.528098847080    -0.496529813659    12.000000000000
         H            0.004745990869    -2.278027847080     0.461413186341     1.007825032230
         H           -3.080757009131     1.491282152920    -0.475750813659     1.007825032230
         H           -2.441840009131    -2.703320847080     0.258333186341     1.007825032230
         H           -3.982602009131    -0.797559847080    -0.202541813659     1.007825032230
         H            1.664347990869    -1.132531847080    -1.305637813659     1.007825032230
         H            3.864470990869     0.327869152920    -1.100440813659     1.007825032230
         H            4.033976590869    -1.478592847080    -0.895880513659     1.007825032230
         H            3.859110990869    -0.358852847080     0.532652186341     1.007825032230
         H           -1.203840009131     2.777725152920    -0.468236813659     1.007825032230

  Basis Set: AUG-CC-PVTZ
    Blend: AUG-CC-PVTZ
  Basis Set: (AUG-CC-PVTZ AUX)
    Blend: AUG-CC-PVTZ-JKFIT
	 Reference Energy          =    -512.5499811255805298 [Eh]
	 Singles Energy            =      -0.0000000000000000 [Eh]
	 Same-Spin Energy          =      -0.5370293505886178 [Eh]
	 Opposite-Spin Energy      =      -1.6463807643314561 [Eh]
	 Correlation Energy        =      -2.1834101149200738 [Eh]
	 Total Energy              =    -514.7333912405006231 [Eh]

	 ================> DF-SCS-MP2 Energies <==================
	-----------------------------------------------------------
	 SCS Same-Spin Scale       =       0.3333333333333333 [-]
	 SCS Opposite-Spin Scale   =       1.2000000000000000 [-]
	 SCS Same-Spin Energy      =      -0.1790097835295393 [Eh]
	 SCS Opposite-Spin Energy  =      -1.9756569171977472 [Eh]
	 SCS Correlation Energy    =      -2.1546667007272866 [Eh]
	 SCS Total Energy          =    -514.7046478263077915 [Eh]
	-----------------------------------------------------------

  Dipole Moment: [D]
     X:    -1.7371      Y:    -1.5610      Z:    -2.9631     Total:     3.7729

*** Psi4 exiting successfully. Buy a developer a beer!
