                               Psi4 1.4a3.dev225

  ==> Input File <==

--------------------------------------------------------------------------
#psi4
#
memory 32 gb

molecule  {
0 1
  O       -0.4983720     2.1660820    -0.3008080
  O        1.7439460     0.8852250     1.1595980
  N        2.0846670    -0.6693810    -0.4855240
  C       -0.1747200    -0.1425440     0.1301780
  C       -1.0501490     0.9240530    -0.1297870
  C       -0.6950920    -1.4344860     0.2644570
  C        1.2810574     0.1171072     0.3314540
  C       -2.4223480     0.6871570    -0.2466200
  C       -2.0666220    -1.6719060     0.1573390
  C       -2.9283400    -0.6051620    -0.0964900
  C        3.5272930    -0.5029810    -0.4769650
  H       -0.0118380    -2.2529100     0.4809780
  H       -3.0973410     1.5164000    -0.4561860
  H       -2.4584240    -2.6782030     0.2778980
  H       -3.9991860    -0.7724420    -0.1829770
  H        1.6477640    -1.1074140    -1.2860730
  H        3.8478870     0.3529870    -1.0808760
  H        3.9959260    -1.4118430    -0.8588240
  H        3.8425270    -0.3337350     0.5522170
  H       -1.2204240     2.8028430    -0.4486720
units angstrom
no_reorient  #important for SAPT in psi4, default
symmetry c1  #important for SAPT in psi4, default
}

set PROPERTIES_ORIGIN ["COM"]
properties('MP2/aug-cc-pvtz', properties = ['dipole'])
--------------------------------------------------------------------------

    Molecular point group: c1
  Charge       = 0
  Multiplicity = 1
  Basis Set: AUG-CC-PVTZ
    Blend: AUG-CC-PVTZ
  Basis Set: (AUG-CC-PVTZ AUX)
    Blend: AUG-CC-PVTZ-JKFIT

    Orbital Energies [Eh]
    ---------------------

    Doubly Occupied:

       1A    -20.598654     2A    -20.516415     3A    -15.579929
       4A    -11.350486     5A    -11.321070     6A    -11.258152
       7A    -11.257467     8A    -11.253795     9A    -11.249523
      10A    -11.247046    11A    -11.240937    12A     -1.411034
      13A     -1.373646    14A     -1.219284    15A     -1.160634
      16A     -1.047878    17A     -1.018412    18A     -0.946213
      19A     -0.866583    20A     -0.844820    21A     -0.779838
      22A     -0.742376    23A     -0.722984    24A     -0.676244
      25A     -0.647385    26A     -0.636872    27A     -0.619195
      28A     -0.611704    29A     -0.596664    30A     -0.586063
      31A     -0.577976    32A     -0.543099    33A     -0.537243
      34A     -0.524244    35A     -0.511874    36A     -0.490409
      37A     -0.423520    38A     -0.386973    39A     -0.355119
      40A     -0.326882

  @DF-RHF Final Energy:  -512.55202575626231

   => Energetics <=

    Nuclear Repulsion Energy =            587.2132499238711034
    One-Electron Energy =               -1863.4132712916268702
    Two-Electron Energy =                 763.6479956114933429
    Total Energy =                       -512.5520257562623101
  Basis Set: (AUG-CC-PVTZ AUX)
    Blend: AUG-CC-PVTZ-RI
    Molecular point group: c1

    Geometry (in Angstrom), charge = 0, multiplicity = 1:

       Center              X                  Y                   Z               Mass
    ------------   -----------------  -----------------  -----------------  -----------------
         O           -0.480726217508     2.139787400273    -0.321423370234    15.994914619570
         O            1.761591782492     0.858930400273     1.138982629766    15.994914619570
         N            2.102312782492    -0.695675599727    -0.506139370234    14.003074004430
         C           -0.157074217508    -0.168838599727     0.109562629766    12.000000000000
         C           -1.032503217508     0.897758400273    -0.150402370234    12.000000000000
         C           -0.677446217508    -1.460780599727     0.243841629766    12.000000000000
         C            1.298703182492     0.090812600273     0.310838629766    12.000000000000
         C           -2.404702217508     0.660862400273    -0.267235370234    12.000000000000
         C           -2.048976217508    -1.698200599727     0.136723629766    12.000000000000
         C           -2.910694217508    -0.631456599727    -0.117105370234    12.000000000000
         C            3.544938782492    -0.529275599727    -0.497580370234    12.000000000000
         H            0.005807782492    -2.279204599727     0.460362629766     1.007825032230
         H           -3.079695217508     1.490105400273    -0.476801370234     1.007825032230
         H           -2.440778217508    -2.704497599727     0.257282629766     1.007825032230
         H           -3.981540217508    -0.798736599727    -0.203592370234     1.007825032230
         H            1.665409782492    -1.133708599727    -1.306688370234     1.007825032230
         H            3.865532782492     0.326692400273    -1.101491370234     1.007825032230
         H            4.013571782492    -1.438137599727    -0.879439370234     1.007825032230
         H            3.860172782492    -0.360029599727     0.531601629766     1.007825032230
         H           -1.202778217508     2.776548400273    -0.469287370234     1.007825032230

  Basis Set: AUG-CC-PVTZ
    Blend: AUG-CC-PVTZ
  Basis Set: (AUG-CC-PVTZ AUX)
    Blend: AUG-CC-PVTZ-JKFIT
	 Reference Energy          =    -512.5520257562623101 [Eh]
	 Singles Energy            =      -0.0000000000000000 [Eh]
	 Same-Spin Energy          =      -0.5369104056372462 [Eh]
	 Opposite-Spin Energy      =      -1.6458476662465060 [Eh]
	 Correlation Energy        =      -2.1827580718837520 [Eh]
	 Total Energy              =    -514.7347838281460781 [Eh]

	 ================> DF-SCS-MP2 Energies <==================
	-----------------------------------------------------------
	 SCS Same-Spin Scale       =       0.3333333333333333 [-]
	 SCS Opposite-Spin Scale   =       1.2000000000000000 [-]
	 SCS Same-Spin Energy      =      -0.1789701352124154 [Eh]
	 SCS Opposite-Spin Energy  =      -1.9750171994958072 [Eh]
	 SCS Correlation Energy    =      -2.1539873347082228 [Eh]
	 SCS Total Energy          =    -514.7060130909704867 [Eh]
	-----------------------------------------------------------

  Dipole Moment: [D]
     X:    -1.8320      Y:    -1.4955      Z:    -2.8707     Total:     3.7193

*** Psi4 exiting successfully. Buy a developer a beer!
