                               Psi4 1.4a3.dev225

  ==> Input File <==

--------------------------------------------------------------------------
#psi4
#
memory 32 gb

molecule  {
0 1
  O       -0.4983720     2.1660820    -0.3008080
  O        1.7439460     0.8852250     1.1595980
  N        2.0846670    -0.6693810    -0.4855240
  C       -0.1747200    -0.1425440     0.1301780
  C       -1.0501490     0.9240530    -0.1297870
  C       -0.6950920    -1.4344860     0.2644570
  C        1.3109449     0.1374352     0.3537981
  C       -2.4223480     0.6871570    -0.2466200
  C       -2.0666220    -1.6719060     0.1573390
  C       -2.9283400    -0.6051620    -0.0964900
  C        3.5272930    -0.5029810    -0.4769650
  H       -0.0118380    -2.2529100     0.4809780
  H       -3.0973410     1.5164000    -0.4561860
  H       -2.4584240    -2.6782030     0.2778980
  H       -3.9991860    -0.7724420    -0.1829770
  H        1.6477640    -1.1074140    -1.2860730
  H        3.8478870     0.3529870    -1.0808760
  H        3.9959260    -1.4118430    -0.8588240
  H        3.8425270    -0.3337350     0.5522170
  H       -1.2204240     2.8028430    -0.4486720
units angstrom
no_reorient  #important for SAPT in psi4, default
symmetry c1  #important for SAPT in psi4, default
}

set PROPERTIES_ORIGIN ["COM"]
properties('MP2/aug-cc-pvtz', properties = ['dipole'])
--------------------------------------------------------------------------

    Molecular point group: c1
  Charge       = 0
  Multiplicity = 1
  Basis Set: AUG-CC-PVTZ
    Blend: AUG-CC-PVTZ
  Basis Set: (AUG-CC-PVTZ AUX)
    Blend: AUG-CC-PVTZ-JKFIT

    Orbital Energies [Eh]
    ---------------------

    Doubly Occupied:

       1A    -20.597641     2A    -20.523529     3A    -15.576583
       4A    -11.349743     5A    -11.318218     6A    -11.255502
       7A    -11.255093     8A    -11.252483     9A    -11.248062
      10A    -11.245313    11A    -11.239205    12A     -1.411815
      13A     -1.399482    14A     -1.219508    15A     -1.157778
      16A     -1.042394    17A     -1.016148    18A     -0.942551
      19A     -0.862758    20A     -0.840701    21A     -0.779858
      22A     -0.740845    23A     -0.720959    24A     -0.675423
      25A     -0.645905    26A     -0.643859    27A     -0.620531
      28A     -0.611153    29A     -0.597141    30A     -0.584454
      31A     -0.578942    32A     -0.544889    33A     -0.541060
      34A     -0.528548    35A     -0.513831    36A     -0.490067
      37A     -0.423482    38A     -0.389233    39A     -0.353054
      40A     -0.325037

  @DF-RHF Final Energy:  -512.55183059758792

   => Energetics <=

    Nuclear Repulsion Energy =            587.1921549334192605
    One-Electron Energy =               -1863.3624124842715446
    Two-Electron Energy =                 763.6184269532643611
    Total Energy =                       -512.5518305975879230
  Basis Set: (AUG-CC-PVTZ AUX)
    Blend: AUG-CC-PVTZ-RI
    Molecular point group: c1

    Geometry (in Angstrom), charge = 0, multiplicity = 1:

       Center              X                  Y                   Z               Mass
    ------------   -----------------  -----------------  -----------------  -----------------
         O           -0.483100387357     2.138172607309    -0.323198315899    15.994914619570
         O            1.759217612643     0.857315607309     1.137207684101    15.994914619570
         N            2.099938612643    -0.697290392691    -0.507914315899    14.003074004430
         C           -0.159448387357    -0.170453392691     0.107787684101    12.000000000000
         C           -1.034877387357     0.896143607309    -0.152177315899    12.000000000000
         C           -0.679820387357    -1.462395392691     0.242066684101    12.000000000000
         C            1.326216512643     0.109525807309     0.331407784101    12.000000000000
         C           -2.407076387357     0.659247607309    -0.269010315899    12.000000000000
         C           -2.051350387357    -1.699815392691     0.134948684101    12.000000000000
         C           -2.913068387357    -0.633071392691    -0.118880315899    12.000000000000
         C            3.542564612643    -0.530890392691    -0.499355315899    12.000000000000
         H            0.003433612643    -2.280819392691     0.458587684101     1.007825032230
         H           -3.082069387357     1.488490607309    -0.478576315899     1.007825032230
         H           -2.443152387357    -2.706112392691     0.255507684101     1.007825032230
         H           -3.983914387357    -0.800351392691    -0.205367315899     1.007825032230
         H            1.663035612643    -1.135323392691    -1.308463315899     1.007825032230
         H            3.863158612643     0.325077607309    -1.103266315899     1.007825032230
         H            4.011197612643    -1.439752392691    -0.881214315899     1.007825032230
         H            3.857798612643    -0.361644392691     0.529826684101     1.007825032230
         H           -1.205152387357     2.774933607309    -0.471062315899     1.007825032230

  Basis Set: AUG-CC-PVTZ
    Blend: AUG-CC-PVTZ
  Basis Set: (AUG-CC-PVTZ AUX)
    Blend: AUG-CC-PVTZ-JKFIT
	 Reference Energy          =    -512.5518305975879230 [Eh]
	 Singles Energy            =      -0.0000000000000000 [Eh]
	 Same-Spin Energy          =      -0.5359063084776147 [Eh]
	 Opposite-Spin Energy      =      -1.6438512921599107 [Eh]
	 Correlation Energy        =      -2.1797576006375254 [Eh]
	 Total Energy              =    -514.7315881982254950 [Eh]

	 ================> DF-SCS-MP2 Energies <==================
	-----------------------------------------------------------
	 SCS Same-Spin Scale       =       0.3333333333333333 [-]
	 SCS Opposite-Spin Scale   =       1.2000000000000000 [-]
	 SCS Same-Spin Energy      =      -0.1786354361592049 [Eh]
	 SCS Opposite-Spin Energy  =      -1.9726215505918927 [Eh]
	 SCS Correlation Energy    =      -2.1512569867510978 [Eh]
	 SCS Total Energy          =    -514.7030875843390731 [Eh]
	-----------------------------------------------------------

  Dipole Moment: [D]
     X:    -1.6699      Y:    -1.3511      Z:    -2.7007     Total:     3.4508

*** Psi4 exiting successfully. Buy a developer a beer!
