                               Psi4 1.4a3.dev225

  ==> Input File <==

--------------------------------------------------------------------------
#psi4
#
memory 32 gb

molecule  {
0 1
  O       -0.4983720     2.1660820    -0.3008080
  O        1.7439460     0.8852250     1.1595980
  N        2.0846670    -0.6693810    -0.4855240
  C       -0.1747200    -0.1425440     0.1301780
  C       -1.0501490     0.9240530    -0.1297870
  C       -0.6950920    -1.4344860     0.2644570
  C        1.2926210     0.1057900     0.3196980
  C       -2.4223480     0.6871570    -0.2466200
  C       -2.0666220    -1.6719060     0.1573390
  C       -2.9283400    -0.6051620    -0.0964900
  C        3.5471609    -0.5006893    -0.4768471
  H       -0.0118380    -2.2529100     0.4809780
  H       -3.0973410     1.5164000    -0.4561860
  H       -2.4584240    -2.6782030     0.2778980
  H       -3.9991860    -0.7724420    -0.1829770
  H        1.6477640    -1.1074140    -1.2860730
  H        3.8478870     0.3529870    -1.0808760
  H        3.9959260    -1.4118430    -0.8588240
  H        3.8425270    -0.3337350     0.5522170
  H       -1.2204240     2.8028430    -0.4486720
units angstrom
no_reorient  #important for SAPT in psi4, default
symmetry c1  #important for SAPT in psi4, default
}

set PROPERTIES_ORIGIN ["COM"]
properties('MP2/aug-cc-pvtz', properties = ['dipole'])
--------------------------------------------------------------------------

    Molecular point group: c1
  Charge       = 0
  Multiplicity = 1
  Basis Set: AUG-CC-PVTZ
    Blend: AUG-CC-PVTZ
  Basis Set: (AUG-CC-PVTZ AUX)
    Blend: AUG-CC-PVTZ-JKFIT

    Orbital Energies [Eh]
    ---------------------

    Doubly Occupied:

       1A    -20.597442     2A    -20.512312     3A    -15.583328
       4A    -11.349398     5A    -11.320044     6A    -11.256963
       7A    -11.256429     8A    -11.256317     9A    -11.249122
      10A    -11.246256    11A    -11.240098    12A     -1.409639
      13A     -1.365959    14A     -1.221150    15A     -1.159514
      16A     -1.046023    17A     -1.017350    18A     -0.950954
      19A     -0.865068    20A     -0.844186    21A     -0.781719
      22A     -0.741766    23A     -0.722715    24A     -0.674816
      25A     -0.646337    26A     -0.634220    27A     -0.619123
      28A     -0.612119    29A     -0.595587    30A     -0.585070
      31A     -0.573758    32A     -0.549584    33A     -0.536101
      34A     -0.522808    35A     -0.511432    36A     -0.489631
      37A     -0.420655    38A     -0.389117    39A     -0.353954
      40A     -0.325815

  @DF-RHF Final Energy:  -512.55179790748286

   => Energetics <=

    Nuclear Repulsion Energy =            586.7870246863456032
    One-Electron Energy =               -1862.6098878203620188
    Two-Electron Energy =                 763.2710652265335511
    Total Energy =                       -512.5517979074828645
  Basis Set: (AUG-CC-PVTZ AUX)
    Blend: AUG-CC-PVTZ-RI
    Molecular point group: c1

    Geometry (in Angstrom), charge = 0, multiplicity = 1:

       Center              X                  Y                   Z               Mass
    ------------   -----------------  -----------------  -----------------  -----------------
         O           -0.483223037905     2.140504357863    -0.320498875843    15.994914619570
         O            1.759094962095     0.859647357863     1.139907124157    15.994914619570
         N            2.099815962095    -0.694958642137    -0.505214875843    14.003074004430
         C           -0.159571037905    -0.168121642137     0.110487124157    12.000000000000
         C           -1.035000037905     0.898475357863    -0.149477875843    12.000000000000
         C           -0.679943037905    -1.460063642137     0.244766124157    12.000000000000
         C            1.307769962095     0.080212357863     0.300007124157    12.000000000000
         C           -2.407199037905     0.661579357863    -0.266310875843    12.000000000000
         C           -2.051473037905    -1.697483642137     0.137648124157    12.000000000000
         C           -2.913191037905    -0.630739642137    -0.116180875843    12.000000000000
         C            3.562309862095    -0.526266942137    -0.496537975843    12.000000000000
         H            0.003310962095    -2.278487642137     0.461287124157     1.007825032230
         H           -3.082192037905     1.490822357863    -0.475876875843     1.007825032230
         H           -2.443275037905    -2.703780642137     0.258207124157     1.007825032230
         H           -3.984037037905    -0.798019642137    -0.202667875843     1.007825032230
         H            1.662912962095    -1.132991642137    -1.305763875843     1.007825032230
         H            3.863035962095     0.327409357863    -1.100566875843     1.007825032230
         H            4.011074962095    -1.437420642137    -0.878514875843     1.007825032230
         H            3.857675962095    -0.359312642137     0.532526124157     1.007825032230
         H           -1.205275037905     2.777265357863    -0.468362875843     1.007825032230

  Basis Set: AUG-CC-PVTZ
    Blend: AUG-CC-PVTZ
  Basis Set: (AUG-CC-PVTZ AUX)
    Blend: AUG-CC-PVTZ-JKFIT
	 Reference Energy          =    -512.5517979074828645 [Eh]
	 Singles Energy            =      -0.0000000000000000 [Eh]
	 Same-Spin Energy          =      -0.5369489425753219 [Eh]
	 Opposite-Spin Energy      =      -1.6460822910475681 [Eh]
	 Correlation Energy        =      -2.1830312336228901 [Eh]
	 Total Energy              =    -514.7348291411057062 [Eh]

	 ================> DF-SCS-MP2 Energies <==================
	-----------------------------------------------------------
	 SCS Same-Spin Scale       =       0.3333333333333333 [-]
	 SCS Opposite-Spin Scale   =       1.2000000000000000 [-]
	 SCS Same-Spin Energy      =      -0.1789829808584406 [Eh]
	 SCS Opposite-Spin Energy  =      -1.9752987492570817 [Eh]
	 SCS Correlation Energy    =      -2.1542817301155224 [Eh]
	 SCS Total Energy          =    -514.7060796375983500 [Eh]
	-----------------------------------------------------------

  Dipole Moment: [D]
     X:    -1.6485      Y:    -1.5799      Z:    -2.9862     Total:     3.7591

*** Psi4 exiting successfully. Buy a developer a beer!
