                               Psi4 1.4a3.dev225

  ==> Input File <==

--------------------------------------------------------------------------
#psi4
#
memory 32 gb

molecule  {
0 1
  O       -0.4983720     2.1660820    -0.3008080
  O        1.7439460     0.8852250     1.1595980
  N        2.0846670    -0.6693810    -0.4855240
  C       -0.1747200    -0.1425440     0.1301780
  C       -1.0501490     0.9240530    -0.1297870
  C       -0.6950920    -1.4344860     0.2644570
  C        1.2926210     0.1057900     0.3196980
  C       -2.4223480     0.6871570    -0.2466200
  C       -2.0666220    -1.6719060     0.1573390
  C       -2.8974454    -0.6434073    -0.0873896
  C        3.5272930    -0.5029810    -0.4769650
  H       -0.0118380    -2.2529100     0.4809780
  H       -3.0973410     1.5164000    -0.4561860
  H       -2.4584240    -2.6782030     0.2778980
  H       -3.9991860    -0.7724420    -0.1829770
  H        1.6477640    -1.1074140    -1.2860730
  H        3.8478870     0.3529870    -1.0808760
  H        3.9959260    -1.4118430    -0.8588240
  H        3.8425270    -0.3337350     0.5522170
  H       -1.2204240     2.8028430    -0.4486720
units angstrom
no_reorient  #important for SAPT in psi4, default
symmetry c1  #important for SAPT in psi4, default
}

set PROPERTIES_ORIGIN ["COM"]
properties('MP2/aug-cc-pvtz', properties = ['dipole'])
--------------------------------------------------------------------------

    Molecular point group: c1
  Charge       = 0
  Multiplicity = 1
  Basis Set: AUG-CC-PVTZ
    Blend: AUG-CC-PVTZ
  Basis Set: (AUG-CC-PVTZ AUX)
    Blend: AUG-CC-PVTZ-JKFIT

    Orbital Energies [Eh]
    ---------------------

    Doubly Occupied:

       1A    -20.596899     2A    -20.513399     3A    -15.584187
       4A    -11.350439     5A    -11.319571     6A    -11.258440
       7A    -11.256145     8A    -11.255145     9A    -11.250443
      10A    -11.247004    11A    -11.235251    12A     -1.409309
      13A     -1.367327    14A     -1.225603    15A     -1.163032
      16A     -1.046559    17A     -1.020155    18A     -0.950053
      19A     -0.868065    20A     -0.841491    21A     -0.782820
      22A     -0.742236    23A     -0.723265    24A     -0.672484
      25A     -0.649701    26A     -0.636674    27A     -0.619892
      28A     -0.613121    29A     -0.595264    30A     -0.585113
      31A     -0.575038    32A     -0.545490    33A     -0.536238
      34A     -0.515983    35A     -0.514250    36A     -0.492445
      37A     -0.421643    38A     -0.389039    39A     -0.351257
      40A     -0.330835

  @DF-RHF Final Energy:  -512.54911869678187

   => Energetics <=

    Nuclear Repulsion Energy =            587.6451252644711758
    One-Electron Energy =               -1864.2858853961081422
    Two-Electron Energy =                 764.0916414348549779
    Total Energy =                       -512.5491186967818749
  Basis Set: (AUG-CC-PVTZ AUX)
    Blend: AUG-CC-PVTZ-RI
    Molecular point group: c1

    Geometry (in Angstrom), charge = 0, multiplicity = 1:

       Center              X                  Y                   Z               Mass
    ------------   -----------------  -----------------  -----------------  -----------------
         O           -0.484098964586     2.143724490802    -0.321212417647    15.994914619570
         O            1.758219035414     0.862867490802     1.139193582353    15.994914619570
         N            2.098940035414    -0.691738509198    -0.505928417647    14.003074004430
         C           -0.160446964586    -0.164901509198     0.109773582353    12.000000000000
         C           -1.035875964586     0.901695490802    -0.150191417647    12.000000000000
         C           -0.680818964586    -1.456843509198     0.244052582353    12.000000000000
         C            1.306894035414     0.083432490802     0.299293582353    12.000000000000
         C           -2.408074964586     0.664799490802    -0.267024417647    12.000000000000
         C           -2.052348964586    -1.694263509198     0.136934582353    12.000000000000
         C           -2.883172364586    -0.665764809198    -0.107794017647    12.000000000000
         C            3.541566035414    -0.525338509198    -0.497369417647    12.000000000000
         H            0.002435035414    -2.275267509198     0.460573582353     1.007825032230
         H           -3.083067964586     1.494042490802    -0.476590417647     1.007825032230
         H           -2.444150964586    -2.700560509198     0.257493582353     1.007825032230
         H           -3.984912964586    -0.794799509198    -0.203381417647     1.007825032230
         H            1.662037035414    -1.129771509198    -1.306477417647     1.007825032230
         H            3.862160035414     0.330629490802    -1.101280417647     1.007825032230
         H            4.010199035414    -1.434200509198    -0.879228417647     1.007825032230
         H            3.856800035414    -0.356092509198     0.531812582353     1.007825032230
         H           -1.206150964586     2.780485490802    -0.469076417647     1.007825032230

  Basis Set: AUG-CC-PVTZ
    Blend: AUG-CC-PVTZ
  Basis Set: (AUG-CC-PVTZ AUX)
    Blend: AUG-CC-PVTZ-JKFIT
	 Reference Energy          =    -512.5491186967818749 [Eh]
	 Singles Energy            =      -0.0000000000000000 [Eh]
	 Same-Spin Energy          =      -0.5369450127277867 [Eh]
	 Opposite-Spin Energy      =      -1.6459999235208849 [Eh]
	 Correlation Energy        =      -2.1829449362486715 [Eh]
	 Total Energy              =    -514.7320636330305206 [Eh]

	 ================> DF-SCS-MP2 Energies <==================
	-----------------------------------------------------------
	 SCS Same-Spin Scale       =       0.3333333333333333 [-]
	 SCS Opposite-Spin Scale   =       1.2000000000000000 [-]
	 SCS Same-Spin Energy      =      -0.1789816709092622 [Eh]
	 SCS Opposite-Spin Energy  =      -1.9751999082250618 [Eh]
	 SCS Correlation Energy    =      -2.1541815791343240 [Eh]
	 SCS Total Energy          =    -514.7033002759161491 [Eh]
	-----------------------------------------------------------

  Dipole Moment: [D]
     X:    -1.6779      Y:    -1.5948      Z:    -2.9691     Total:     3.7649

*** Psi4 exiting successfully. Buy a developer a beer!
