                               Psi4 1.4a3.dev225

  ==> Input File <==

--------------------------------------------------------------------------
#psi4
#
memory 32 gb

molecule  {
0 1
  O       -0.4983720     2.1660820    -0.3008080
  O        1.7439460     0.8852250     1.1595980
  N        2.0846670    -0.6693810    -0.4855240
  C       -0.1747200    -0.1425440     0.1301780
  C       -1.0501490     0.9240530    -0.1297870
  C       -0.6950920    -1.4344860     0.2644570
  C        1.2926210     0.1057900     0.3196980
  C       -2.4223480     0.6871570    -0.2466200
  C       -2.0666220    -1.6719060     0.1573390
  C       -2.9283400    -0.6051620    -0.0964900
  C        3.5272930    -0.5029810    -0.4769650
  H       -0.0243989    -2.2378641     0.4769975
  H       -3.0973410     1.5164000    -0.4561860
  H       -2.4584240    -2.6782030     0.2778980
  H       -3.9991860    -0.7724420    -0.1829770
  H        1.6477640    -1.1074140    -1.2860730
  H        3.8478870     0.3529870    -1.0808760
  H        3.9959260    -1.4118430    -0.8588240
  H        3.8425270    -0.3337350     0.5522170
  H       -1.2204240     2.8028430    -0.4486720
units angstrom
no_reorient  #important for SAPT in psi4, default
symmetry c1  #important for SAPT in psi4, default
}

set PROPERTIES_ORIGIN ["COM"]
properties('MP2/aug-cc-pvtz', properties = ['dipole'])
--------------------------------------------------------------------------

    Molecular point group: c1
  Charge       = 0
  Multiplicity = 1
  Basis Set: AUG-CC-PVTZ
    Blend: AUG-CC-PVTZ
  Basis Set: (AUG-CC-PVTZ AUX)
    Blend: AUG-CC-PVTZ-JKFIT

    Orbital Energies [Eh]
    ---------------------

    Doubly Occupied:

       1A    -20.597652     2A    -20.513122     3A    -15.583986
       4A    -11.350040     5A    -11.320267     6A    -11.256626
       7A    -11.256008     8A    -11.255074     9A    -11.249318
      10A    -11.246497    11A    -11.240254    12A     -1.409869
      13A     -1.367054    14A     -1.225391    15A     -1.160077
      16A     -1.046903    17A     -1.018010    18A     -0.950319
      19A     -0.866056    20A     -0.844396    21A     -0.783162
      22A     -0.743525    23A     -0.723834    24A     -0.675303
      25A     -0.648316    26A     -0.636115    27A     -0.620464
      28A     -0.613391    29A     -0.595667    30A     -0.586485
      31A     -0.575267    32A     -0.545252    33A     -0.536157
      34A     -0.522866    35A     -0.511619    36A     -0.489679
      37A     -0.421490    38A     -0.388901    39A     -0.354265
      40A     -0.326041

  @DF-RHF Final Energy:  -512.55224254326595

   => Energetics <=

    Nuclear Repulsion Energy =            587.2646112793250950
    One-Electron Energy =               -1863.5242717147430085
    Two-Electron Energy =                 763.7074178921520797
    Total Energy =                       -512.5522425432659475
  Basis Set: (AUG-CC-PVTZ AUX)
    Blend: AUG-CC-PVTZ-RI
    Molecular point group: c1

    Geometry (in Angstrom), charge = 0, multiplicity = 1:

       Center              X                  Y                   Z               Mass
    ------------   -----------------  -----------------  -----------------  -----------------
         O           -0.481560993305     2.140586024046    -0.320462954170    15.994914619570
         O            1.760757006695     0.859729024046     1.139943045830    15.994914619570
         N            2.101478006695    -0.694876975954    -0.505178954170    14.003074004430
         C           -0.157908993305    -0.168039975954     0.110523045830    12.000000000000
         C           -1.033337993305     0.898557024046    -0.149441954170    12.000000000000
         C           -0.678280993305    -1.459981975954     0.244802045830    12.000000000000
         C            1.309432006695     0.080294024046     0.300043045830    12.000000000000
         C           -2.405536993305     0.661661024046    -0.266274954170    12.000000000000
         C           -2.049810993305    -1.697401975954     0.137684045830    12.000000000000
         C           -2.911528993305    -0.630657975954    -0.116144954170    12.000000000000
         C            3.544104006695    -0.528476975954    -0.496619954170    12.000000000000
         H           -0.007587893305    -2.263360075954     0.457342545830     1.007825032230
         H           -3.080529993305     1.490904024046    -0.475840954170     1.007825032230
         H           -2.441612993305    -2.703698975954     0.258243045830     1.007825032230
         H           -3.982374993305    -0.797937975954    -0.202631954170     1.007825032230
         H            1.664575006695    -1.132909975954    -1.305727954170     1.007825032230
         H            3.864698006695     0.327491024046    -1.100530954170     1.007825032230
         H            4.012737006695    -1.437338975954    -0.878478954170     1.007825032230
         H            3.859338006695    -0.359230975954     0.532562045830     1.007825032230
         H           -1.203612993305     2.777347024046    -0.468326954170     1.007825032230

  Basis Set: AUG-CC-PVTZ
    Blend: AUG-CC-PVTZ
  Basis Set: (AUG-CC-PVTZ AUX)
    Blend: AUG-CC-PVTZ-JKFIT
	 Reference Energy          =    -512.5522425432659475 [Eh]
	 Singles Energy            =      -0.0000000000000000 [Eh]
	 Same-Spin Energy          =      -0.5369985935055764 [Eh]
	 Opposite-Spin Energy      =      -1.6459201959299874 [Eh]
	 Correlation Energy        =      -2.1829187894355639 [Eh]
	 Total Energy              =    -514.7351613327015230 [Eh]

	 ================> DF-SCS-MP2 Energies <==================
	-----------------------------------------------------------
	 SCS Same-Spin Scale       =       0.3333333333333333 [-]
	 SCS Opposite-Spin Scale   =       1.2000000000000000 [-]
	 SCS Same-Spin Energy      =      -0.1789995311685255 [Eh]
	 SCS Opposite-Spin Energy  =      -1.9751042351159849 [Eh]
	 SCS Correlation Energy    =      -2.1541037662845102 [Eh]
	 SCS Total Energy          =    -514.7063463095504403 [Eh]
	-----------------------------------------------------------

  Dipole Moment: [D]
     X:    -1.7058      Y:    -1.5836      Z:    -2.9733     Total:     3.7760

*** Psi4 exiting successfully. Buy a developer a beer!
