                               Psi4 1.4a3.dev225

  ==> Input File <==

--------------------------------------------------------------------------
#psi4
#
memory 32 gb

molecule  {
0 1
  O       -0.4983720     2.1660820    -0.3008080
  O        1.7439460     0.8852250     1.1595980
  N        2.0846670    -0.6693810    -0.4855240
  C       -0.1747200    -0.1425440     0.1301780
  C       -1.0501490     0.9240530    -0.1297870
  C       -0.6950920    -1.4344860     0.2644570
  C        1.2733158     0.0945580     0.3111665
  C       -2.4223480     0.6871570    -0.2466200
  C       -2.0666220    -1.6719060     0.1573390
  C       -2.9283400    -0.6051620    -0.0964900
  C        3.5272930    -0.5029810    -0.4769650
  H       -0.0118380    -2.2529100     0.4809780
  H       -3.0973410     1.5164000    -0.4561860
  H       -2.4584240    -2.6782030     0.2778980
  H       -3.9991860    -0.7724420    -0.1829770
  H        1.6477640    -1.1074140    -1.2860730
  H        3.8478870     0.3529870    -1.0808760
  H        3.9959260    -1.4118430    -0.8588240
  H        3.8425270    -0.3337350     0.5522170
  H       -1.2204240     2.8028430    -0.4486720
units angstrom
no_reorient  #important for SAPT in psi4, default
symmetry c1  #important for SAPT in psi4, default
}

set PROPERTIES_ORIGIN ["COM"]
properties('MP2/aug-cc-pvtz', properties = ['dipole'])
--------------------------------------------------------------------------

    Molecular point group: c1
  Charge       = 0
  Multiplicity = 1
  Basis Set: AUG-CC-PVTZ
    Blend: AUG-CC-PVTZ
  Basis Set: (AUG-CC-PVTZ AUX)
    Blend: AUG-CC-PVTZ-JKFIT

    Orbital Energies [Eh]
    ---------------------

    Doubly Occupied:

       1A    -20.598446     2A    -20.509777     3A    -15.585028
       4A    -11.350447     5A    -11.322152     6A    -11.258926
       7A    -11.258207     8A    -11.256309     9A    -11.250067
      10A    -11.247607    11A    -11.241438    12A     -1.410573
      13A     -1.355082    14A     -1.222739    15A     -1.161765
      16A     -1.050139    17A     -1.019047    18A     -0.951420
      19A     -0.867712    20A     -0.846742    21A     -0.782317
      22A     -0.743198    23A     -0.725042    24A     -0.676109
      25A     -0.649607    26A     -0.633964    27A     -0.618531
      28A     -0.612379    29A     -0.595722    30A     -0.587049
      31A     -0.574706    32A     -0.543750    33A     -0.535340
      34A     -0.521132    35A     -0.509597    36A     -0.489527
      37A     -0.420551    38A     -0.386445    39A     -0.355476
      40A     -0.327248

  @DF-RHF Final Energy:  -512.54925400180036

   => Energetics <=

    Nuclear Repulsion Energy =            587.2012518936965080
    One-Electron Energy =               -1863.3983814388320752
    Two-Electron Energy =                 763.6478755433352035
    Total Energy =                       -512.5492540018003638
  Basis Set: (AUG-CC-PVTZ AUX)
    Blend: AUG-CC-PVTZ-RI
    Molecular point group: c1

    Geometry (in Angstrom), charge = 0, multiplicity = 1:

       Center              X                  Y                   Z               Mass
    ------------   -----------------  -----------------  -----------------  -----------------
         O           -0.480111248932     2.141578638442    -0.319811794464    15.994914619570
         O            1.762206751068     0.860721638442     1.140594205536    15.994914619570
         N            2.102927751068    -0.693884361558    -0.504527794464    14.003074004430
         C           -0.156459248932    -0.167047361558     0.111174205536    12.000000000000
         C           -1.031888248932     0.899549638442    -0.148790794464    12.000000000000
         C           -0.676831248932    -1.458989361558     0.245453205536    12.000000000000
         C            1.291576551068     0.070054638442     0.292162705536    12.000000000000
         C           -2.404087248932     0.662653638442    -0.265623794464    12.000000000000
         C           -2.048361248932    -1.696409361558     0.138335205536    12.000000000000
         C           -2.910079248932    -0.629665361558    -0.115493794464    12.000000000000
         C            3.545553751068    -0.527484361558    -0.495968794464    12.000000000000
         H            0.006422751068    -2.277413361558     0.461974205536     1.007825032230
         H           -3.079080248932     1.491896638442    -0.475189794464     1.007825032230
         H           -2.440163248932    -2.702706361558     0.258894205536     1.007825032230
         H           -3.980925248932    -0.796945361558    -0.201980794464     1.007825032230
         H            1.666024751068    -1.131917361558    -1.305076794464     1.007825032230
         H            3.866147751068     0.328483638442    -1.099879794464     1.007825032230
         H            4.014186751068    -1.436346361558    -0.877827794464     1.007825032230
         H            3.860787751068    -0.358238361558     0.533213205536     1.007825032230
         H           -1.202163248932     2.778339638442    -0.467675794464     1.007825032230

  Basis Set: AUG-CC-PVTZ
    Blend: AUG-CC-PVTZ
  Basis Set: (AUG-CC-PVTZ AUX)
    Blend: AUG-CC-PVTZ-JKFIT
	 Reference Energy          =    -512.5492540018003638 [Eh]
	 Singles Energy            =      -0.0000000000000000 [Eh]
	 Same-Spin Energy          =      -0.5376389355972800 [Eh]
	 Opposite-Spin Energy      =      -1.6472317289030503 [Eh]
	 Correlation Energy        =      -2.1848706645003304 [Eh]
	 Total Energy              =    -514.7341246663006586 [Eh]

	 ================> DF-SCS-MP2 Energies <==================
	-----------------------------------------------------------
	 SCS Same-Spin Scale       =       0.3333333333333333 [-]
	 SCS Opposite-Spin Scale   =       1.2000000000000000 [-]
	 SCS Same-Spin Energy      =      -0.1792129785324267 [Eh]
	 SCS Opposite-Spin Energy  =      -1.9766780746836603 [Eh]
	 SCS Correlation Energy    =      -2.1558910532160871 [Eh]
	 SCS Total Energy          =    -514.7051450550164873 [Eh]
	-----------------------------------------------------------

  Dipole Moment: [D]
     X:    -1.8189      Y:    -1.6393      Z:    -3.0408     Total:     3.9041

*** Psi4 exiting successfully. Buy a developer a beer!
