                               Psi4 1.4a3.dev225

  ==> Input File <==

--------------------------------------------------------------------------
#psi4
#
memory 32 gb

molecule  {
0 1
  O       -0.4983720     2.1660820    -0.3008080
  O        1.7439460     0.8852250     1.1595980
  N        2.0846670    -0.6693810    -0.4855240
  C       -0.1747200    -0.1425440     0.1301780
  C       -1.0501490     0.9240530    -0.1297870
  C       -0.6950920    -1.4344860     0.2644570
  C        1.2926210     0.1057900     0.3196980
  C       -2.4223480     0.6871570    -0.2466200
  C       -2.0666220    -1.6719060     0.1573390
  C       -2.9283400    -0.6051620    -0.0964900
  C        3.5272930    -0.5029810    -0.4769650
  H       -0.0118380    -2.2529100     0.4809780
  H       -3.0973410     1.5164000    -0.4561860
  H       -2.4584240    -2.6782030     0.2778980
  H       -3.9991860    -0.7724420    -0.1829770
  H        1.6477640    -1.1074140    -1.2860730
  H        3.8371659     0.3644748    -1.0699823
  H        3.9959260    -1.4118430    -0.8588240
  H        3.8425270    -0.3337350     0.5522170
  H       -1.2204240     2.8028430    -0.4486720
units angstrom
no_reorient  #important for SAPT in psi4, default
symmetry c1  #important for SAPT in psi4, default
}

set PROPERTIES_ORIGIN ["COM"]
properties('MP2/aug-cc-pvtz', properties = ['dipole'])
--------------------------------------------------------------------------

    Molecular point group: c1
  Charge       = 0
  Multiplicity = 1
  Basis Set: AUG-CC-PVTZ
    Blend: AUG-CC-PVTZ
  Basis Set: (AUG-CC-PVTZ AUX)
    Blend: AUG-CC-PVTZ-JKFIT

    Orbital Energies [Eh]
    ---------------------

    Doubly Occupied:

       1A    -20.597717     2A    -20.513102     3A    -15.583732
       4A    -11.349973     5A    -11.320364     6A    -11.257309
       7A    -11.256721     8A    -11.255960     9A    -11.249463
      10A    -11.246529    11A    -11.240382    12A     -1.409930
      13A     -1.367022    14A     -1.225312    15A     -1.159996
      16A     -1.046699    17A     -1.017656    18A     -0.950199
      19A     -0.865143    20A     -0.844188    21A     -0.783148
      22A     -0.742205    23A     -0.723492    24A     -0.675164
      25A     -0.648063    26A     -0.636125    27A     -0.619278
      28A     -0.612741    29A     -0.595816    30A     -0.586325
      31A     -0.575207    32A     -0.545387    33A     -0.535773
      34A     -0.522624    35A     -0.510970    36A     -0.489758
      37A     -0.421444    38A     -0.388739    39A     -0.354312
      40A     -0.326114

  @DF-RHF Final Energy:  -512.55204382981947

   => Energetics <=

    Nuclear Repulsion Energy =            587.1905722285603133
    One-Electron Energy =               -1863.3850652853702741
    Two-Electron Energy =                 763.6424492269904931
    Total Energy =                       -512.5520438298194676
  Basis Set: (AUG-CC-PVTZ AUX)
    Blend: AUG-CC-PVTZ-RI
    Molecular point group: c1

    Geometry (in Angstrom), charge = 0, multiplicity = 1:

       Center              X                  Y                   Z               Mass
    ------------   -----------------  -----------------  -----------------  -----------------
         O           -0.481573267604     2.140609762052    -0.320562187989    15.994914619570
         O            1.760744732396     0.859752762052     1.139843812011    15.994914619570
         N            2.101465732396    -0.694853237948    -0.505278187989    14.003074004430
         C           -0.157921267604    -0.168016237948     0.110423812011    12.000000000000
         C           -1.033350267604     0.898580762052    -0.149541187989    12.000000000000
         C           -0.678293267604    -1.459958237948     0.244702812011    12.000000000000
         C            1.309419732396     0.080317762052     0.299943812011    12.000000000000
         C           -2.405549267604     0.661684762052    -0.266374187989    12.000000000000
         C           -2.049823267604    -1.697378237948     0.137584812011    12.000000000000
         C           -2.911541267604    -0.630634237948    -0.116244187989    12.000000000000
         C            3.544091732396    -0.528453237948    -0.496719187989    12.000000000000
         H            0.004960732396    -2.278382237948     0.461223812011     1.007825032230
         H           -3.080542267604     1.490927762052    -0.475940187989     1.007825032230
         H           -2.441625267604    -2.703675237948     0.258143812011     1.007825032230
         H           -3.982387267604    -0.797914237948    -0.202731187989     1.007825032230
         H            1.664562732396    -1.132886237948    -1.305827187989     1.007825032230
         H            3.853964632396     0.339002562052    -1.089736487989     1.007825032230
         H            4.012724732396    -1.437315237948    -0.878578187989     1.007825032230
         H            3.859325732396    -0.359207237948     0.532462812011     1.007825032230
         H           -1.203625267604     2.777370762052    -0.468426187989     1.007825032230

  Basis Set: AUG-CC-PVTZ
    Blend: AUG-CC-PVTZ
  Basis Set: (AUG-CC-PVTZ AUX)
    Blend: AUG-CC-PVTZ-JKFIT
	 Reference Energy          =    -512.5520438298194676 [Eh]
	 Singles Energy            =      -0.0000000000000000 [Eh]
	 Same-Spin Energy          =      -0.5370615341408517 [Eh]
	 Opposite-Spin Energy      =      -1.6460799214646418 [Eh]
	 Correlation Energy        =      -2.1831414556054933 [Eh]
	 Total Energy              =    -514.7351852854249046 [Eh]

	 ================> DF-SCS-MP2 Energies <==================
	-----------------------------------------------------------
	 SCS Same-Spin Scale       =       0.3333333333333333 [-]
	 SCS Opposite-Spin Scale   =       1.2000000000000000 [-]
	 SCS Same-Spin Energy      =      -0.1790205113802839 [Eh]
	 SCS Opposite-Spin Energy  =      -1.9752959057575701 [Eh]
	 SCS Correlation Energy    =      -2.1543164171378542 [Eh]
	 SCS Total Energy          =    -514.7063602469572743 [Eh]
	-----------------------------------------------------------

  Dipole Moment: [D]
     X:    -1.7068      Y:    -1.5801      Z:    -2.9705     Total:     3.7728

*** Psi4 exiting successfully. Buy a developer a beer!
