                               Psi4 1.4a3.dev225

  ==> Input File <==

--------------------------------------------------------------------------
#psi4
#
memory 32 gb

molecule  {
0 1
  O       -0.4983720     2.1660820    -0.3008080
  O        1.7439460     0.8852250     1.1595980
  N        2.0846670    -0.6693810    -0.4855240
  C       -0.1747200    -0.1425440     0.1301780
  C       -1.0501490     0.9240530    -0.1297870
  C       -0.7173697    -1.4257979     0.2594945
  C        1.2926210     0.1057900     0.3196980
  C       -2.4223480     0.6871570    -0.2466200
  C       -2.0666220    -1.6719060     0.1573390
  C       -2.9283400    -0.6051620    -0.0964900
  C        3.5272930    -0.5029810    -0.4769650
  H       -0.0118380    -2.2529100     0.4809780
  H       -3.0973410     1.5164000    -0.4561860
  H       -2.4584240    -2.6782030     0.2778980
  H       -3.9991860    -0.7724420    -0.1829770
  H        1.6477640    -1.1074140    -1.2860730
  H        3.8478870     0.3529870    -1.0808760
  H        3.9959260    -1.4118430    -0.8588240
  H        3.8425270    -0.3337350     0.5522170
  H       -1.2204240     2.8028430    -0.4486720
units angstrom
no_reorient  #important for SAPT in psi4, default
symmetry c1  #important for SAPT in psi4, default
}

set PROPERTIES_ORIGIN ["COM"]
properties('MP2/aug-cc-pvtz', properties = ['dipole'])
--------------------------------------------------------------------------

    Molecular point group: c1
  Charge       = 0
  Multiplicity = 1
  Basis Set: AUG-CC-PVTZ
    Blend: AUG-CC-PVTZ
  Basis Set: (AUG-CC-PVTZ AUX)
    Blend: AUG-CC-PVTZ-JKFIT

    Orbital Energies [Eh]
    ---------------------

    Doubly Occupied:

       1A    -20.597666     2A    -20.513346     3A    -15.583962
       4A    -11.350509     5A    -11.320285     6A    -11.257060
       7A    -11.256512     8A    -11.255976     9A    -11.248746
      10A    -11.246433    11A    -11.238089    12A     -1.409900
      13A     -1.367177    14A     -1.225337    15A     -1.162182
      16A     -1.046015    17A     -1.020041    18A     -0.950425
      19A     -0.864670    20A     -0.843971    21A     -0.783704
      22A     -0.741158    23A     -0.723485    24A     -0.676826
      25A     -0.648641    26A     -0.636160    27A     -0.617902
      28A     -0.609981    29A     -0.595790    30A     -0.586994
      31A     -0.575968    32A     -0.545226    33A     -0.535377
      34A     -0.523175    35A     -0.508334    36A     -0.491494
      37A     -0.422134    38A     -0.388839    39A     -0.354232
      40A     -0.327502

  @DF-RHF Final Energy:  -512.55150307410634

   => Energetics <=

    Nuclear Repulsion Energy =            587.3879036485293454
    One-Electron Energy =               -1863.7763693622682695
    Two-Electron Energy =                 763.8369626396325884
    Total Energy =                       -512.5515030741063356
  Basis Set: (AUG-CC-PVTZ AUX)
    Blend: AUG-CC-PVTZ-RI
    Molecular point group: c1

    Geometry (in Angstrom), charge = 0, multiplicity = 1:

       Center              X                  Y                   Z               Mass
    ------------   -----------------  -----------------  -----------------  -----------------
         O           -0.479875122796     2.139996247783    -0.320095304701    15.994914619570
         O            1.762442877204     0.859139247783     1.140310695299    15.994914619570
         N            2.103163877204    -0.695466752217    -0.504811304701    14.003074004430
         C           -0.156223122796    -0.168629752217     0.110890695299    12.000000000000
         C           -1.031652122796     0.897967247783    -0.149074304701    12.000000000000
         C           -0.698872822796    -1.451883652217     0.240207195299    12.000000000000
         C            1.311117877204     0.079704247783     0.300410695299    12.000000000000
         C           -2.403851122796     0.661071247783    -0.265907304701    12.000000000000
         C           -2.048125122796    -1.697991752217     0.138051695299    12.000000000000
         C           -2.909843122796    -0.631247752217    -0.115777304701    12.000000000000
         C            3.545789877204    -0.529066752217    -0.496252304701    12.000000000000
         H            0.006658877204    -2.278995752217     0.461690695299     1.007825032230
         H           -3.078844122796     1.490314247783    -0.475473304701     1.007825032230
         H           -2.439927122796    -2.704288752217     0.258610695299     1.007825032230
         H           -3.980689122796    -0.798527752217    -0.202264304701     1.007825032230
         H            1.666260877204    -1.133499752217    -1.305360304701     1.007825032230
         H            3.866383877204     0.326901247783    -1.100163304701     1.007825032230
         H            4.014422877204    -1.437928752217    -0.878111304701     1.007825032230
         H            3.861023877204    -0.359820752217     0.532929695299     1.007825032230
         H           -1.201927122796     2.776757247783    -0.467959304701     1.007825032230

  Basis Set: AUG-CC-PVTZ
    Blend: AUG-CC-PVTZ
  Basis Set: (AUG-CC-PVTZ AUX)
    Blend: AUG-CC-PVTZ-JKFIT
	 Reference Energy          =    -512.5515030741063356 [Eh]
	 Singles Energy            =      -0.0000000000000000 [Eh]
	 Same-Spin Energy          =      -0.5370741476817436 [Eh]
	 Opposite-Spin Energy      =      -1.6460021876669111 [Eh]
	 Correlation Energy        =      -2.1830763353486544 [Eh]
	 Total Energy              =    -514.7345794094550229 [Eh]

	 ================> DF-SCS-MP2 Energies <==================
	-----------------------------------------------------------
	 SCS Same-Spin Scale       =       0.3333333333333333 [-]
	 SCS Opposite-Spin Scale   =       1.2000000000000000 [-]
	 SCS Same-Spin Energy      =      -0.1790247158939145 [Eh]
	 SCS Opposite-Spin Energy  =      -1.9752026252002932 [Eh]
	 SCS Correlation Energy    =      -2.1542273410942077 [Eh]
	 SCS Total Energy          =    -514.7057304152004917 [Eh]
	-----------------------------------------------------------

  Dipole Moment: [D]
     X:    -1.7099      Y:    -1.5754      Z:    -2.9758     Total:     3.7764

*** Psi4 exiting successfully. Buy a developer a beer!
