                               Psi4 1.4a3.dev225

  ==> Input File <==

--------------------------------------------------------------------------
#psi4
#
memory 32 gb

molecule  {
0 1
  O       -0.4983720     2.1660820    -0.3008080
  O        1.7439460     0.8852250     1.1595980
  N        2.0846670    -0.6693810    -0.4855240
  C       -0.1747200    -0.1425440     0.1301780
  C       -1.0189757     0.8860723    -0.1205299
  C       -0.6950920    -1.4344860     0.2644570
  C        1.2926210     0.1057900     0.3196980
  C       -2.4223480     0.6871570    -0.2466200
  C       -2.0666220    -1.6719060     0.1573390
  C       -2.9283400    -0.6051620    -0.0964900
  C        3.5272930    -0.5029810    -0.4769650
  H       -0.0118380    -2.2529100     0.4809780
  H       -3.0973410     1.5164000    -0.4561860
  H       -2.4584240    -2.6782030     0.2778980
  H       -3.9991860    -0.7724420    -0.1829770
  H        1.6477640    -1.1074140    -1.2860730
  H        3.8478870     0.3529870    -1.0808760
  H        3.9959260    -1.4118430    -0.8588240
  H        3.8425270    -0.3337350     0.5522170
  H       -1.2204240     2.8028430    -0.4486720
units angstrom
no_reorient  #important for SAPT in psi4, default
symmetry c1  #important for SAPT in psi4, default
}

set PROPERTIES_ORIGIN ["COM"]
properties('MP2/aug-cc-pvtz', properties = ['dipole'])
--------------------------------------------------------------------------

    Molecular point group: c1
  Charge       = 0
  Multiplicity = 1
  Basis Set: AUG-CC-PVTZ
    Blend: AUG-CC-PVTZ
  Basis Set: (AUG-CC-PVTZ AUX)
    Blend: AUG-CC-PVTZ-JKFIT

    Orbital Energies [Eh]
    ---------------------

    Doubly Occupied:

       1A    -20.591372     2A    -20.513882     3A    -15.584614
       4A    -11.350872     5A    -11.317992     6A    -11.258479
       7A    -11.256858     8A    -11.256407     9A    -11.250671
      10A    -11.245586    11A    -11.241907    12A     -1.396314
      13A     -1.367257    14A     -1.226126    15A     -1.163999
      16A     -1.051460    17A     -1.016614    18A     -0.951780
      19A     -0.865907    20A     -0.843523    21A     -0.783522
      22A     -0.742812    23A     -0.719204    24A     -0.672764
      25A     -0.654016    26A     -0.637449    27A     -0.619492
      28A     -0.611788    29A     -0.590207    30A     -0.585205
      31A     -0.572504    32A     -0.545694    33A     -0.534470
      34A     -0.519913    35A     -0.515412    36A     -0.490180
      37A     -0.421891    38A     -0.389389    39A     -0.356003
      40A     -0.329423

  @DF-RHF Final Energy:  -512.54898104088625

   => Energetics <=

    Nuclear Repulsion Energy =            587.6102213721666203
    One-Electron Energy =               -1864.2324908588063863
    Two-Electron Energy =                 764.0732884457534055
    Total Energy =                       -512.5489810408862468
  Basis Set: (AUG-CC-PVTZ AUX)
    Blend: AUG-CC-PVTZ-RI
    Molecular point group: c1

    Geometry (in Angstrom), charge = 0, multiplicity = 1:

       Center              X                  Y                   Z               Mass
    ------------   -----------------  -----------------  -----------------  -----------------
         O           -0.484121103646     2.143703471802    -0.321224865407    15.994914619570
         O            1.758196896354     0.862846471802     1.139181134593    15.994914619570
         N            2.098917896354    -0.691759528198    -0.505940865407    14.003074004430
         C           -0.160469103646    -0.164922528198     0.109761134593    12.000000000000
         C           -1.004724803646     0.863693771802    -0.140946765407    12.000000000000
         C           -0.680841103646    -1.456864528198     0.244040134593    12.000000000000
         C            1.306871896354     0.083411471802     0.299281134593    12.000000000000
         C           -2.408097103646     0.664778471802    -0.267036865407    12.000000000000
         C           -2.052371103646    -1.694284528198     0.136922134593    12.000000000000
         C           -2.914089103646    -0.627540528198    -0.116906865407    12.000000000000
         C            3.541543896354    -0.525359528198    -0.497381865407    12.000000000000
         H            0.002412896354    -2.275288528198     0.460561134593     1.007825032230
         H           -3.083090103646     1.494021471802    -0.476602865407     1.007825032230
         H           -2.444173103646    -2.700581528198     0.257481134593     1.007825032230
         H           -3.984935103646    -0.794820528198    -0.203393865407     1.007825032230
         H            1.662014896354    -1.129792528198    -1.306489865407     1.007825032230
         H            3.862137896354     0.330608471802    -1.101292865407     1.007825032230
         H            4.010176896354    -1.434221528198    -0.879240865407     1.007825032230
         H            3.856777896354    -0.356113528198     0.531800134593     1.007825032230
         H           -1.206173103646     2.780464471802    -0.469088865407     1.007825032230

  Basis Set: AUG-CC-PVTZ
    Blend: AUG-CC-PVTZ
  Basis Set: (AUG-CC-PVTZ AUX)
    Blend: AUG-CC-PVTZ-JKFIT
	 Reference Energy          =    -512.5489810408862468 [Eh]
	 Singles Energy            =      -0.0000000000000000 [Eh]
	 Same-Spin Energy          =      -0.5368870888706110 [Eh]
	 Opposite-Spin Energy      =      -1.6461705227176899 [Eh]
	 Correlation Energy        =      -2.1830576115883007 [Eh]
	 Total Energy              =    -514.7320386524745572 [Eh]

	 ================> DF-SCS-MP2 Energies <==================
	-----------------------------------------------------------
	 SCS Same-Spin Scale       =       0.3333333333333333 [-]
	 SCS Opposite-Spin Scale   =       1.2000000000000000 [-]
	 SCS Same-Spin Energy      =      -0.1789623629568703 [Eh]
	 SCS Opposite-Spin Energy  =      -1.9754046272612278 [Eh]
	 SCS Correlation Energy    =      -2.1543669902180982 [Eh]
	 SCS Total Energy          =    -514.7033480311043832 [Eh]
	-----------------------------------------------------------

  Dipole Moment: [D]
     X:    -1.7418      Y:    -1.7453      Z:    -2.9463     Total:     3.8420

*** Psi4 exiting successfully. Buy a developer a beer!
