                               Psi4 1.4a3.dev225

  ==> Input File <==

--------------------------------------------------------------------------
#psi4
#
memory 32 gb

molecule  {
0 1
  O       -0.4983720     2.1660820    -0.3008080
  O        1.7439460     0.8852250     1.1595980
  N        2.0846670    -0.6693810    -0.4855240
  C       -0.1747200    -0.1425440     0.1301780
  C       -1.1124956     1.0000143    -0.1483013
  C       -0.6950920    -1.4344860     0.2644570
  C        1.2926210     0.1057900     0.3196980
  C       -2.4223480     0.6871570    -0.2466200
  C       -2.0666220    -1.6719060     0.1573390
  C       -2.9283400    -0.6051620    -0.0964900
  C        3.5272930    -0.5029810    -0.4769650
  H       -0.0118380    -2.2529100     0.4809780
  H       -3.0973410     1.5164000    -0.4561860
  H       -2.4584240    -2.6782030     0.2778980
  H       -3.9991860    -0.7724420    -0.1829770
  H        1.6477640    -1.1074140    -1.2860730
  H        3.8478870     0.3529870    -1.0808760
  H        3.9959260    -1.4118430    -0.8588240
  H        3.8425270    -0.3337350     0.5522170
  H       -1.2204240     2.8028430    -0.4486720
units angstrom
no_reorient  #important for SAPT in psi4, default
symmetry c1  #important for SAPT in psi4, default
}

set PROPERTIES_ORIGIN ["COM"]
properties('MP2/aug-cc-pvtz', properties = ['dipole'])
--------------------------------------------------------------------------

    Molecular point group: c1
  Charge       = 0
  Multiplicity = 1
  Basis Set: AUG-CC-PVTZ
    Blend: AUG-CC-PVTZ
  Basis Set: (AUG-CC-PVTZ AUX)
    Blend: AUG-CC-PVTZ-JKFIT

    Orbital Energies [Eh]
    ---------------------

    Doubly Occupied:

       1A    -20.609970     2A    -20.511889     3A    -15.582736
       4A    -11.348713     5A    -11.324151     6A    -11.256330
       7A    -11.255759     8A    -11.255269     9A    -11.254377
      10A    -11.238706    11A    -11.238233    12A     -1.437867
      13A     -1.366208    14A     -1.224029    15A     -1.154247
      16A     -1.042762    17A     -1.017111    18A     -0.947565
      19A     -0.865643    20A     -0.844873    21A     -0.782800
      22A     -0.743214    23A     -0.728024    24A     -0.680873
      25A     -0.641062    26A     -0.633499    27A     -0.618169
      28A     -0.615625    29A     -0.610019    30A     -0.586592
      31A     -0.577608    32A     -0.544420    33A     -0.540707
      34A     -0.523066    35A     -0.496685    36A     -0.488480
      37A     -0.420256    38A     -0.387889    39A     -0.356239
      40A     -0.317775

  @DF-RHF Final Energy:  -512.53979551378029

   => Energetics <=

    Nuclear Repulsion Energy =            586.3499367884245430
    One-Electron Energy =               -1861.6405874514387051
    Two-Electron Energy =                 762.7508551492339848
    Total Energy =                       -512.5397955137802910
  Basis Set: (AUG-CC-PVTZ AUX)
    Blend: AUG-CC-PVTZ-RI
    Molecular point group: c1

    Geometry (in Angstrom), charge = 0, multiplicity = 1:

       Center              X                  Y                   Z               Mass
    ------------   -----------------  -----------------  -----------------  -----------------
         O           -0.476692174263     2.134652274445    -0.319018791946    15.994914619570
         O            1.765625825737     0.853795274445     1.141387208054    15.994914619570
         N            2.106346825737    -0.700810725555    -0.503734791946    14.003074004430
         C           -0.153040174263    -0.173973725555     0.111967208054    12.000000000000
         C           -1.090815774263     0.968584574445    -0.166512091946    12.000000000000
         C           -0.673412174263    -1.465915725555     0.246246208054    12.000000000000
         C            1.314300825737     0.074360274445     0.301487208054    12.000000000000
         C           -2.400668174263     0.655727274445    -0.264830791946    12.000000000000
         C           -2.044942174263    -1.703335725555     0.139128208054    12.000000000000
         C           -2.906660174263    -0.636591725555    -0.114700791946    12.000000000000
         C            3.548972825737    -0.534410725555    -0.495175791946    12.000000000000
         H            0.009841825737    -2.284339725555     0.462767208054     1.007825032230
         H           -3.075661174263     1.484970274445    -0.474396791946     1.007825032230
         H           -2.436744174263    -2.709632725555     0.259687208054     1.007825032230
         H           -3.977506174263    -0.803871725555    -0.201187791946     1.007825032230
         H            1.669443825737    -1.138843725555    -1.304283791946     1.007825032230
         H            3.869566825737     0.321557274445    -1.099086791946     1.007825032230
         H            4.017605825737    -1.443272725555    -0.877034791946     1.007825032230
         H            3.864206825737    -0.365164725555     0.534006208054     1.007825032230
         H           -1.198744174263     2.771413274445    -0.466882791946     1.007825032230

  Basis Set: AUG-CC-PVTZ
    Blend: AUG-CC-PVTZ
  Basis Set: (AUG-CC-PVTZ AUX)
    Blend: AUG-CC-PVTZ-JKFIT
	 Reference Energy          =    -512.5397955137802910 [Eh]
	 Singles Energy            =      -0.0000000000000000 [Eh]
	 Same-Spin Energy          =      -0.5371491011417016 [Eh]
	 Opposite-Spin Energy      =      -1.6466683313854937 [Eh]
	 Correlation Energy        =      -2.1838174325271953 [Eh]
	 Total Energy              =    -514.7236129463075258 [Eh]

	 ================> DF-SCS-MP2 Energies <==================
	-----------------------------------------------------------
	 SCS Same-Spin Scale       =       0.3333333333333333 [-]
	 SCS Opposite-Spin Scale   =       1.2000000000000000 [-]
	 SCS Same-Spin Energy      =      -0.1790497003805672 [Eh]
	 SCS Opposite-Spin Energy  =      -1.9760019976625924 [Eh]
	 SCS Correlation Energy    =      -2.1550516980431595 [Eh]
	 SCS Total Energy          =    -514.6948472118234577 [Eh]
	-----------------------------------------------------------

  Dipole Moment: [D]
     X:    -1.6358      Y:    -1.2781      Z:    -3.0237     Total:     3.6677

*** Psi4 exiting successfully. Buy a developer a beer!
