                               Psi4 1.4a3.dev225

  ==> Input File <==

--------------------------------------------------------------------------
#psi4
#
memory 32 gb

molecule  {
0 1
  O       -0.4983720     2.1660820    -0.3008080
  O        1.7439460     0.8852250     1.1595980
  N        2.0846670    -0.6693810    -0.4855240
  C       -0.1747200    -0.1425440     0.1301780
  C       -1.0501490     0.9240530    -0.1297870
  C       -0.6950920    -1.4344860     0.2644570
  C        1.2926210     0.1057900     0.3196980
  C       -2.4223480     0.6871570    -0.2466200
  C       -2.0666220    -1.6719060     0.1573390
  C       -2.9283400    -0.6051620    -0.0964900
  C        3.5272930    -0.5029810    -0.4769650
  H       -0.0118380    -2.2529100     0.4809780
  H       -3.0973410     1.5164000    -0.4561860
  H       -2.4584240    -2.6782030     0.2778980
  H       -3.9991860    -0.7724420    -0.1829770
  H        1.6477640    -1.1074140    -1.2860730
  H        3.8478870     0.3529870    -1.0808760
  H        3.9959260    -1.4118430    -0.8588240
  H        3.8425270    -0.3337350     0.5522170
  H       -1.0721596     2.6720920    -0.4183100
units angstrom
no_reorient  #important for SAPT in psi4, default
symmetry c1  #important for SAPT in psi4, default
}

set PROPERTIES_ORIGIN ["COM"]
properties('MP2/aug-cc-pvtz', properties = ['dipole'])
--------------------------------------------------------------------------

    Molecular point group: c1
  Charge       = 0
  Multiplicity = 1
  Basis Set: AUG-CC-PVTZ
    Blend: AUG-CC-PVTZ
  Basis Set: (AUG-CC-PVTZ AUX)
    Blend: AUG-CC-PVTZ-JKFIT

    Orbital Energies [Eh]
    ---------------------

    Doubly Occupied:

       1A    -20.577458     2A    -20.514009     3A    -15.584754
       4A    -11.350999     5A    -11.322339     6A    -11.258277
       7A    -11.257918     8A    -11.256592     9A    -11.251037
      10A    -11.248536    11A    -11.242108    12A     -1.467991
      13A     -1.368545    14A     -1.226201    15A     -1.164818
      16A     -1.049074    17A     -1.026690    18A     -0.952182
      19A     -0.875723    20A     -0.857379    21A     -0.784657
      22A     -0.766694    23A     -0.728999    24A     -0.678663
      25A     -0.651814    26A     -0.637420    27A     -0.622632
      28A     -0.614108    29A     -0.602420    30A     -0.592742
      31A     -0.580005    32A     -0.545891    33A     -0.537753
      34A     -0.525459    35A     -0.512745    36A     -0.492475
      37A     -0.422596    38A     -0.389614    39A     -0.355389
      40A     -0.329003

  @DF-RHF Final Energy:  -512.50667974036332

   => Energetics <=

    Nuclear Repulsion Energy =            588.7146013276003487
    One-Electron Energy =               -1865.9951453587509604
    Two-Electron Energy =                 764.7738642907872872
    Total Energy =                       -512.5066797403633245
  Basis Set: (AUG-CC-PVTZ AUX)
    Blend: AUG-CC-PVTZ-RI
    Molecular point group: c1

    Geometry (in Angstrom), charge = 0, multiplicity = 1:

       Center              X                  Y                   Z               Mass
    ------------   -----------------  -----------------  -----------------  -----------------
         O           -0.482633945720     2.141558713890    -0.320692071530    15.994914619570
         O            1.759684054280     0.860701713890     1.139713928470    15.994914619570
         N            2.100405054280    -0.693904286110    -0.505408071530    14.003074004430
         C           -0.158981945720    -0.167067286110     0.110293928470    12.000000000000
         C           -1.034410945720     0.899529713890    -0.149671071530    12.000000000000
         C           -0.679353945720    -1.459009286110     0.244572928470    12.000000000000
         C            1.308359054280     0.081266713890     0.299813928470    12.000000000000
         C           -2.406609945720     0.662633713890    -0.266504071530    12.000000000000
         C           -2.050883945720    -1.696429286110     0.137454928470    12.000000000000
         C           -2.912601945720    -0.629685286110    -0.116374071530    12.000000000000
         C            3.543031054280    -0.527504286110    -0.496849071530    12.000000000000
         H            0.003900054280    -2.277433286110     0.461093928470     1.007825032230
         H           -3.081602945720     1.491876713890    -0.476070071530     1.007825032230
         H           -2.442685945720    -2.702726286110     0.258013928470     1.007825032230
         H           -3.983447945720    -0.796965286110    -0.202861071530     1.007825032230
         H            1.663502054280    -1.131937286110    -1.305957071530     1.007825032230
         H            3.863625054280     0.328463713890    -1.100760071530     1.007825032230
         H            4.011664054280    -1.436366286110    -0.878708071530     1.007825032230
         H            3.858265054280    -0.358258286110     0.532332928470     1.007825032230
         H           -1.056421545720     2.647568713890    -0.438194071530     1.007825032230

  Basis Set: AUG-CC-PVTZ
    Blend: AUG-CC-PVTZ
  Basis Set: (AUG-CC-PVTZ AUX)
    Blend: AUG-CC-PVTZ-JKFIT
	 Reference Energy          =    -512.5066797403633245 [Eh]
	 Singles Energy            =      -0.0000000000000000 [Eh]
	 Same-Spin Energy          =      -0.5345536794636506 [Eh]
	 Opposite-Spin Energy      =      -1.6404082886144447 [Eh]
	 Correlation Energy        =      -2.1749619680780952 [Eh]
	 Total Energy              =    -514.6816417084414752 [Eh]

	 ================> DF-SCS-MP2 Energies <==================
	-----------------------------------------------------------
	 SCS Same-Spin Scale       =       0.3333333333333333 [-]
	 SCS Opposite-Spin Scale   =       1.2000000000000000 [-]
	 SCS Same-Spin Energy      =      -0.1781845598212169 [Eh]
	 SCS Opposite-Spin Energy  =      -1.9684899463373335 [Eh]
	 SCS Correlation Energy    =      -2.1466745061585506 [Eh]
	 SCS Total Energy          =    -514.6533542465218716 [Eh]
	-----------------------------------------------------------

  Dipole Moment: [D]
     X:    -1.6254      Y:    -1.8118      Z:    -2.9381     Total:     3.8154

*** Psi4 exiting successfully. Buy a developer a beer!
