                               Psi4 1.4a3.dev225

  ==> Input File <==

--------------------------------------------------------------------------
#psi4
#
memory 32 gb

molecule  {
0 1
  O       -0.4983720     2.1660820    -0.3008080
  O        1.7439460     0.8852250     1.1595980
  N        2.0846670    -0.6693810    -0.4855240
  C       -0.1747200    -0.1425440     0.1301780
  C       -1.0501490     0.9240530    -0.1297870
  C       -0.6950920    -1.4344860     0.2644570
  C        1.0970050     0.0726838     0.2944325
  C       -2.4223480     0.6871570    -0.2466200
  C       -2.0666220    -1.6719060     0.1573390
  C       -2.9283400    -0.6051620    -0.0964900
  C        3.5272930    -0.5029810    -0.4769650
  H       -0.0118380    -2.2529100     0.4809780
  H       -3.0973410     1.5164000    -0.4561860
  H       -2.4584240    -2.6782030     0.2778980
  H       -3.9991860    -0.7724420    -0.1829770
  H        1.6477640    -1.1074140    -1.2860730
  H        3.8478870     0.3529870    -1.0808760
  H        3.9959260    -1.4118430    -0.8588240
  H        3.8425270    -0.3337350     0.5522170
  H       -1.2204240     2.8028430    -0.4486720
units angstrom
no_reorient  #important for SAPT in psi4, default
symmetry c1  #important for SAPT in psi4, default
}

set PROPERTIES_ORIGIN ["COM"]
properties('MP2/aug-cc-pvtz', properties = ['dipole'])
--------------------------------------------------------------------------

    Molecular point group: c1
  Charge       = 0
  Multiplicity = 1
  Basis Set: AUG-CC-PVTZ
    Blend: AUG-CC-PVTZ
  Basis Set: (AUG-CC-PVTZ AUX)
    Blend: AUG-CC-PVTZ-JKFIT

    Orbital Energies [Eh]
    ---------------------

    Doubly Occupied:

       1A    -20.607838     2A    -20.500205     3A    -15.576008
       4A    -11.354906     5A    -11.338208     6A    -11.274289
       7A    -11.272367     8A    -11.257108     9A    -11.250998
      10A    -11.249099    11A    -11.246773    12A     -1.420241
      13A     -1.301808    14A     -1.187454    15A     -1.173602
      16A     -1.084071    17A     -1.031690    18A     -0.945195
      19A     -0.892369    20A     -0.863603    21A     -0.780583
      22A     -0.749702    23A     -0.713707    24A     -0.688634
      25A     -0.655138    26A     -0.629740    27A     -0.626574
      28A     -0.604190    29A     -0.598886    30A     -0.587503
      31A     -0.573600    32A     -0.544112    33A     -0.529049
      34A     -0.525075    35A     -0.501859    36A     -0.471457
      37A     -0.407961    38A     -0.367196    39A     -0.361532
      40A     -0.337395

  @DF-RHF Final Energy:  -512.47771231604929

   => Energetics <=

    Nuclear Repulsion Energy =            587.9503876564455140
    One-Electron Energy =               -1864.6927523230633597
    Two-Electron Energy =                 764.2646523505686673
    Total Energy =                       -512.4777123160492920
  Basis Set: (AUG-CC-PVTZ AUX)
    Blend: AUG-CC-PVTZ-RI
    Molecular point group: c1

    Geometry (in Angstrom), charge = 0, multiplicity = 1:

       Center              X                  Y                   Z               Mass
    ------------   -----------------  -----------------  -----------------  -----------------
         O           -0.466105668487     2.143316256715    -0.318482497659    15.994914619570
         O            1.776212331513     0.862459256715     1.141923502341    15.994914619570
         N            2.116933331513    -0.692146743285    -0.503198497659    14.003074004430
         C           -0.142453668487    -0.165309743285     0.112503502341    12.000000000000
         C           -1.017882668487     0.901287256715    -0.147461497659    12.000000000000
         C           -0.662825668487    -1.457251743285     0.246782502341    12.000000000000
         C            1.129271331513     0.049918056715     0.276758002341    12.000000000000
         C           -2.390081668487     0.664391256715    -0.264294497659    12.000000000000
         C           -2.034355668487    -1.694671743285     0.139664502341    12.000000000000
         C           -2.896073668487    -0.627927743285    -0.114164497659    12.000000000000
         C            3.559559331513    -0.525746743285    -0.494639497659    12.000000000000
         H            0.020428331513    -2.275675743285     0.463303502341     1.007825032230
         H           -3.065074668487     1.493634256715    -0.473860497659     1.007825032230
         H           -2.426157668487    -2.700968743285     0.260223502341     1.007825032230
         H           -3.966919668487    -0.795207743285    -0.200651497659     1.007825032230
         H            1.680030331513    -1.130179743285    -1.303747497659     1.007825032230
         H            3.880153331513     0.330221256715    -1.098550497659     1.007825032230
         H            4.028192331513    -1.434608743285    -0.876498497659     1.007825032230
         H            3.874793331513    -0.356500743285     0.534542502341     1.007825032230
         H           -1.188157668487     2.780077256715    -0.466346497659     1.007825032230

  Basis Set: AUG-CC-PVTZ
    Blend: AUG-CC-PVTZ
  Basis Set: (AUG-CC-PVTZ AUX)
    Blend: AUG-CC-PVTZ-JKFIT
	 Reference Energy          =    -512.4777123160492920 [Eh]
	 Singles Energy            =      -0.0000000000000000 [Eh]
	 Same-Spin Energy          =      -0.5433268698081539 [Eh]
	 Opposite-Spin Energy      =      -1.6581142015695387 [Eh]
	 Correlation Energy        =      -2.2014410713776926 [Eh]
	 Total Energy              =    -514.6791533874269362 [Eh]

	 ================> DF-SCS-MP2 Energies <==================
	-----------------------------------------------------------
	 SCS Same-Spin Scale       =       0.3333333333333333 [-]
	 SCS Opposite-Spin Scale   =       1.2000000000000000 [-]
	 SCS Same-Spin Energy      =      -0.1811089566027180 [Eh]
	 SCS Opposite-Spin Energy  =      -1.9897370418834464 [Eh]
	 SCS Correlation Energy    =      -2.1708459984861643 [Eh]
	 SCS Total Energy          =    -514.6485583145354212 [Eh]
	-----------------------------------------------------------

  Dipole Moment: [D]
     X:    -3.0132      Y:    -1.6422      Z:    -3.0431     Total:     4.5866

*** Psi4 exiting successfully. Buy a developer a beer!
