                               Psi4 1.4a3.dev225

  ==> Input File <==

--------------------------------------------------------------------------
#psi4
#
memory 32 gb

molecule  {
0 1
  O       -0.4983720     2.1660820    -0.3008080
  O        1.7439460     0.8852250     1.1595980
  N        2.0846670    -0.6693810    -0.4855240
  C       -0.1747200    -0.1425440     0.1301780
  C       -1.0501490     0.9240530    -0.1297870
  C       -0.7394821    -1.4167189     0.2544926
  C        1.2926210     0.1057900     0.3196980
  C       -2.4223480     0.6871570    -0.2466200
  C       -2.0666220    -1.6719060     0.1573390
  C       -2.9283400    -0.6051620    -0.0964900
  C        3.5272930    -0.5029810    -0.4769650
  H       -0.0118380    -2.2529100     0.4809780
  H       -3.0973410     1.5164000    -0.4561860
  H       -2.4584240    -2.6782030     0.2778980
  H       -3.9991860    -0.7724420    -0.1829770
  H        1.6477640    -1.1074140    -1.2860730
  H        3.8478870     0.3529870    -1.0808760
  H        3.9959260    -1.4118430    -0.8588240
  H        3.8425270    -0.3337350     0.5522170
  H       -1.2204240     2.8028430    -0.4486720
units angstrom
no_reorient  #important for SAPT in psi4, default
symmetry c1  #important for SAPT in psi4, default
}

set PROPERTIES_ORIGIN ["COM"]
properties('MP2/aug-cc-pvtz', properties = ['dipole'])
--------------------------------------------------------------------------

    Molecular point group: c1
  Charge       = 0
  Multiplicity = 1
  Basis Set: AUG-CC-PVTZ
    Blend: AUG-CC-PVTZ
  Basis Set: (AUG-CC-PVTZ AUX)
    Blend: AUG-CC-PVTZ-JKFIT

    Orbital Energies [Eh]
    ---------------------

    Doubly Occupied:

       1A    -20.597623     2A    -20.513571     3A    -15.584002
       4A    -11.350986     5A    -11.320211     6A    -11.257410
       7A    -11.255967     8A    -11.255721     9A    -11.248091
      10A    -11.246343    11A    -11.235761    12A     -1.409877
      13A     -1.367312    14A     -1.225335    15A     -1.164526
      16A     -1.045387    17A     -1.022501    18A     -0.950586
      19A     -0.864463    20A     -0.843488    21A     -0.784282
      22A     -0.740378    23A     -0.723214    24A     -0.678504
      25A     -0.648958    26A     -0.636253    27A     -0.617371
      28A     -0.607088    29A     -0.595881    30A     -0.587955
      31A     -0.576385    32A     -0.545225    33A     -0.535314
      34A     -0.523440    35A     -0.504641    36A     -0.493287
      37A     -0.422739    38A     -0.388835    39A     -0.354291
      40A     -0.328814

  @DF-RHF Final Energy:  -512.54929610155023

   => Energetics <=

    Nuclear Repulsion Energy =            587.6245285868222936
    One-Electron Energy =               -1864.2436243156571436
    Two-Electron Energy =                 764.0697996272847377
    Total Energy =                       -512.5492961015502260
  Basis Set: (AUG-CC-PVTZ AUX)
    Blend: AUG-CC-PVTZ-RI
    Molecular point group: c1

    Geometry (in Angstrom), charge = 0, multiplicity = 1:

       Center              X                  Y                   Z               Mass
    ------------   -----------------  -----------------  -----------------  -----------------
         O           -0.478118582658     2.139275040319    -0.319697969354    15.994914619570
         O            1.764199417342     0.858418040319     1.140708030646    15.994914619570
         N            2.104920417342    -0.696187959681    -0.504413969354    14.003074004430
         C           -0.154466582658    -0.169350959681     0.111288030646    12.000000000000
         C           -1.029895582658     0.897246040319    -0.148676969354    12.000000000000
         C           -0.719228682658    -1.443525859681     0.235602630646    12.000000000000
         C            1.312874417342     0.078983040319     0.300808030646    12.000000000000
         C           -2.402094582658     0.660350040319    -0.265509969354    12.000000000000
         C           -2.046368582658    -1.698712959681     0.138449030646    12.000000000000
         C           -2.908086582658    -0.631968959681    -0.115379969354    12.000000000000
         C            3.547546417342    -0.529787959681    -0.495854969354    12.000000000000
         H            0.008415417342    -2.279716959681     0.462088030646     1.007825032230
         H           -3.077087582658     1.489593040319    -0.475075969354     1.007825032230
         H           -2.438170582658    -2.705009959681     0.259008030646     1.007825032230
         H           -3.978932582658    -0.799248959681    -0.201866969354     1.007825032230
         H            1.668017417342    -1.134220959681    -1.304962969354     1.007825032230
         H            3.868140417342     0.326180040319    -1.099765969354     1.007825032230
         H            4.016179417342    -1.438649959681    -0.877713969354     1.007825032230
         H            3.862780417342    -0.360541959681     0.533327030646     1.007825032230
         H           -1.200170582658     2.776036040319    -0.467561969354     1.007825032230

  Basis Set: AUG-CC-PVTZ
    Blend: AUG-CC-PVTZ
  Basis Set: (AUG-CC-PVTZ AUX)
    Blend: AUG-CC-PVTZ-JKFIT
	 Reference Energy          =    -512.5492961015502260 [Eh]
	 Singles Energy            =      -0.0000000000000000 [Eh]
	 Same-Spin Energy          =      -0.5371210022294141 [Eh]
	 Opposite-Spin Energy      =      -1.6460338502074832 [Eh]
	 Correlation Energy        =      -2.1831548524368971 [Eh]
	 Total Energy              =    -514.7324509539871542 [Eh]

	 ================> DF-SCS-MP2 Energies <==================
	-----------------------------------------------------------
	 SCS Same-Spin Scale       =       0.3333333333333333 [-]
	 SCS Opposite-Spin Scale   =       1.2000000000000000 [-]
	 SCS Same-Spin Energy      =      -0.1790403340764714 [Eh]
	 SCS Opposite-Spin Energy  =      -1.9752406202489796 [Eh]
	 SCS Correlation Energy    =      -2.1542809543254511 [Eh]
	 SCS Total Energy          =    -514.7035770558757122 [Eh]
	-----------------------------------------------------------

  Dipole Moment: [D]
     X:    -1.7126      Y:    -1.5680      Z:    -2.9783     Total:     3.7765

*** Psi4 exiting successfully. Buy a developer a beer!
