                               Psi4 1.4a3.dev225

  ==> Input File <==

--------------------------------------------------------------------------
#psi4
#
memory 32 gb

molecule  {
0 1
  O       -0.4983720     2.1660820    -0.3008080
  O        1.7439460     0.8852250     1.1595980
  N        2.0846670    -0.6693810    -0.4855240
  C       -0.1747200    -0.1425440     0.1301780
  C       -1.0501490     0.9240530    -0.1297870
  C       -0.6950920    -1.4344860     0.2644570
  C        1.2437170     0.0975134     0.3133816
  C       -2.4223480     0.6871570    -0.2466200
  C       -2.0666220    -1.6719060     0.1573390
  C       -2.9283400    -0.6051620    -0.0964900
  C        3.5272930    -0.5029810    -0.4769650
  H       -0.0118380    -2.2529100     0.4809780
  H       -3.0973410     1.5164000    -0.4561860
  H       -2.4584240    -2.6782030     0.2778980
  H       -3.9991860    -0.7724420    -0.1829770
  H        1.6477640    -1.1074140    -1.2860730
  H        3.8478870     0.3529870    -1.0808760
  H        3.9959260    -1.4118430    -0.8588240
  H        3.8425270    -0.3337350     0.5522170
  H       -1.2204240     2.8028430    -0.4486720
units angstrom
no_reorient  #important for SAPT in psi4, default
symmetry c1  #important for SAPT in psi4, default
}

set PROPERTIES_ORIGIN ["COM"]
properties('MP2/aug-cc-pvtz', properties = ['dipole'])
--------------------------------------------------------------------------

    Molecular point group: c1
  Charge       = 0
  Multiplicity = 1
  Basis Set: AUG-CC-PVTZ
    Blend: AUG-CC-PVTZ
  Basis Set: (AUG-CC-PVTZ AUX)
    Blend: AUG-CC-PVTZ-JKFIT

    Orbital Energies [Eh]
    ---------------------

    Doubly Occupied:

       1A    -20.600082     2A    -20.510123     3A    -15.582101
       4A    -11.351478     5A    -11.324466     6A    -11.261273
       7A    -11.260327     8A    -11.254411     9A    -11.250260
      10A    -11.249073    11A    -11.242941    12A     -1.412276
      13A     -1.349796    14A     -1.214903    15A     -1.164029
      16A     -1.054742    17A     -1.021063    18A     -0.948452
      19A     -0.871726    20A     -0.849483    21A     -0.778958
      22A     -0.743948    23A     -0.725039    24A     -0.678082
      25A     -0.649753    26A     -0.632377    27A     -0.619264
      28A     -0.610073    29A     -0.596466    30A     -0.587765
      31A     -0.577099    32A     -0.540598    33A     -0.536208
      34A     -0.521950    35A     -0.508332    36A     -0.489293
      37A     -0.421319    38A     -0.382768    39A     -0.357295
      40A     -0.329028

  @DF-RHF Final Energy:  -512.54519105614600

   => Energetics <=

    Nuclear Repulsion Energy =            587.2955384548656639
    One-Electron Energy =               -1863.5642156915591841
    Two-Electron Energy =                 763.7234861805475248
    Total Energy =                       -512.5451910561459954
  Basis Set: (AUG-CC-PVTZ AUX)
    Blend: AUG-CC-PVTZ-RI
    Molecular point group: c1

    Geometry (in Angstrom), charge = 0, multiplicity = 1:

       Center              X                  Y                   Z               Mass
    ------------   -----------------  -----------------  -----------------  -----------------
         O           -0.477760012510     2.141343870677    -0.319987755105    15.994914619570
         O            1.764557987490     0.860486870677     1.140418244895    15.994914619570
         N            2.105278987490    -0.694119129323    -0.504703755105    14.003074004430
         C           -0.154108012510    -0.167282129323     0.110998244895    12.000000000000
         C           -1.029537012510     0.899314870677    -0.148966755105    12.000000000000
         C           -0.674480012510    -1.459224129323     0.245277244895    12.000000000000
         C            1.264328987490     0.072775270677     0.294201844895    12.000000000000
         C           -2.401736012510     0.662418870677    -0.265799755105    12.000000000000
         C           -2.046010012510    -1.696644129323     0.138159244895    12.000000000000
         C           -2.907728012510    -0.629900129323    -0.115669755105    12.000000000000
         C            3.547904987490    -0.527719129323    -0.496144755105    12.000000000000
         H            0.008773987490    -2.277648129323     0.461798244895     1.007825032230
         H           -3.076729012510     1.491661870677    -0.475365755105     1.007825032230
         H           -2.437812012510    -2.702941129323     0.258718244895     1.007825032230
         H           -3.978574012510    -0.797180129323    -0.202156755105     1.007825032230
         H            1.668375987490    -1.132152129323    -1.305252755105     1.007825032230
         H            3.868498987490     0.328248870677    -1.100055755105     1.007825032230
         H            4.016537987490    -1.436581129323    -0.878003755105     1.007825032230
         H            3.863138987490    -0.358473129323     0.533037244895     1.007825032230
         H           -1.199812012510     2.778104870677    -0.467851755105     1.007825032230

  Basis Set: AUG-CC-PVTZ
    Blend: AUG-CC-PVTZ
  Basis Set: (AUG-CC-PVTZ AUX)
    Blend: AUG-CC-PVTZ-JKFIT
	 Reference Energy          =    -512.5451910561459954 [Eh]
	 Singles Energy            =      -0.0000000000000000 [Eh]
	 Same-Spin Energy          =      -0.5381508684145755 [Eh]
	 Opposite-Spin Energy      =      -1.6482879502790224 [Eh]
	 Correlation Energy        =      -2.1864388186935981 [Eh]
	 Total Energy              =    -514.7316298748395411 [Eh]

	 ================> DF-SCS-MP2 Energies <==================
	-----------------------------------------------------------
	 SCS Same-Spin Scale       =       0.3333333333333333 [-]
	 SCS Opposite-Spin Scale   =       1.2000000000000000 [-]
	 SCS Same-Spin Energy      =      -0.1793836228048585 [Eh]
	 SCS Opposite-Spin Energy  =      -1.9779455403348267 [Eh]
	 SCS Correlation Energy    =      -2.1573291631396851 [Eh]
	 SCS Total Energy          =    -514.7025202192857023 [Eh]
	-----------------------------------------------------------

  Dipole Moment: [D]
     X:    -2.0406      Y:    -1.6065      Z:    -2.9997     Total:     3.9678

*** Psi4 exiting successfully. Buy a developer a beer!
