                               Psi4 1.4a3.dev225

  ==> Input File <==

--------------------------------------------------------------------------
#psi4
#
memory 32 gb

molecule  {
0 1
  O       -0.4983720     2.1660820    -0.3008080
  O        1.7439460     0.8852250     1.1595980
  N        2.0846670    -0.6693810    -0.4855240
  C       -0.1747200    -0.1425440     0.1301780
  C       -1.0501490     0.9240530    -0.1297870
  C       -0.6950920    -1.4344860     0.2644570
  C        1.2926210     0.1057900     0.3196980
  C       -2.4223480     0.6871570    -0.2466200
  C       -2.0666220    -1.6719060     0.1573390
  C       -2.9283400    -0.6051620    -0.0964900
  C        3.5272930    -0.5029810    -0.4769650
  H       -0.0118380    -2.2529100     0.4809780
  H       -3.0973410     1.5164000    -0.4561860
  H       -2.4584240    -2.6782030     0.2778980
  H       -3.9991860    -0.7724420    -0.1829770
  H        1.6477640    -1.1074140    -1.2860730
  H        3.8897627     0.3044648    -1.1225788
  H        3.9959260    -1.4118430    -0.8588240
  H        3.8425270    -0.3337350     0.5522170
  H       -1.2204240     2.8028430    -0.4486720
units angstrom
no_reorient  #important for SAPT in psi4, default
symmetry c1  #important for SAPT in psi4, default
}

set PROPERTIES_ORIGIN ["COM"]
properties('MP2/aug-cc-pvtz', properties = ['dipole'])
--------------------------------------------------------------------------

    Molecular point group: c1
  Charge       = 0
  Multiplicity = 1
  Basis Set: AUG-CC-PVTZ
    Blend: AUG-CC-PVTZ
  Basis Set: (AUG-CC-PVTZ AUX)
    Blend: AUG-CC-PVTZ-JKFIT

    Orbital Energies [Eh]
    ---------------------

    Doubly Occupied:

       1A    -20.597766     2A    -20.513188     3A    -15.584665
       4A    -11.350309     5A    -11.320499     6A    -11.257453
       7A    -11.256828     8A    -11.256066     9A    -11.249637
      10A    -11.246633    11A    -11.240493    12A     -1.409986
      13A     -1.367137    14A     -1.225472    15A     -1.160113
      16A     -1.046800    17A     -1.017768    18A     -0.950585
      19A     -0.865365    20A     -0.844481    21A     -0.783190
      22A     -0.742452    23A     -0.724241    24A     -0.675317
      25A     -0.649594    26A     -0.635971    27A     -0.619295
      28A     -0.611740    29A     -0.595454    30A     -0.585341
      31A     -0.575636    32A     -0.545154    33A     -0.535662
      34A     -0.522303    35A     -0.511724    36A     -0.489767
      37A     -0.421684    38A     -0.388998    39A     -0.354440
      40A     -0.326214

  @DF-RHF Final Energy:  -512.55153962247971

   => Energetics <=

    Nuclear Repulsion Energy =            587.0566323807715889
    One-Electron Energy =               -1863.1054994454507323
    Two-Electron Energy =                 763.4973274421994347
    Total Energy =                       -512.5515396224797087
  Basis Set: (AUG-CC-PVTZ AUX)
    Blend: AUG-CC-PVTZ-RI
    Molecular point group: c1

    Geometry (in Angstrom), charge = 0, multiplicity = 1:

       Center              X                  Y                   Z               Mass
    ------------   -----------------  -----------------  -----------------  -----------------
         O           -0.481924169257     2.141010121165    -0.320211288338    15.994914619570
         O            1.760393830743     0.860153121165     1.140194711662    15.994914619570
         N            2.101114830743    -0.694452878835    -0.504927288338    14.003074004430
         C           -0.158272169257    -0.167615878835     0.110774711662    12.000000000000
         C           -1.033701169257     0.898981121165    -0.149190288338    12.000000000000
         C           -0.678644169257    -1.459557878835     0.245053711662    12.000000000000
         C            1.309068830743     0.080718121165     0.300294711662    12.000000000000
         C           -2.405900169257     0.662085121165    -0.266023288338    12.000000000000
         C           -2.050174169257    -1.696977878835     0.137935711662    12.000000000000
         C           -2.911892169257    -0.630233878835    -0.115893288338    12.000000000000
         C            3.543740830743    -0.528052878835    -0.496368288338    12.000000000000
         H            0.004609830743    -2.277981878835     0.461574711662     1.007825032230
         H           -3.080893169257     1.491328121165    -0.475589288338     1.007825032230
         H           -2.441976169257    -2.703274878835     0.258494711662     1.007825032230
         H           -3.982738169257    -0.797513878835    -0.202380288338     1.007825032230
         H            1.664211830743    -1.132485878835    -1.305476288338     1.007825032230
         H            3.906210530743     0.279392921165    -1.141982088338     1.007825032230
         H            4.012373830743    -1.436914878835    -0.878227288338     1.007825032230
         H            3.858974830743    -0.358806878835     0.532813711662     1.007825032230
         H           -1.203976169257     2.777771121165    -0.468075288338     1.007825032230

  Basis Set: AUG-CC-PVTZ
    Blend: AUG-CC-PVTZ
  Basis Set: (AUG-CC-PVTZ AUX)
    Blend: AUG-CC-PVTZ-JKFIT
	 Reference Energy          =    -512.5515396224797087 [Eh]
	 Singles Energy            =      -0.0000000000000000 [Eh]
	 Same-Spin Energy          =      -0.5370275154714994 [Eh]
	 Opposite-Spin Energy      =      -1.6460216092733040 [Eh]
	 Correlation Energy        =      -2.1830491247448034 [Eh]
	 Total Energy              =    -514.7345887472245067 [Eh]

	 ================> DF-SCS-MP2 Energies <==================
	-----------------------------------------------------------
	 SCS Same-Spin Scale       =       0.3333333333333333 [-]
	 SCS Opposite-Spin Scale   =       1.2000000000000000 [-]
	 SCS Same-Spin Energy      =      -0.1790091718238331 [Eh]
	 SCS Opposite-Spin Energy  =      -1.9752259311279647 [Eh]
	 SCS Correlation Energy    =      -2.1542351029517977 [Eh]
	 SCS Total Energy          =    -514.7057747254315245 [Eh]
	-----------------------------------------------------------

  Dipole Moment: [D]
     X:    -1.7164      Y:    -1.5841      Z:    -2.9877     Total:     3.7923

*** Psi4 exiting successfully. Buy a developer a beer!
