                               Psi4 1.4a3.dev225

  ==> Input File <==

--------------------------------------------------------------------------
#psi4
#
memory 32 gb

molecule  {
0 1
  O       -0.4983720     2.1660820    -0.3008080
  O        1.7439460     0.8852250     1.1595980
  N        2.0846670    -0.6693810    -0.4855240
  C       -0.1747200    -0.1425440     0.1301780
  C       -1.0501490     0.9240530    -0.1297870
  C       -0.6950920    -1.4344860     0.2644570
  C        1.3504391     0.0492038     0.2609181
  C       -2.4223480     0.6871570    -0.2466200
  C       -2.0666220    -1.6719060     0.1573390
  C       -2.9283400    -0.6051620    -0.0964900
  C        3.5272930    -0.5029810    -0.4769650
  H       -0.0118380    -2.2529100     0.4809780
  H       -3.0973410     1.5164000    -0.4561860
  H       -2.4584240    -2.6782030     0.2778980
  H       -3.9991860    -0.7724420    -0.1829770
  H        1.6477640    -1.1074140    -1.2860730
  H        3.8478870     0.3529870    -1.0808760
  H        3.9959260    -1.4118430    -0.8588240
  H        3.8425270    -0.3337350     0.5522170
  H       -1.2204240     2.8028430    -0.4486720
units angstrom
no_reorient  #important for SAPT in psi4, default
symmetry c1  #important for SAPT in psi4, default
}

set PROPERTIES_ORIGIN ["COM"]
properties('MP2/aug-cc-pvtz', properties = ['dipole'])
--------------------------------------------------------------------------

    Molecular point group: c1
  Charge       = 0
  Multiplicity = 1
  Basis Set: AUG-CC-PVTZ
    Blend: AUG-CC-PVTZ
  Basis Set: (AUG-CC-PVTZ AUX)
    Blend: AUG-CC-PVTZ-JKFIT

    Orbital Energies [Eh]
    ---------------------

    Doubly Occupied:

       1A    -20.593211     2A    -20.495835     3A    -15.602837
       4A    -11.346766     5A    -11.317131     6A    -11.267082
       7A    -11.253507     8A    -11.253198     9A    -11.250209
      10A    -11.244189    11A    -11.237897    12A     -1.404951
      13A     -1.349188    14A     -1.245416    15A     -1.156673
      16A     -1.041737    17A     -1.014204    18A     -0.971719
      19A     -0.858290    20A     -0.840975    21A     -0.806341
      22A     -0.741179    23A     -0.724173    24A     -0.671412
      25A     -0.656418    26A     -0.638043    27A     -0.623290
      28A     -0.612306    29A     -0.591854    30A     -0.583557
      31A     -0.563322    32A     -0.550117    33A     -0.529708
      34A     -0.515697    35A     -0.509327    36A     -0.487957
      37A     -0.407390    38A     -0.391788    39A     -0.349908
      40A     -0.322191

  @DF-RHF Final Energy:  -512.53578262936730

   => Energetics <=

    Nuclear Repulsion Energy =            587.0067974971415197
    One-Electron Energy =               -1863.0431758623899441
    Two-Electron Energy =                 763.5005957358810065
    Total Energy =                       -512.5357826293673043
  Basis Set: (AUG-CC-PVTZ AUX)
    Blend: AUG-CC-PVTZ-RI
    Molecular point group: c1

    Geometry (in Angstrom), charge = 0, multiplicity = 1:

       Center              X                  Y                   Z               Mass
    ------------   -----------------  -----------------  -----------------  -----------------
         O           -0.486237683514     2.145181434735    -0.315820218178    15.994914619570
         O            1.756080316486     0.864324434735     1.144585781822    15.994914619570
         N            2.096801316486    -0.690281565265    -0.500536218178    14.003074004430
         C           -0.162585683514    -0.163444565265     0.115165781822    12.000000000000
         C           -1.038014683514     0.903152434735    -0.144799218178    12.000000000000
         C           -0.682957683514    -1.455386565265     0.249444781822    12.000000000000
         C            1.362573416486     0.028303234735     0.245905881822    12.000000000000
         C           -2.410213683514     0.666256434735    -0.261632218178    12.000000000000
         C           -2.054487683514    -1.692806565265     0.142326781822    12.000000000000
         C           -2.916205683514    -0.626062565265    -0.111502218178    12.000000000000
         C            3.539427316486    -0.523881565265    -0.491977218178    12.000000000000
         H            0.000296316486    -2.273810565265     0.465965781822     1.007825032230
         H           -3.085206683514     1.495499434735    -0.471198218178     1.007825032230
         H           -2.446289683514    -2.699103565265     0.262885781822     1.007825032230
         H           -3.987051683514    -0.793342565265    -0.197989218178     1.007825032230
         H            1.659898316486    -1.128314565265    -1.301085218178     1.007825032230
         H            3.860021316486     0.332086434735    -1.095888218178     1.007825032230
         H            4.008060316486    -1.432743565265    -0.873836218178     1.007825032230
         H            3.854661316486    -0.354635565265     0.537204781822     1.007825032230
         H           -1.208289683514     2.781942434735    -0.463684218178     1.007825032230

  Basis Set: AUG-CC-PVTZ
    Blend: AUG-CC-PVTZ
  Basis Set: (AUG-CC-PVTZ AUX)
    Blend: AUG-CC-PVTZ-JKFIT
	 Reference Energy          =    -512.5357826293673043 [Eh]
	 Singles Energy            =      -0.0000000000000000 [Eh]
	 Same-Spin Energy          =      -0.5379213953731270 [Eh]
	 Opposite-Spin Energy      =      -1.6474760870967220 [Eh]
	 Correlation Energy        =      -2.1853974824698490 [Eh]
	 Total Energy              =    -514.7211801118371568 [Eh]

	 ================> DF-SCS-MP2 Energies <==================
	-----------------------------------------------------------
	 SCS Same-Spin Scale       =       0.3333333333333333 [-]
	 SCS Opposite-Spin Scale   =       1.2000000000000000 [-]
	 SCS Same-Spin Energy      =      -0.1793071317910423 [Eh]
	 SCS Opposite-Spin Energy  =      -1.9769713045160664 [Eh]
	 SCS Correlation Energy    =      -2.1562784363071086 [Eh]
	 SCS Total Energy          =    -514.6920610656744657 [Eh]
	-----------------------------------------------------------

  Dipole Moment: [D]
     X:    -1.1343      Y:    -1.9982      Z:    -3.4849     Total:     4.1742

*** Psi4 exiting successfully. Buy a developer a beer!
