                               Psi4 1.4a3.dev225

  ==> Input File <==

--------------------------------------------------------------------------
#psi4
#
memory 32 gb

molecule  {
0 1
  O       -0.4983720     2.1660820    -0.3008080
  O        1.7439460     0.8852250     1.1595980
  N        2.0846670    -0.6693810    -0.4855240
  C       -0.1747200    -0.1425440     0.1301780
  C       -1.0501490     0.9240530    -0.1297870
  C       -0.6950920    -1.4344860     0.2644570
  C        1.3721945     0.1483235     0.3513462
  C       -2.4223480     0.6871570    -0.2466200
  C       -2.0666220    -1.6719060     0.1573390
  C       -2.9283400    -0.6051620    -0.0964900
  C        3.5272930    -0.5029810    -0.4769650
  H       -0.0118380    -2.2529100     0.4809780
  H       -3.0973410     1.5164000    -0.4561860
  H       -2.4584240    -2.6782030     0.2778980
  H       -3.9991860    -0.7724420    -0.1829770
  H        1.6477640    -1.1074140    -1.2860730
  H        3.8478870     0.3529870    -1.0808760
  H        3.9959260    -1.4118430    -0.8588240
  H        3.8425270    -0.3337350     0.5522170
  H       -1.2204240     2.8028430    -0.4486720
units angstrom
no_reorient  #important for SAPT in psi4, default
symmetry c1  #important for SAPT in psi4, default
}

set PROPERTIES_ORIGIN ["COM"]
properties('MP2/aug-cc-pvtz', properties = ['dipole'])
--------------------------------------------------------------------------

    Molecular point group: c1
  Charge       = 0
  Multiplicity = 1
  Basis Set: AUG-CC-PVTZ
    Blend: AUG-CC-PVTZ
  Basis Set: (AUG-CC-PVTZ AUX)
    Blend: AUG-CC-PVTZ-JKFIT

    Orbital Energies [Eh]
    ---------------------

    Doubly Occupied:

       1A    -20.594476     2A    -20.526902     3A    -15.581038
       4A    -11.349201     5A    -11.312938     6A    -11.255428
       7A    -11.250522     8A    -11.250419     9A    -11.244307
      10A    -11.241864    11A    -11.235765    12A     -1.423750
      13A     -1.404609    14A     -1.233231    15A     -1.152810
      16A     -1.033833    17A     -1.011584    18A     -0.946126
      19A     -0.855942    20A     -0.833922    21A     -0.788408
      22A     -0.737850    23A     -0.718520    24A     -0.673080
      25A     -0.652488    26A     -0.643148    27A     -0.626225
      28A     -0.608719    29A     -0.595800    30A     -0.582790
      31A     -0.576350    32A     -0.551283    33A     -0.546977
      34A     -0.529090    35A     -0.512355    36A     -0.487193
      37A     -0.416957    38A     -0.396567    39A     -0.348608
      40A     -0.320952

  @DF-RHF Final Energy:  -512.54543778773643

   => Energetics <=

    Nuclear Repulsion Energy =            587.0918144720363898
    One-Electron Energy =               -1863.1704482085758627
    Two-Electron Energy =                 763.5331959488029270
    Total Energy =                       -512.5454377877364323
  Basis Set: (AUG-CC-PVTZ AUX)
    Blend: AUG-CC-PVTZ-RI
    Molecular point group: c1

    Geometry (in Angstrom), charge = 0, multiplicity = 1:

       Center              X                  Y                   Z               Mass
    ------------   -----------------  -----------------  -----------------  -----------------
         O           -0.487965864685     2.137307674693    -0.323003544604    15.994914619570
         O            1.754352135315     0.856450674693     1.137402455396    15.994914619570
         N            2.095073135315    -0.698155325307    -0.507719544604    14.003074004430
         C           -0.164313864685    -0.171318325307     0.107982455396    12.000000000000
         C           -1.039742864685     0.895278674693    -0.151982544604    12.000000000000
         C           -0.684685864685    -1.463260325307     0.242261455396    12.000000000000
         C            1.382600635315     0.119549174693     0.329150655396    12.000000000000
         C           -2.411941864685     0.658382674693    -0.268815544604    12.000000000000
         C           -2.056215864685    -1.700680325307     0.135143455396    12.000000000000
         C           -2.917933864685    -0.633936325307    -0.118685544604    12.000000000000
         C            3.537699135315    -0.531755325307    -0.499160544604    12.000000000000
         H           -0.001431864685    -2.281684325307     0.458782455396     1.007825032230
         H           -3.086934864685     1.487625674693    -0.478381544604     1.007825032230
         H           -2.448017864685    -2.706977325307     0.255702455396     1.007825032230
         H           -3.988779864685    -0.801216325307    -0.205172544604     1.007825032230
         H            1.658170135315    -1.136188325307    -1.308268544604     1.007825032230
         H            3.858293135315     0.324212674693    -1.103071544604     1.007825032230
         H            4.006332135315    -1.440617325307    -0.881019544604     1.007825032230
         H            3.852933135315    -0.362509325307     0.530021455396     1.007825032230
         H           -1.210017864685     2.774068674693    -0.470867544604     1.007825032230

  Basis Set: AUG-CC-PVTZ
    Blend: AUG-CC-PVTZ
  Basis Set: (AUG-CC-PVTZ AUX)
    Blend: AUG-CC-PVTZ-JKFIT
	 Reference Energy          =    -512.5454377877364323 [Eh]
	 Singles Energy            =      -0.0000000000000000 [Eh]
	 Same-Spin Energy          =      -0.5353122730935722 [Eh]
	 Opposite-Spin Energy      =      -1.6424777639063584 [Eh]
	 Correlation Energy        =      -2.1777900369999306 [Eh]
	 Total Energy              =    -514.7232278247363411 [Eh]

	 ================> DF-SCS-MP2 Energies <==================
	-----------------------------------------------------------
	 SCS Same-Spin Scale       =       0.3333333333333333 [-]
	 SCS Opposite-Spin Scale   =       1.2000000000000000 [-]
	 SCS Same-Spin Energy      =      -0.1784374243645241 [Eh]
	 SCS Opposite-Spin Energy  =      -1.9709733166876300 [Eh]
	 SCS Correlation Energy    =      -2.1494107410521539 [Eh]
	 SCS Total Energy          =    -514.6948485287886115 [Eh]
	-----------------------------------------------------------

  Dipole Moment: [D]
     X:    -1.1755      Y:    -1.3252      Z:    -2.6941     Total:     3.2243

*** Psi4 exiting successfully. Buy a developer a beer!
