                               Psi4 1.4a3.dev225

  ==> Input File <==

--------------------------------------------------------------------------
#psi4
#
memory 32 gb

molecule  {
0 1
  O       -0.4983720     2.1660820    -0.3008080
  O        1.7439460     0.8852250     1.1595980
  N        2.0846670    -0.6693810    -0.4855240
  C       -0.1747200    -0.1425440     0.1301780
  C       -1.0501490     0.9240530    -0.1297870
  C       -0.6950920    -1.4344860     0.2644570
  C        1.2926210     0.1057900     0.3196980
  C       -2.4223480     0.6871570    -0.2466200
  C       -2.0666220    -1.6719060     0.1573390
  C       -2.9592346    -0.5669167    -0.1055904
  C        3.5272930    -0.5029810    -0.4769650
  H       -0.0118380    -2.2529100     0.4809780
  H       -3.0973410     1.5164000    -0.4561860
  H       -2.4584240    -2.6782030     0.2778980
  H       -3.9991860    -0.7724420    -0.1829770
  H        1.6477640    -1.1074140    -1.2860730
  H        3.8478870     0.3529870    -1.0808760
  H        3.9959260    -1.4118430    -0.8588240
  H        3.8425270    -0.3337350     0.5522170
  H       -1.2204240     2.8028430    -0.4486720
units angstrom
no_reorient  #important for SAPT in psi4, default
symmetry c1  #important for SAPT in psi4, default
}

set PROPERTIES_ORIGIN ["COM"]
properties('MP2/aug-cc-pvtz', properties = ['dipole'])
--------------------------------------------------------------------------

    Molecular point group: c1
  Charge       = 0
  Multiplicity = 1
  Basis Set: AUG-CC-PVTZ
    Blend: AUG-CC-PVTZ
  Basis Set: (AUG-CC-PVTZ AUX)
    Blend: AUG-CC-PVTZ-JKFIT

    Orbital Energies [Eh]
    ---------------------

    Doubly Occupied:

       1A    -20.598543     2A    -20.512878     3A    -15.583678
       4A    -11.349694     5A    -11.321208     6A    -11.257955
       7A    -11.256282     8A    -11.255837     9A    -11.248689
      10A    -11.246105    11A    -11.244883    12A     -1.410557
      13A     -1.366798    14A     -1.225112    15A     -1.157797
      16A     -1.048855    17A     -1.013954    18A     -0.950565
      19A     -0.863535    20A     -0.845829    21A     -0.783419
      22A     -0.742151    23A     -0.723733    24A     -0.679833
      25A     -0.647072    26A     -0.635534    27A     -0.619286
      28A     -0.611292    29A     -0.596232    30A     -0.586956
      31A     -0.575718    32A     -0.545011    33A     -0.540027
      34A     -0.523186    35A     -0.505975    36A     -0.487651
      37A     -0.421334    38A     -0.388648    39A     -0.358474
      40A     -0.321274

  @DF-RHF Final Energy:  -512.54875970507510

   => Energetics <=

    Nuclear Repulsion Energy =            586.7107748102955611
    One-Electron Energy =               -1862.4159470009774395
    Two-Electron Energy =                 763.1564124856067792
    Total Energy =                       -512.5487597050750992
  Basis Set: (AUG-CC-PVTZ AUX)
    Blend: AUG-CC-PVTZ-RI
    Molecular point group: c1

    Geometry (in Angstrom), charge = 0, multiplicity = 1:

       Center              X                  Y                   Z               Mass
    ------------   -----------------  -----------------  -----------------  -----------------
         O           -0.479190623116     2.137648315936    -0.319766602822    15.994914619570
         O            1.763127376884     0.856791315936     1.140639397178    15.994914619570
         N            2.103848376884    -0.697814684064    -0.504482602822    14.003074004430
         C           -0.155538623116    -0.170977684064     0.111219397178    12.000000000000
         C           -1.030967623116     0.895619315936    -0.148745602822    12.000000000000
         C           -0.675910623116    -1.462919684064     0.245498397178    12.000000000000
         C            1.311802376884     0.077356315936     0.300739397178    12.000000000000
         C           -2.403166623116     0.658723315936    -0.265578602822    12.000000000000
         C           -2.047440623116    -1.700339684064     0.138380397178    12.000000000000
         C           -2.940053223116    -0.595350384064    -0.124549002822    12.000000000000
         C            3.546474376884    -0.531414684064    -0.495923602822    12.000000000000
         H            0.007343376884    -2.281343684064     0.462019397178     1.007825032230
         H           -3.078159623116     1.487966315936    -0.475144602822     1.007825032230
         H           -2.439242623116    -2.706636684064     0.258939397178     1.007825032230
         H           -3.980004623116    -0.800875684064    -0.201935602822     1.007825032230
         H            1.666945376884    -1.135847684064    -1.305031602822     1.007825032230
         H            3.867068376884     0.324553315936    -1.099834602822     1.007825032230
         H            4.015107376884    -1.440276684064    -0.877782602822     1.007825032230
         H            3.861708376884    -0.362168684064     0.533258397178     1.007825032230
         H           -1.201242623116     2.774409315936    -0.467630602822     1.007825032230

  Basis Set: AUG-CC-PVTZ
    Blend: AUG-CC-PVTZ
  Basis Set: (AUG-CC-PVTZ AUX)
    Blend: AUG-CC-PVTZ-JKFIT
	 Reference Energy          =    -512.5487597050750992 [Eh]
	 Singles Energy            =      -0.0000000000000000 [Eh]
	 Same-Spin Energy          =      -0.5370808013659883 [Eh]
	 Opposite-Spin Energy      =      -1.6463980734202044 [Eh]
	 Correlation Energy        =      -2.1834788747861928 [Eh]
	 Total Energy              =    -514.7322385798612459 [Eh]

	 ================> DF-SCS-MP2 Energies <==================
	-----------------------------------------------------------
	 SCS Same-Spin Scale       =       0.3333333333333333 [-]
	 SCS Opposite-Spin Scale   =       1.2000000000000000 [-]
	 SCS Same-Spin Energy      =      -0.1790269337886628 [Eh]
	 SCS Opposite-Spin Energy  =      -1.9756776881042453 [Eh]
	 SCS Correlation Energy    =      -2.1547046218929080 [Eh]
	 SCS Total Energy          =    -514.7034643269680600 [Eh]
	-----------------------------------------------------------

  Dipole Moment: [D]
     X:    -1.7356      Y:    -1.5678      Z:    -2.9782     Total:     3.7868

*** Psi4 exiting successfully. Buy a developer a beer!
