                               Psi4 1.4a3.dev225

  ==> Input File <==

--------------------------------------------------------------------------
#psi4
#
memory 32 gb

molecule  {
0 1
  O       -0.4983720     2.1660820    -0.3008080
  O        1.7439460     0.8852250     1.1595980
  N        2.0846670    -0.6693810    -0.4855240
  C       -0.1747200    -0.1425440     0.1301780
  C       -1.0501490     0.9240530    -0.1297870
  C       -0.6950920    -1.4344860     0.2644570
  C        1.2926210     0.1057900     0.3196980
  C       -2.4223480     0.6871570    -0.2466200
  C       -2.0666220    -1.6719060     0.1573390
  C       -2.9283400    -0.6051620    -0.0964900
  C        3.5272930    -0.5029810    -0.4769650
  H       -0.0118380    -2.2529100     0.4809780
  H       -3.0973410     1.5164000    -0.4561860
  H       -2.4584240    -2.6782030     0.2778980
  H       -3.9991860    -0.7724420    -0.1829770
  H        1.6477640    -1.1074140    -1.2860730
  H        3.8478870     0.3529870    -1.0808760
  H        3.9100597    -1.2453149    -0.7888571
  H        3.8425270    -0.3337350     0.5522170
  H       -1.2204240     2.8028430    -0.4486720
units angstrom
no_reorient  #important for SAPT in psi4, default
symmetry c1  #important for SAPT in psi4, default
}

set PROPERTIES_ORIGIN ["COM"]
properties('MP2/aug-cc-pvtz', properties = ['dipole'])
--------------------------------------------------------------------------

    Molecular point group: c1
  Charge       = 0
  Multiplicity = 1
  Basis Set: AUG-CC-PVTZ
    Blend: AUG-CC-PVTZ
  Basis Set: (AUG-CC-PVTZ AUX)
    Blend: AUG-CC-PVTZ-JKFIT

    Orbital Energies [Eh]
    ---------------------

    Doubly Occupied:

       1A    -20.597262     2A    -20.512121     3A    -15.582343
       4A    -11.348880     5A    -11.319871     6A    -11.256857
       7A    -11.256307     8A    -11.248912     9A    -11.246149
      10A    -11.240022    11A    -11.231071    12A     -1.409461
      13A     -1.365968    14A     -1.225997    15A     -1.159690
      16A     -1.047831    17A     -1.017312    18A     -0.972602
      19A     -0.866558    20A     -0.846126    21A     -0.782282
      22A     -0.743297    23A     -0.727540    24A     -0.674731
      25A     -0.653604    26A     -0.635440    27A     -0.621118
      28A     -0.616149    29A     -0.599030    30A     -0.591731
      31A     -0.577848    32A     -0.557919    33A     -0.535318
      34A     -0.522389    35A     -0.510436    36A     -0.489480
      37A     -0.420561    38A     -0.388703    39A     -0.353855
      40A     -0.325692

  @DF-RHF Final Energy:  -512.51754403633936

   => Energetics <=

    Nuclear Repulsion Energy =            588.2317571633586795
    One-Electron Energy =               -1865.3416803514003277
    Two-Electron Energy =                 764.5923791517022892
    Total Energy =                       -512.5175440363393591
  Basis Set: (AUG-CC-PVTZ AUX)
    Blend: AUG-CC-PVTZ-RI
    Molecular point group: c1

    Geometry (in Angstrom), charge = 0, multiplicity = 1:

       Center              X                  Y                   Z               Mass
    ------------   -----------------  -----------------  -----------------  -----------------
         O           -0.481071933400     2.139575404496    -0.320956297203    15.994914619570
         O            1.761246066600     0.858718404496     1.139449702797    15.994914619570
         N            2.101967066600    -0.695887595504    -0.505672297203    14.003074004430
         C           -0.157419933400    -0.169050595504     0.110029702797    12.000000000000
         C           -1.032848933400     0.897546404496    -0.149935297203    12.000000000000
         C           -0.677791933400    -1.460992595504     0.244308702797    12.000000000000
         C            1.309921066600     0.079283404496     0.299549702797    12.000000000000
         C           -2.405047933400     0.660650404496    -0.266768297203    12.000000000000
         C           -2.049321933400    -1.698412595504     0.137190702797    12.000000000000
         C           -2.911039933400    -0.631668595504    -0.116638297203    12.000000000000
         C            3.544593066600    -0.529487595504    -0.497113297203    12.000000000000
         H            0.005462066600    -2.279416595504     0.460829702797     1.007825032230
         H           -3.080040933400     1.489893404496    -0.476334297203     1.007825032230
         H           -2.441123933400    -2.704709595504     0.257749702797     1.007825032230
         H           -3.981885933400    -0.798948595504    -0.203125297203     1.007825032230
         H            1.665064066600    -1.133920595504    -1.306221297203     1.007825032230
         H            3.865187066600     0.326480404496    -1.101024297203     1.007825032230
         H            3.927359766600    -1.271821495504    -0.809005397203     1.007825032230
         H            3.859827066600    -0.360241595504     0.532068702797     1.007825032230
         H           -1.203123933400     2.776336404496    -0.468820297203     1.007825032230

  Basis Set: AUG-CC-PVTZ
    Blend: AUG-CC-PVTZ
  Basis Set: (AUG-CC-PVTZ AUX)
    Blend: AUG-CC-PVTZ-JKFIT
	 Reference Energy          =    -512.5175440363393591 [Eh]
	 Singles Energy            =      -0.0000000000000000 [Eh]
	 Same-Spin Energy          =      -0.5372280275790918 [Eh]
	 Opposite-Spin Energy      =      -1.6455025562678585 [Eh]
	 Correlation Energy        =      -2.1827305838469502 [Eh]
	 Total Energy              =    -514.7002746201862919 [Eh]

	 ================> DF-SCS-MP2 Energies <==================
	-----------------------------------------------------------
	 SCS Same-Spin Scale       =       0.3333333333333333 [-]
	 SCS Opposite-Spin Scale   =       1.2000000000000000 [-]
	 SCS Same-Spin Energy      =      -0.1790760091930306 [Eh]
	 SCS Opposite-Spin Energy  =      -1.9746030675214301 [Eh]
	 SCS Correlation Energy    =      -2.1536790767144609 [Eh]
	 SCS Total Energy          =    -514.6712231130537702 [Eh]
	-----------------------------------------------------------

  Dipole Moment: [D]
     X:    -1.6326      Y:    -1.6260      Z:    -3.0013     Total:     3.7838

*** Psi4 exiting successfully. Buy a developer a beer!
