                               Psi4 1.4a3.dev225

  ==> Input File <==

--------------------------------------------------------------------------
#psi4
#
memory 32 gb

molecule  {
0 1
  O       -0.4983720     2.1660820    -0.3008080
  O        1.7439460     0.8852250     1.1595980
  N        2.0846670    -0.6693810    -0.4855240
  C       -0.1747200    -0.1425440     0.1301780
  C       -1.0501490     0.9240530    -0.1297870
  C       -0.6950920    -1.4344860     0.2644570
  C        1.2926210     0.1057900     0.3196980
  C       -2.4223480     0.6871570    -0.2466200
  C       -2.0666220    -1.6719060     0.1573390
  C       -2.9283400    -0.6051620    -0.0964900
  C        3.5272930    -0.5029810    -0.4769650
  H       -0.0432403    -2.2152953     0.4710267
  H       -3.0973410     1.5164000    -0.4561860
  H       -2.4584240    -2.6782030     0.2778980
  H       -3.9991860    -0.7724420    -0.1829770
  H        1.6477640    -1.1074140    -1.2860730
  H        3.8478870     0.3529870    -1.0808760
  H        3.9959260    -1.4118430    -0.8588240
  H        3.8425270    -0.3337350     0.5522170
  H       -1.2204240     2.8028430    -0.4486720
units angstrom
no_reorient  #important for SAPT in psi4, default
symmetry c1  #important for SAPT in psi4, default
}

set PROPERTIES_ORIGIN ["COM"]
properties('MP2/aug-cc-pvtz', properties = ['dipole'])
--------------------------------------------------------------------------

    Molecular point group: c1
  Charge       = 0
  Multiplicity = 1
  Basis Set: AUG-CC-PVTZ
    Blend: AUG-CC-PVTZ
  Basis Set: (AUG-CC-PVTZ AUX)
    Blend: AUG-CC-PVTZ-JKFIT

    Orbital Energies [Eh]
    ---------------------

    Doubly Occupied:

       1A    -20.597548     2A    -20.513133     3A    -15.584090
       4A    -11.350044     5A    -11.320091     6A    -11.256460
       7A    -11.256051     8A    -11.251684     9A    -11.249015
      10A    -11.246430    11A    -11.240045    12A     -1.409769
      13A     -1.367074    14A     -1.225471    15A     -1.160206
      16A     -1.047248    17A     -1.018566    18A     -0.950420
      19A     -0.867537    20A     -0.844630    21A     -0.783182
      22A     -0.745625    23A     -0.724117    24A     -0.675497
      25A     -0.648286    26A     -0.636165    27A     -0.622781
      28A     -0.614204    29A     -0.595571    30A     -0.586923
      31A     -0.575220    32A     -0.545296    33A     -0.536631
      34A     -0.523222    35A     -0.512180    36A     -0.489555
      37A     -0.421491    38A     -0.389008    39A     -0.354172
      40A     -0.325910

  @DF-RHF Final Energy:  -512.55136746483231

   => Energetics <=

    Nuclear Repulsion Energy =            587.4219933866311294
    One-Electron Energy =               -1863.8256238071764983
    Two-Electron Energy =                 763.8522629557130585
    Total Energy =                       -512.5513674648323104
  Basis Set: (AUG-CC-PVTZ AUX)
    Blend: AUG-CC-PVTZ-RI
    Molecular point group: c1

    Geometry (in Angstrom), charge = 0, multiplicity = 1:

       Center              X                  Y                   Z               Mass
    ------------   -----------------  -----------------  -----------------  -----------------
         O           -0.481435292152     2.140435455395    -0.320423119739    15.994914619570
         O            1.760882707848     0.859578455395     1.139982880261    15.994914619570
         N            2.101603707848    -0.695027544605    -0.505139119739    14.003074004430
         C           -0.157783292152    -0.168190544605     0.110562880261    12.000000000000
         C           -1.033212292152     0.898406455395    -0.149402119739    12.000000000000
         C           -0.678155292152    -1.460132544605     0.244841880261    12.000000000000
         C            1.309557707848     0.080143455395     0.300082880261    12.000000000000
         C           -2.405411292152     0.661510455395    -0.266235119739    12.000000000000
         C           -2.049685292152    -1.697552544605     0.137723880261    12.000000000000
         C           -2.911403292152    -0.630808544605    -0.116105119739    12.000000000000
         C            3.544229707848    -0.528627544605    -0.496580119739    12.000000000000
         H           -0.026303592152    -2.240941844605     0.451411580261     1.007825032230
         H           -3.080404292152     1.490753455395    -0.475801119739     1.007825032230
         H           -2.441487292152    -2.703849544605     0.258282880261     1.007825032230
         H           -3.982249292152    -0.798088544605    -0.202592119739     1.007825032230
         H            1.664700707848    -1.133060544605    -1.305688119739     1.007825032230
         H            3.864823707848     0.327340455395    -1.100491119739     1.007825032230
         H            4.012862707848    -1.437489544605    -0.878439119739     1.007825032230
         H            3.859463707848    -0.359381544605     0.532601880261     1.007825032230
         H           -1.203487292152     2.777196455395    -0.468287119739     1.007825032230

  Basis Set: AUG-CC-PVTZ
    Blend: AUG-CC-PVTZ
  Basis Set: (AUG-CC-PVTZ AUX)
    Blend: AUG-CC-PVTZ-JKFIT
	 Reference Energy          =    -512.5513674648323104 [Eh]
	 Singles Energy            =      -0.0000000000000000 [Eh]
	 Same-Spin Energy          =      -0.5369322382812097 [Eh]
	 Opposite-Spin Energy      =      -1.6457485083424570 [Eh]
	 Correlation Energy        =      -2.1826807466236668 [Eh]
	 Total Energy              =    -514.7340482114559563 [Eh]

	 ================> DF-SCS-MP2 Energies <==================
	-----------------------------------------------------------
	 SCS Same-Spin Scale       =       0.3333333333333333 [-]
	 SCS Opposite-Spin Scale   =       1.2000000000000000 [-]
	 SCS Same-Spin Energy      =      -0.1789774127604032 [Eh]
	 SCS Opposite-Spin Energy  =      -1.9748982100109482 [Eh]
	 SCS Correlation Energy    =      -2.1538756227713516 [Eh]
	 SCS Total Energy          =    -514.7052430876036624 [Eh]
	-----------------------------------------------------------

  Dipole Moment: [D]
     X:    -1.7018      Y:    -1.5876      Z:    -2.9726     Total:     3.7753

*** Psi4 exiting successfully. Buy a developer a beer!
