                               Psi4 1.4a3.dev225

  ==> Input File <==

--------------------------------------------------------------------------
#psi4
#
memory 32 gb

molecule  {
0 1
  O       -0.4983720     2.1660820    -0.3008080
  O        1.7439460     0.8852250     1.1595980
  N        2.0846670    -0.6693810    -0.4855240
  C       -0.1747200    -0.1425440     0.1301780
  C       -1.0501490     0.9240530    -0.1297870
  C       -0.6950920    -1.4344860     0.2644570
  C        1.2926210     0.1057900     0.3196980
  C       -2.4027085     0.6905475    -0.2449478
  C       -2.0666220    -1.6719060     0.1573390
  C       -2.9283400    -0.6051620    -0.0964900
  C        3.5272930    -0.5029810    -0.4769650
  H       -0.0118380    -2.2529100     0.4809780
  H       -3.0973410     1.5164000    -0.4561860
  H       -2.4584240    -2.6782030     0.2778980
  H       -3.9991860    -0.7724420    -0.1829770
  H        1.6477640    -1.1074140    -1.2860730
  H        3.8478870     0.3529870    -1.0808760
  H        3.9959260    -1.4118430    -0.8588240
  H        3.8425270    -0.3337350     0.5522170
  H       -1.2204240     2.8028430    -0.4486720
units angstrom
no_reorient  #important for SAPT in psi4, default
symmetry c1  #important for SAPT in psi4, default
}

set PROPERTIES_ORIGIN ["COM"]
properties('MP2/aug-cc-pvtz', properties = ['dipole'])
--------------------------------------------------------------------------

    Molecular point group: c1
  Charge       = 0
  Multiplicity = 1
  Basis Set: AUG-CC-PVTZ
    Blend: AUG-CC-PVTZ
  Basis Set: (AUG-CC-PVTZ AUX)
    Blend: AUG-CC-PVTZ-JKFIT

    Orbital Energies [Eh]
    ---------------------

    Doubly Occupied:

       1A    -20.596518     2A    -20.513192     3A    -15.583981
       4A    -11.350141     5A    -11.317664     6A    -11.257867
       7A    -11.257319     8A    -11.256003     9A    -11.250085
      10A    -11.245898    11A    -11.240848    12A     -1.409354
      13A     -1.367100    14A     -1.225399    15A     -1.160845
      16A     -1.045581    17A     -1.020002    18A     -0.950206
      19A     -0.866337    20A     -0.843433    21A     -0.783406
      22A     -0.741884    23A     -0.723530    24A     -0.675694
      25A     -0.647553    26A     -0.635907    27A     -0.619004
      28A     -0.611886    29A     -0.596004    30A     -0.586289
      31A     -0.574774    32A     -0.545238    33A     -0.534605
      34A     -0.524077    35A     -0.510581    36A     -0.489646
      37A     -0.421691    38A     -0.388861    39A     -0.353245
      40A     -0.328164

  @DF-RHF Final Energy:  -512.55167212562264

   => Energetics <=

    Nuclear Repulsion Energy =            587.4723204970987354
    One-Electron Energy =               -1863.9483601508250104
    Two-Electron Energy =                 763.9243675281036303
    Total Energy =                       -512.5516721256226447
  Basis Set: (AUG-CC-PVTZ AUX)
    Blend: AUG-CC-PVTZ-RI
    Molecular point group: c1

    Geometry (in Angstrom), charge = 0, multiplicity = 1:

       Center              X                  Y                   Z               Mass
    ------------   -----------------  -----------------  -----------------  -----------------
         O           -0.483204894521     2.140417072616    -0.320622344591    15.994914619570
         O            1.759113105479     0.859560072616     1.139783655409    15.994914619570
         N            2.099834105479    -0.695045927384    -0.505338344591    14.003074004430
         C           -0.159552894521    -0.168208927384     0.110363655409    12.000000000000
         C           -1.034981894521     0.898388072616    -0.149601344591    12.000000000000
         C           -0.679924894521    -1.460150927384     0.244642655409    12.000000000000
         C            1.307788105479     0.080125072616     0.299883655409    12.000000000000
         C           -2.387541394521     0.664882572616    -0.264762144591    12.000000000000
         C           -2.051454894521    -1.697570927384     0.137524655409    12.000000000000
         C           -2.913172894521    -0.630826927384    -0.116304344591    12.000000000000
         C            3.542460105479    -0.528645927384    -0.496779344591    12.000000000000
         H            0.003329105479    -2.278574927384     0.461163655409     1.007825032230
         H           -3.082173894521     1.490735072616    -0.476000344591     1.007825032230
         H           -2.443256894521    -2.703867927384     0.258083655409     1.007825032230
         H           -3.984018894521    -0.798106927384    -0.202791344591     1.007825032230
         H            1.662931105479    -1.133078927384    -1.305887344591     1.007825032230
         H            3.863054105479     0.327322072616    -1.100690344591     1.007825032230
         H            4.011093105479    -1.437507927384    -0.878638344591     1.007825032230
         H            3.857694105479    -0.359399927384     0.532402655409     1.007825032230
         H           -1.205256894521     2.777178072616    -0.468486344591     1.007825032230

  Basis Set: AUG-CC-PVTZ
    Blend: AUG-CC-PVTZ
  Basis Set: (AUG-CC-PVTZ AUX)
    Blend: AUG-CC-PVTZ-JKFIT
	 Reference Energy          =    -512.5516721256226447 [Eh]
	 Singles Energy            =      -0.0000000000000000 [Eh]
	 Same-Spin Energy          =      -0.5370635562683828 [Eh]
	 Opposite-Spin Energy      =      -1.6460629346853224 [Eh]
	 Correlation Energy        =      -2.1831264909537049 [Eh]
	 Total Energy              =    -514.7347986165763132 [Eh]

	 ================> DF-SCS-MP2 Energies <==================
	-----------------------------------------------------------
	 SCS Same-Spin Scale       =       0.3333333333333333 [-]
	 SCS Opposite-Spin Scale   =       1.2000000000000000 [-]
	 SCS Same-Spin Energy      =      -0.1790211854227942 [Eh]
	 SCS Opposite-Spin Energy  =      -1.9752755216223867 [Eh]
	 SCS Correlation Energy    =      -2.1542967070451811 [Eh]
	 SCS Total Energy          =    -514.7059688326678497 [Eh]
	-----------------------------------------------------------

  Dipole Moment: [D]
     X:    -1.7146      Y:    -1.6150      Z:    -2.9688     Total:     3.7897

*** Psi4 exiting successfully. Buy a developer a beer!
