                               Psi4 1.4a3.dev225

  ==> Input File <==

--------------------------------------------------------------------------
#psi4
#
memory 32 gb

molecule  {
0 1
  O       -0.4983720     2.1660820    -0.3008080
  O        1.7439460     0.8852250     1.1595980
  N        2.0846670    -0.6693810    -0.4855240
  C       -0.1747200    -0.1425440     0.1301780
  C       -1.0501490     0.9240530    -0.1297870
  C       -0.6950920    -1.4344860     0.2644570
  C        1.2926210     0.1057900     0.3196980
  C       -2.4223480     0.6871570    -0.2466200
  C       -2.0666220    -1.6719060     0.1573390
  C       -2.9283400    -0.6051620    -0.0964900
  C        3.5272930    -0.5029810    -0.4769650
  H       -0.0118380    -2.2529100     0.4809780
  H       -3.0973410     1.5164000    -0.4561860
  H       -2.4584240    -2.6782030     0.2778980
  H       -3.9991860    -0.7724420    -0.1829770
  H        1.6477640    -1.1074140    -1.2860730
  H        3.8478870     0.3529870    -1.0808760
  H        3.9959260    -1.4118430    -0.8588240
  H        3.8425270    -0.3337350     0.5522170
  H       -1.1462918     2.7374675    -0.4334910
units angstrom
no_reorient  #important for SAPT in psi4, default
symmetry c1  #important for SAPT in psi4, default
}

set PROPERTIES_ORIGIN ["COM"]
properties('MP2/aug-cc-pvtz', properties = ['dipole'])
--------------------------------------------------------------------------

    Molecular point group: c1
  Charge       = 0
  Multiplicity = 1
  Basis Set: AUG-CC-PVTZ
    Blend: AUG-CC-PVTZ
  Basis Set: (AUG-CC-PVTZ AUX)
    Blend: AUG-CC-PVTZ-JKFIT

    Orbital Energies [Eh]
    ---------------------

    Doubly Occupied:

       1A    -20.588595     2A    -20.513539     3A    -15.584315
       4A    -11.350494     5A    -11.321312     6A    -11.257775
       7A    -11.257307     8A    -11.256275     9A    -11.250191
      10A    -11.247483    11A    -11.241215    12A     -1.434312
      13A     -1.367850    14A     -1.225749    15A     -1.162200
      16A     -1.047729    17A     -1.021673    18A     -0.951116
      19A     -0.868516    20A     -0.851330    21A     -0.783806
      22A     -0.754477    23A     -0.727316    24A     -0.676934
      25A     -0.650156    26A     -0.636722    27A     -0.620999
      28A     -0.613334    29A     -0.598815    30A     -0.589341
      31A     -0.578201    32A     -0.545544    33A     -0.536765
      34A     -0.524110    35A     -0.511947    36A     -0.491052
      37A     -0.422019    38A     -0.389204    39A     -0.354835
      40A     -0.327492

  @DF-RHF Final Energy:  -512.54741047210132

   => Energetics <=

    Nuclear Repulsion Energy =            587.8718642162192509
    One-Electron Energy =               -1864.5744618429291677
    Two-Electron Energy =                 764.1551871546087114
    Total Energy =                       -512.5474104721013191
  Basis Set: (AUG-CC-PVTZ AUX)
    Blend: AUG-CC-PVTZ-RI
    Molecular point group: c1

    Geometry (in Angstrom), charge = 0, multiplicity = 1:

       Center              X                  Y                   Z               Mass
    ------------   -----------------  -----------------  -----------------  -----------------
         O           -0.482139369786     2.141122558629    -0.320590790882    15.994914619570
         O            1.760178630214     0.860265558629     1.139815209118    15.994914619570
         N            2.100899630214    -0.694340441371    -0.505306790882    14.003074004430
         C           -0.158487369786    -0.167503441371     0.110395209118    12.000000000000
         C           -1.033916369786     0.899093558629    -0.149569790882    12.000000000000
         C           -0.678859369786    -1.459445441371     0.244674209118    12.000000000000
         C            1.308853630214     0.080830558629     0.299915209118    12.000000000000
         C           -2.406115369786     0.662197558629    -0.266402790882    12.000000000000
         C           -2.050389369786    -1.696865441371     0.137556209118    12.000000000000
         C           -2.912107369786    -0.630121441371    -0.116272790882    12.000000000000
         C            3.543525630214    -0.527940441371    -0.496747790882    12.000000000000
         H            0.004394630214    -2.277869441371     0.461195209118     1.007825032230
         H           -3.081108369786     1.491440558629    -0.475968790882     1.007825032230
         H           -2.442191369786    -2.703162441371     0.258115209118     1.007825032230
         H           -3.982953369786    -0.797401441371    -0.202759790882     1.007825032230
         H            1.663996630214    -1.132373441371    -1.305855790882     1.007825032230
         H            3.864119630214     0.328027558629    -1.100658790882     1.007825032230
         H            4.012158630214    -1.436802441371    -0.878606790882     1.007825032230
         H            3.858759630214    -0.358694441371     0.532434209118     1.007825032230
         H           -1.130059169786     2.712508058629    -0.453273790882     1.007825032230

  Basis Set: AUG-CC-PVTZ
    Blend: AUG-CC-PVTZ
  Basis Set: (AUG-CC-PVTZ AUX)
    Blend: AUG-CC-PVTZ-JKFIT
	 Reference Energy          =    -512.5474104721013191 [Eh]
	 Singles Energy            =      -0.0000000000000000 [Eh]
	 Same-Spin Energy          =      -0.5357614037900061 [Eh]
	 Opposite-Spin Energy      =      -1.6430443532840693 [Eh]
	 Correlation Energy        =      -2.1788057570740755 [Eh]
	 Total Energy              =    -514.7262162291754066 [Eh]

	 ================> DF-SCS-MP2 Energies <==================
	-----------------------------------------------------------
	 SCS Same-Spin Scale       =       0.3333333333333333 [-]
	 SCS Opposite-Spin Scale   =       1.2000000000000000 [-]
	 SCS Same-Spin Energy      =      -0.1785871345966687 [Eh]
	 SCS Opposite-Spin Energy  =      -1.9716532239408830 [Eh]
	 SCS Correlation Energy    =      -2.1502403585375518 [Eh]
	 SCS Total Energy          =    -514.6976508306388496 [Eh]
	-----------------------------------------------------------

  Dipole Moment: [D]
     X:    -1.6651      Y:    -1.6909      Z:    -2.9567     Total:     3.7913

*** Psi4 exiting successfully. Buy a developer a beer!
