                               Psi4 1.4a3.dev225

  ==> Input File <==

--------------------------------------------------------------------------
#psi4
#
memory 32 gb

molecule  {
0 1
  O       -0.4983720     2.1660820    -0.3008080
  O        1.7439460     0.8852250     1.1595980
  N        2.0846670    -0.6693810    -0.4855240
  C       -0.1747200    -0.1425440     0.1301780
  C       -1.0501490     0.9240530    -0.1297870
  C       -0.7252029    -1.2938502     0.2386137
  C        1.2926210     0.1057900     0.3196980
  C       -2.4223480     0.6871570    -0.2466200
  C       -2.0666220    -1.6719060     0.1573390
  C       -2.9283400    -0.6051620    -0.0964900
  C        3.5272930    -0.5029810    -0.4769650
  H       -0.0118380    -2.2529100     0.4809780
  H       -3.0973410     1.5164000    -0.4561860
  H       -2.4584240    -2.6782030     0.2778980
  H       -3.9991860    -0.7724420    -0.1829770
  H        1.6477640    -1.1074140    -1.2860730
  H        3.8478870     0.3529870    -1.0808760
  H        3.9959260    -1.4118430    -0.8588240
  H        3.8425270    -0.3337350     0.5522170
  H       -1.2204240     2.8028430    -0.4486720
units angstrom
no_reorient  #important for SAPT in psi4, default
symmetry c1  #important for SAPT in psi4, default
}

set PROPERTIES_ORIGIN ["COM"]
properties('MP2/aug-cc-pvtz', properties = ['dipole'])
--------------------------------------------------------------------------

    Molecular point group: c1
  Charge       = 0
  Multiplicity = 1
  Basis Set: AUG-CC-PVTZ
    Blend: AUG-CC-PVTZ
  Basis Set: (AUG-CC-PVTZ AUX)
    Blend: AUG-CC-PVTZ-JKFIT

    Orbital Energies [Eh]
    ---------------------

    Doubly Occupied:

       1A    -20.599038     2A    -20.515969     3A    -15.585255
       4A    -11.353499     5A    -11.322134     6A    -11.256842
       7A    -11.255440     8A    -11.254042     9A    -11.241861
      10A    -11.238860    11A    -11.238363    12A     -1.411299
      13A     -1.369605    14A     -1.227294    15A     -1.176247
      16A     -1.059065    17A     -1.012949    18A     -0.953071
      19A     -0.859123    20A     -0.851440    21A     -0.787978
      22A     -0.741297    23A     -0.721953    24A     -0.683516
      25A     -0.649060    26A     -0.638497    27A     -0.617949
      28A     -0.602151    29A     -0.598398    30A     -0.583853
      31A     -0.579697    32A     -0.546181    33A     -0.539877
      34A     -0.524184    35A     -0.497583    36A     -0.487171
      37A     -0.423282    38A     -0.389340    39A     -0.368424
      40A     -0.323130

  @DF-RHF Final Energy:  -512.52554127255121

   => Energetics <=

    Nuclear Repulsion Energy =            589.8641971862886066
    One-Electron Energy =               -1868.6096442820021366
    Two-Electron Energy =                 766.2199058231624349
    Total Energy =                       -512.5255412725512087
  Basis Set: (AUG-CC-PVTZ AUX)
    Blend: AUG-CC-PVTZ-RI
    Molecular point group: c1

    Geometry (in Angstrom), charge = 0, multiplicity = 1:

       Center              X                  Y                   Z               Mass
    ------------   -----------------  -----------------  -----------------  -----------------
         O           -0.479252877802     2.129514733736    -0.318436599028    15.994914619570
         O            1.763065122198     0.848657733736     1.141969400972    15.994914619570
         N            2.103786122198    -0.705948266264    -0.503152599028    14.003074004430
         C           -0.155600877802    -0.179111266264     0.112549400972    12.000000000000
         C           -1.031029877802     0.887485733736    -0.147415599028    12.000000000000
         C           -0.706083777802    -1.330417466264     0.220985100972    12.000000000000
         C            1.311740122198     0.069222733736     0.302069400972    12.000000000000
         C           -2.403228877802     0.650589733736    -0.264248599028    12.000000000000
         C           -2.047502877802    -1.708473266264     0.139710400972    12.000000000000
         C           -2.909220877802    -0.641729266264    -0.114118599028    12.000000000000
         C            3.546412122198    -0.539548266264    -0.494593599028    12.000000000000
         H            0.007281122198    -2.289477266264     0.463349400972     1.007825032230
         H           -3.078221877802     1.479832733736    -0.473814599028     1.007825032230
         H           -2.439304877802    -2.714770266264     0.260269400972     1.007825032230
         H           -3.980066877802    -0.809009266264    -0.200605599028     1.007825032230
         H            1.666883122198    -1.143981266264    -1.303701599028     1.007825032230
         H            3.867006122198     0.316419733736    -1.098504599028     1.007825032230
         H            4.015045122198    -1.448410266264    -0.876452599028     1.007825032230
         H            3.861646122198    -0.370302266264     0.534588400972     1.007825032230
         H           -1.201304877802     2.766275733736    -0.466300599028     1.007825032230

  Basis Set: AUG-CC-PVTZ
    Blend: AUG-CC-PVTZ
  Basis Set: (AUG-CC-PVTZ AUX)
    Blend: AUG-CC-PVTZ-JKFIT
	 Reference Energy          =    -512.5255412725512087 [Eh]
	 Singles Energy            =      -0.0000000000000000 [Eh]
	 Same-Spin Energy          =      -0.5371947825778444 [Eh]
	 Opposite-Spin Energy      =      -1.6467528772178726 [Eh]
	 Correlation Energy        =      -2.1839476597957170 [Eh]
	 Total Energy              =    -514.7094889323469715 [Eh]

	 ================> DF-SCS-MP2 Energies <==================
	-----------------------------------------------------------
	 SCS Same-Spin Scale       =       0.3333333333333333 [-]
	 SCS Opposite-Spin Scale   =       1.2000000000000000 [-]
	 SCS Same-Spin Energy      =      -0.1790649275259481 [Eh]
	 SCS Opposite-Spin Energy  =      -1.9761034526614469 [Eh]
	 SCS Correlation Energy    =      -2.1551683801873951 [Eh]
	 SCS Total Energy          =    -514.6807096527386420 [Eh]
	-----------------------------------------------------------

  Dipole Moment: [D]
     X:    -1.6461      Y:    -1.5096      Z:    -2.9938     Total:     3.7351

*** Psi4 exiting successfully. Buy a developer a beer!
