                               Psi4 1.4a3.dev225

  ==> Input File <==

--------------------------------------------------------------------------
#psi4
#
memory 32 gb

molecule  {
0 1
  O       -0.4983720     2.1660820    -0.3008080
  O        1.7439460     0.8852250     1.1595980
  N        2.0846670    -0.6693810    -0.4855240
  C       -0.1747200    -0.1425440     0.1301780
  C       -1.0061487     0.9061928    -0.1242174
  C       -0.6950920    -1.4344860     0.2644570
  C        1.2926210     0.1057900     0.3196980
  C       -2.4223480     0.6871570    -0.2466200
  C       -2.0666220    -1.6719060     0.1573390
  C       -2.9283400    -0.6051620    -0.0964900
  C        3.5272930    -0.5029810    -0.4769650
  H       -0.0118380    -2.2529100     0.4809780
  H       -3.0973410     1.5164000    -0.4561860
  H       -2.4584240    -2.6782030     0.2778980
  H       -3.9991860    -0.7724420    -0.1829770
  H        1.6477640    -1.1074140    -1.2860730
  H        3.8478870     0.3529870    -1.0808760
  H        3.9959260    -1.4118430    -0.8588240
  H        3.8425270    -0.3337350     0.5522170
  H       -1.2204240     2.8028430    -0.4486720
units angstrom
no_reorient  #important for SAPT in psi4, default
symmetry c1  #important for SAPT in psi4, default
}

set PROPERTIES_ORIGIN ["COM"]
properties('MP2/aug-cc-pvtz', properties = ['dipole'])
--------------------------------------------------------------------------

    Molecular point group: c1
  Charge       = 0
  Multiplicity = 1
  Basis Set: AUG-CC-PVTZ
    Blend: AUG-CC-PVTZ
  Basis Set: (AUG-CC-PVTZ AUX)
    Blend: AUG-CC-PVTZ-JKFIT

    Orbital Energies [Eh]
    ---------------------

    Doubly Occupied:

       1A    -20.596000     2A    -20.513459     3A    -15.584041
       4A    -11.349816     5A    -11.320334     6A    -11.257824
       7A    -11.256162     8A    -11.256086     9A    -11.250786
      10A    -11.245004    11A    -11.240633    12A     -1.408133
      13A     -1.367308    14A     -1.225602    15A     -1.160916
      16A     -1.049873    17A     -1.014292    18A     -0.951061
      19A     -0.865266    20A     -0.844283    21A     -0.782707
      22A     -0.745163    23A     -0.721589    24A     -0.674357
      25A     -0.653803    26A     -0.637304    27A     -0.619301
      28A     -0.611614    29A     -0.595107    30A     -0.584782
      31A     -0.574109    32A     -0.545384    33A     -0.535181
      34A     -0.519479    35A     -0.513568    36A     -0.489504
      37A     -0.421005    38A     -0.389066    39A     -0.355096
      40A     -0.325961

  @DF-RHF Final Energy:  -512.54968379189268

   => Energetics <=

    Nuclear Repulsion Energy =            587.5596032100029333
    One-Electron Energy =               -1864.1166506391866733
    Two-Electron Energy =                 764.0073636372910642
    Total Energy =                       -512.5496837918926758
  Basis Set: (AUG-CC-PVTZ AUX)
    Blend: AUG-CC-PVTZ-RI
    Molecular point group: c1

    Geometry (in Angstrom), charge = 0, multiplicity = 1:

       Center              X                  Y                   Z               Mass
    ------------   -----------------  -----------------  -----------------  -----------------
         O           -0.485140040548     2.142105161992    -0.320931941900    15.994914619570
         O            1.757177959452     0.861248161992     1.139474058100    15.994914619570
         N            2.097898959452    -0.693357838008    -0.505647941900    14.003074004430
         C           -0.161488040548    -0.166520838008     0.110054058100    12.000000000000
         C           -0.992916740548     0.882215961992    -0.144341341900    12.000000000000
         C           -0.681860040548    -1.458462838008     0.244333058100    12.000000000000
         C            1.305852959452     0.081813161992     0.299574058100    12.000000000000
         C           -2.409116040548     0.663180161992    -0.266743941900    12.000000000000
         C           -2.053390040548    -1.695882838008     0.137215058100    12.000000000000
         C           -2.915108040548    -0.629138838008    -0.116613941900    12.000000000000
         C            3.540524959452    -0.526957838008    -0.497088941900    12.000000000000
         H            0.001393959452    -2.276886838008     0.460854058100     1.007825032230
         H           -3.084109040548     1.492423161992    -0.476309941900     1.007825032230
         H           -2.445192040548    -2.702179838008     0.257774058100     1.007825032230
         H           -3.985954040548    -0.796418838008    -0.203100941900     1.007825032230
         H            1.660995959452    -1.131390838008    -1.306196941900     1.007825032230
         H            3.861118959452     0.329010161992    -1.100999941900     1.007825032230
         H            4.009157959452    -1.435819838008    -0.878947941900     1.007825032230
         H            3.855758959452    -0.357711838008     0.532093058100     1.007825032230
         H           -1.207192040548     2.778866161992    -0.468795941900     1.007825032230

  Basis Set: AUG-CC-PVTZ
    Blend: AUG-CC-PVTZ
  Basis Set: (AUG-CC-PVTZ AUX)
    Blend: AUG-CC-PVTZ-JKFIT
	 Reference Energy          =    -512.5496837918926758 [Eh]
	 Singles Energy            =      -0.0000000000000000 [Eh]
	 Same-Spin Energy          =      -0.5368614815297248 [Eh]
	 Opposite-Spin Energy      =      -1.6458845487493239 [Eh]
	 Correlation Energy        =      -2.1827460302790485 [Eh]
	 Total Energy              =    -514.7324298221717527 [Eh]

	 ================> DF-SCS-MP2 Energies <==================
	-----------------------------------------------------------
	 SCS Same-Spin Scale       =       0.3333333333333333 [-]
	 SCS Opposite-Spin Scale   =       1.2000000000000000 [-]
	 SCS Same-Spin Energy      =      -0.1789538271765749 [Eh]
	 SCS Opposite-Spin Energy  =      -1.9750614584991886 [Eh]
	 SCS Correlation Energy    =      -2.1540152856757633 [Eh]
	 SCS Total Energy          =    -514.7036990775684444 [Eh]
	-----------------------------------------------------------

  Dipole Moment: [D]
     X:    -1.7053      Y:    -1.5997      Z:    -2.9683     Total:     3.7786

*** Psi4 exiting successfully. Buy a developer a beer!
