                               Psi4 1.4a3.dev225

  ==> Input File <==

--------------------------------------------------------------------------
#psi4
#
memory 32 gb

molecule  {
0 1
  O       -0.4983720     2.1660820    -0.3008080
  O        1.7439460     0.8852250     1.1595980
  N        2.0846670    -0.6693810    -0.4855240
  C       -0.1747200    -0.1425440     0.1301780
  C       -1.0501490     0.9240530    -0.1297870
  C       -0.6950920    -1.4344860     0.2644570
  C        1.2926210     0.1057900     0.3196980
  C       -2.3241507     0.7041097    -0.2382592
  C       -2.0666220    -1.6719060     0.1573390
  C       -2.9283400    -0.6051620    -0.0964900
  C        3.5272930    -0.5029810    -0.4769650
  H       -0.0118380    -2.2529100     0.4809780
  H       -3.0973410     1.5164000    -0.4561860
  H       -2.4584240    -2.6782030     0.2778980
  H       -3.9991860    -0.7724420    -0.1829770
  H        1.6477640    -1.1074140    -1.2860730
  H        3.8478870     0.3529870    -1.0808760
  H        3.9959260    -1.4118430    -0.8588240
  H        3.8425270    -0.3337350     0.5522170
  H       -1.2204240     2.8028430    -0.4486720
units angstrom
no_reorient  #important for SAPT in psi4, default
symmetry c1  #important for SAPT in psi4, default
}

set PROPERTIES_ORIGIN ["COM"]
properties('MP2/aug-cc-pvtz', properties = ['dipole'])
--------------------------------------------------------------------------

    Molecular point group: c1
  Charge       = 0
  Multiplicity = 1
  Basis Set: AUG-CC-PVTZ
    Blend: AUG-CC-PVTZ
  Basis Set: (AUG-CC-PVTZ AUX)
    Blend: AUG-CC-PVTZ-JKFIT

    Orbital Energies [Eh]
    ---------------------

    Doubly Occupied:

       1A    -20.591340     2A    -20.513447     3A    -15.584217
       4A    -11.350503     5A    -11.305225     6A    -11.262364
       7A    -11.257395     8A    -11.256079     9A    -11.252431
      10A    -11.242815    11A    -11.242772    12A     -1.406943
      13A     -1.367278    14A     -1.225618    15A     -1.165020
      16A     -1.041579    17A     -1.030806    18A     -0.949739
      19A     -0.871880    20A     -0.838711    21A     -0.784562
      22A     -0.740190    23A     -0.723562    24A     -0.677444
      25A     -0.645226    26A     -0.635197    27A     -0.618616
      28A     -0.609751    29A     -0.597610    30A     -0.586543
      31A     -0.572093    32A     -0.545351    33A     -0.534129
      34A     -0.526204    35A     -0.502885    36A     -0.489180
      37A     -0.422316    38A     -0.388974    39A     -0.352007
      40A     -0.335009

  @DF-RHF Final Energy:  -512.53869824426033

   => Energetics <=

    Nuclear Repulsion Energy =            588.7833559124626390
    One-Electron Energy =               -1866.5580894772788270
    Two-Electron Energy =                 765.2360353205558567
    Total Energy =                       -512.5386982442603312
  Basis Set: (AUG-CC-PVTZ AUX)
    Blend: AUG-CC-PVTZ-RI
    Molecular point group: c1

    Geometry (in Angstrom), charge = 0, multiplicity = 1:

       Center              X                  Y                   Z               Mass
    ------------   -----------------  -----------------  -----------------  -----------------
         O           -0.489445281312     2.139339733717    -0.321153666128    15.994914619570
         O            1.752872718688     0.858482733717     1.139252333872    15.994914619570
         N            2.093593718688    -0.696123266283    -0.505869666128    14.003074004430
         C           -0.165793281312    -0.169286266283     0.109832333872    12.000000000000
         C           -1.041222281312     0.897310733717    -0.150132666128    12.000000000000
         C           -0.686165281312    -1.461228266283     0.244111333872    12.000000000000
         C            1.301547718688     0.079047733717     0.299352333872    12.000000000000
         C           -2.315223981312     0.677367433717    -0.258604866128    12.000000000000
         C           -2.057695281312    -1.698648266283     0.136993333872    12.000000000000
         C           -2.919413281312    -0.631904266283    -0.116835666128    12.000000000000
         C            3.536219718688    -0.529723266283    -0.497310666128    12.000000000000
         H           -0.002911281312    -2.279652266283     0.460632333872     1.007825032230
         H           -3.088414281312     1.489657733717    -0.476531666128     1.007825032230
         H           -2.449497281312    -2.704945266283     0.257552333872     1.007825032230
         H           -3.990259281312    -0.799184266283    -0.203322666128     1.007825032230
         H            1.656690718688    -1.134156266283    -1.306418666128     1.007825032230
         H            3.856813718688     0.326244733717    -1.101221666128     1.007825032230
         H            4.004852718688    -1.438585266283    -0.879169666128     1.007825032230
         H            3.851453718688    -0.360477266283     0.531871333872     1.007825032230
         H           -1.211497281312     2.776100733717    -0.469017666128     1.007825032230

  Basis Set: AUG-CC-PVTZ
    Blend: AUG-CC-PVTZ
  Basis Set: (AUG-CC-PVTZ AUX)
    Blend: AUG-CC-PVTZ-JKFIT
	 Reference Energy          =    -512.5386982442603312 [Eh]
	 Singles Energy            =      -0.0000000000000000 [Eh]
	 Same-Spin Energy          =      -0.5369788842578147 [Eh]
	 Opposite-Spin Energy      =      -1.6464355108767048 [Eh]
	 Correlation Energy        =      -2.1834143951345197 [Eh]
	 Total Energy              =    -514.7221126393948225 [Eh]

	 ================> DF-SCS-MP2 Energies <==================
	-----------------------------------------------------------
	 SCS Same-Spin Scale       =       0.3333333333333333 [-]
	 SCS Opposite-Spin Scale   =       1.2000000000000000 [-]
	 SCS Same-Spin Energy      =      -0.1789929614192716 [Eh]
	 SCS Opposite-Spin Energy  =      -1.9757226130520458 [Eh]
	 SCS Correlation Energy    =      -2.1547155744713171 [Eh]
	 SCS Total Energy          =    -514.6934138187316421 [Eh]
	-----------------------------------------------------------

  Dipole Moment: [D]
     X:    -1.7448      Y:    -1.7709      Z:    -2.9456     Total:     3.8545

*** Psi4 exiting successfully. Buy a developer a beer!
