                               Psi4 1.4a3.dev225

  ==> Input File <==

--------------------------------------------------------------------------
#psi4
#
memory 32 gb

molecule  {
0 1
  O       -0.4983720     2.1660820    -0.3008080
  O        1.7439460     0.8852250     1.1595980
  N        2.0846670    -0.6693810    -0.4855240
  C       -0.1747200    -0.1425440     0.1301780
  C       -1.0501490     0.9240530    -0.1297870
  C       -0.6950920    -1.4344860     0.2644570
  C        1.2926210     0.1057900     0.3196980
  C       -2.4223480     0.6871570    -0.2466200
  C       -2.0666220    -1.6719060     0.1573390
  C       -2.9283400    -0.6051620    -0.0964900
  C        3.5272930    -0.5029810    -0.4769650
  H       -0.0118380    -2.2529100     0.4809780
  H       -3.2212410     1.6686138    -0.4946534
  H       -2.4584240    -2.6782030     0.2778980
  H       -3.9991860    -0.7724420    -0.1829770
  H        1.6477640    -1.1074140    -1.2860730
  H        3.8478870     0.3529870    -1.0808760
  H        3.9959260    -1.4118430    -0.8588240
  H        3.8425270    -0.3337350     0.5522170
  H       -1.2204240     2.8028430    -0.4486720
units angstrom
no_reorient  #important for SAPT in psi4, default
symmetry c1  #important for SAPT in psi4, default
}

set PROPERTIES_ORIGIN ["COM"]
properties('MP2/aug-cc-pvtz', properties = ['dipole'])
--------------------------------------------------------------------------

    Molecular point group: c1
  Charge       = 0
  Multiplicity = 1
  Basis Set: AUG-CC-PVTZ
    Blend: AUG-CC-PVTZ
  Basis Set: (AUG-CC-PVTZ AUX)
    Blend: AUG-CC-PVTZ-JKFIT

    Orbital Energies [Eh]
    ---------------------

    Doubly Occupied:

       1A    -20.597197     2A    -20.513860     3A    -15.584633
       4A    -11.351038     5A    -11.322978     6A    -11.268409
       7A    -11.259227     8A    -11.258558     9A    -11.256467
      10A    -11.251365    11A    -11.242282    12A     -1.409564
      13A     -1.367749    14A     -1.226042    15A     -1.161122
      16A     -1.045991    17A     -1.016129    18A     -0.950880
      19A     -0.862369    20A     -0.842567    21A     -0.782992
      22A     -0.736875    23A     -0.722558    24A     -0.675489
      25A     -0.645968    26A     -0.635778    27A     -0.617225
      28A     -0.596319    29A     -0.594656    30A     -0.586716
      31A     -0.573127    32A     -0.545619    33A     -0.534543
      34A     -0.522552    35A     -0.502064    36A     -0.491099
      37A     -0.422163    38A     -0.389434    39A     -0.355946
      40A     -0.327598

  @DF-RHF Final Energy:  -512.53014471731512

   => Energetics <=

    Nuclear Repulsion Energy =            586.2033757446214395
    One-Electron Energy =               -1861.3727383621762783
    Two-Electron Energy =                 762.6392179002396006
    Total Energy =                       -512.5301447173151246
  Basis Set: (AUG-CC-PVTZ AUX)
    Blend: AUG-CC-PVTZ-RI
    Molecular point group: c1

    Geometry (in Angstrom), charge = 0, multiplicity = 1:

       Center              X                  Y                   Z               Mass
    ------------   -----------------  -----------------  -----------------  -----------------
         O           -0.480818190051     2.139670902920    -0.320232873438    15.994914619570
         O            1.761499809949     0.858813902920     1.140173126562    15.994914619570
         N            2.102220809949    -0.695792097080    -0.504948873438    14.003074004430
         C           -0.157166190051    -0.168955097080     0.110753126562    12.000000000000
         C           -1.032595190051     0.897641902920    -0.149211873438    12.000000000000
         C           -0.677538190051    -1.460897097080     0.245032126562    12.000000000000
         C            1.310174809949     0.079378902920     0.300273126562    12.000000000000
         C           -2.404794190051     0.660745902920    -0.266044873438    12.000000000000
         C           -2.049068190051    -1.698317097080     0.137914126562    12.000000000000
         C           -2.910786190051    -0.631573097080    -0.115914873438    12.000000000000
         C            3.544846809949    -0.529392097080    -0.496389873438    12.000000000000
         H            0.005715809949    -2.279321097080     0.461553126562     1.007825032230
         H           -3.203687190051     1.642202702920    -0.514078273438     1.007825032230
         H           -2.440870190051    -2.704614097080     0.258473126562     1.007825032230
         H           -3.981632190051    -0.798853097080    -0.202401873438     1.007825032230
         H            1.665317809949    -1.133825097080    -1.305497873438     1.007825032230
         H            3.865440809949     0.326575902920    -1.100300873438     1.007825032230
         H            4.013479809949    -1.438254097080    -0.878248873438     1.007825032230
         H            3.860080809949    -0.360146097080     0.532792126562     1.007825032230
         H           -1.202870190051     2.776431902920    -0.468096873438     1.007825032230

  Basis Set: AUG-CC-PVTZ
    Blend: AUG-CC-PVTZ
  Basis Set: (AUG-CC-PVTZ AUX)
    Blend: AUG-CC-PVTZ-JKFIT
	 Reference Energy          =    -512.5301447173151246 [Eh]
	 Singles Energy            =      -0.0000000000000000 [Eh]
	 Same-Spin Energy          =      -0.5375718065279973 [Eh]
	 Opposite-Spin Energy      =      -1.6481465034492693 [Eh]
	 Correlation Energy        =      -2.1857183099772666 [Eh]
	 Total Energy              =    -514.7158630272923574 [Eh]

	 ================> DF-SCS-MP2 Energies <==================
	-----------------------------------------------------------
	 SCS Same-Spin Scale       =       0.3333333333333333 [-]
	 SCS Opposite-Spin Scale   =       1.2000000000000000 [-]
	 SCS Same-Spin Energy      =      -0.1791906021759991 [Eh]
	 SCS Opposite-Spin Energy  =      -1.9777758041391231 [Eh]
	 SCS Correlation Energy    =      -2.1569664063151222 [Eh]
	 SCS Total Energy          =    -514.6871111236303022 [Eh]
	-----------------------------------------------------------

  Dipole Moment: [D]
     X:    -1.6492      Y:    -1.6751      Z:    -2.9529     Total:     3.7744

*** Psi4 exiting successfully. Buy a developer a beer!
