                               Psi4 1.4a3.dev225

  ==> Input File <==

--------------------------------------------------------------------------
#psi4
#
memory 32 gb

molecule  {
0 1
  O       -0.4983720     2.1660820    -0.3008080
  O        1.7439460     0.8852250     1.1595980
  N        2.0846670    -0.6693810    -0.4855240
  C       -0.1747200    -0.1425440     0.1301780
  C       -1.0813223     0.9620337    -0.1390441
  C       -0.6950920    -1.4344860     0.2644570
  C        1.2926210     0.1057900     0.3196980
  C       -2.4223480     0.6871570    -0.2466200
  C       -2.0666220    -1.6719060     0.1573390
  C       -2.9283400    -0.6051620    -0.0964900
  C        3.5272930    -0.5029810    -0.4769650
  H       -0.0118380    -2.2529100     0.4809780
  H       -3.0973410     1.5164000    -0.4561860
  H       -2.4584240    -2.6782030     0.2778980
  H       -3.9991860    -0.7724420    -0.1829770
  H        1.6477640    -1.1074140    -1.2860730
  H        3.8478870     0.3529870    -1.0808760
  H        3.9959260    -1.4118430    -0.8588240
  H        3.8425270    -0.3337350     0.5522170
  H       -1.2204240     2.8028430    -0.4486720
units angstrom
no_reorient  #important for SAPT in psi4, default
symmetry c1  #important for SAPT in psi4, default
}

set PROPERTIES_ORIGIN ["COM"]
properties('MP2/aug-cc-pvtz', properties = ['dipole'])
--------------------------------------------------------------------------

    Molecular point group: c1
  Charge       = 0
  Multiplicity = 1
  Basis Set: AUG-CC-PVTZ
    Blend: AUG-CC-PVTZ
  Basis Set: (AUG-CC-PVTZ AUX)
    Blend: AUG-CC-PVTZ-JKFIT

    Orbital Energies [Eh]
    ---------------------

    Doubly Occupied:

       1A    -20.603923     2A    -20.512463     3A    -15.583299
       4A    -11.349340     5A    -11.322388     6A    -11.256569
       7A    -11.256167     8A    -11.255606     9A    -11.252719
      10A    -11.242499    11A    -11.239170    12A     -1.423885
      13A     -1.366646    14A     -1.224650    15A     -1.156811
      16A     -1.043767    17A     -1.017890    18A     -0.948852
      19A     -0.865145    20A     -0.844646    21A     -0.782874
      22A     -0.742363    23A     -0.726653    24A     -0.677853
      25A     -0.643849    26A     -0.634586    27A     -0.618790
      28A     -0.613908    29A     -0.602649    30A     -0.586490
      31A     -0.577200    32A     -0.544803    33A     -0.538332
      34A     -0.523234    35A     -0.504901    36A     -0.489187
      37A     -0.420958    38A     -0.388335    39A     -0.354692
      40A     -0.322008

  @DF-RHF Final Energy:  -512.54879011992784

   => Energetics <=

    Nuclear Repulsion Energy =            586.7451513202643127
    One-Electron Energy =               -1862.4676857721110537
    Two-Electron Energy =                 763.1737443319188969
    Total Energy =                       -512.5487901199278440
  Basis Set: (AUG-CC-PVTZ AUX)
    Blend: AUG-CC-PVTZ-RI
    Molecular point group: c1

    Geometry (in Angstrom), charge = 0, multiplicity = 1:

       Center              X                  Y                   Z               Mass
    ------------   -----------------  -----------------  -----------------  -----------------
         O           -0.479168484057     2.137669334935    -0.319754155062    15.994914619570
         O            1.763149515943     0.856812334935     1.140651844938    15.994914619570
         N            2.103870515943    -0.697793665065    -0.504470155062    14.003074004430
         C           -0.155516484057    -0.170956665065     0.111231844938    12.000000000000
         C           -1.062118784057     0.933621034935    -0.157990255062    12.000000000000
         C           -0.675888484057    -1.462898665065     0.245510844938    12.000000000000
         C            1.311824515943     0.077377334935     0.300751844938    12.000000000000
         C           -2.403144484057     0.658744334935    -0.265566155062    12.000000000000
         C           -2.047418484057    -1.700318665065     0.138392844938    12.000000000000
         C           -2.909136484057    -0.633574665065    -0.115436155062    12.000000000000
         C            3.546496515943    -0.531393665065    -0.495911155062    12.000000000000
         H            0.007365515943    -2.281322665065     0.462031844938     1.007825032230
         H           -3.078137484057     1.487987334935    -0.475132155062     1.007825032230
         H           -2.439220484057    -2.706615665065     0.258951844938     1.007825032230
         H           -3.979982484057    -0.800854665065    -0.201923155062     1.007825032230
         H            1.666967515943    -1.135826665065    -1.305019155062     1.007825032230
         H            3.867090515943     0.324574334935    -1.099822155062     1.007825032230
         H            4.015129515943    -1.440255665065    -0.877770155062     1.007825032230
         H            3.861730515943    -0.362147665065     0.533270844938     1.007825032230
         H           -1.201220484057     2.774430334935    -0.467618155062     1.007825032230

  Basis Set: AUG-CC-PVTZ
    Blend: AUG-CC-PVTZ
  Basis Set: (AUG-CC-PVTZ AUX)
    Blend: AUG-CC-PVTZ-JKFIT
	 Reference Energy          =    -512.5487901199278440 [Eh]
	 Singles Energy            =      -0.0000000000000000 [Eh]
	 Same-Spin Energy          =      -0.5371193073748582 [Eh]
	 Opposite-Spin Energy      =      -1.6462242441757191 [Eh]
	 Correlation Energy        =      -2.1833435515505775 [Eh]
	 Total Energy              =    -514.7321336714784366 [Eh]

	 ================> DF-SCS-MP2 Energies <==================
	-----------------------------------------------------------
	 SCS Same-Spin Scale       =       0.3333333333333333 [-]
	 SCS Opposite-Spin Scale   =       1.2000000000000000 [-]
	 SCS Same-Spin Energy      =      -0.1790397691249527 [Eh]
	 SCS Opposite-Spin Energy  =      -1.9754690930108629 [Eh]
	 SCS Correlation Energy    =      -2.1545088621358155 [Eh]
	 SCS Total Energy          =    -514.7032989820636431 [Eh]
	-----------------------------------------------------------

  Dipole Moment: [D]
     X:    -1.6722      Y:    -1.4249      Z:    -2.9996     Total:     3.7181

*** Psi4 exiting successfully. Buy a developer a beer!
