                               Psi4 1.4a3.dev225

  ==> Input File <==

--------------------------------------------------------------------------
#psi4
#
memory 32 gb

molecule  {
0 1
  O       -0.4983720     2.1660820    -0.3008080
  O        1.7439460     0.8852250     1.1595980
  N        2.0846670    -0.6693810    -0.4855240
  C       -0.1747200    -0.1425440     0.1301780
  C       -1.0501490     0.9240530    -0.1297870
  C       -0.6950920    -1.4344860     0.2644570
  C        1.2926210     0.1057900     0.3196980
  C       -2.4223480     0.6871570    -0.2466200
  C       -2.0666220    -1.6719060     0.1573390
  C       -2.8665507    -0.6816526    -0.0782893
  C        3.5272930    -0.5029810    -0.4769650
  H       -0.0118380    -2.2529100     0.4809780
  H       -3.0973410     1.5164000    -0.4561860
  H       -2.4584240    -2.6782030     0.2778980
  H       -3.9991860    -0.7724420    -0.1829770
  H        1.6477640    -1.1074140    -1.2860730
  H        3.8478870     0.3529870    -1.0808760
  H        3.9959260    -1.4118430    -0.8588240
  H        3.8425270    -0.3337350     0.5522170
  H       -1.2204240     2.8028430    -0.4486720
units angstrom
no_reorient  #important for SAPT in psi4, default
symmetry c1  #important for SAPT in psi4, default
}

set PROPERTIES_ORIGIN ["COM"]
properties('MP2/aug-cc-pvtz', properties = ['dipole'])
--------------------------------------------------------------------------

    Molecular point group: c1
  Charge       = 0
  Multiplicity = 1
  Basis Set: AUG-CC-PVTZ
    Blend: AUG-CC-PVTZ
  Basis Set: (AUG-CC-PVTZ AUX)
    Blend: AUG-CC-PVTZ-JKFIT

    Orbital Energies [Eh]
    ---------------------

    Doubly Occupied:

       1A    -20.596086     2A    -20.513723     3A    -15.584492
       4A    -11.350882     5A    -11.318771     6A    -11.259584
       7A    -11.256334     8A    -11.253094     9A    -11.251500
      10A    -11.247434    11A    -11.229465    12A     -1.408683
      13A     -1.367648    14A     -1.225906    15A     -1.167017
      16A     -1.049273    17A     -1.020452    18A     -0.949957
      19A     -0.871600    20A     -0.838065    21A     -0.782423
      22A     -0.742155    23A     -0.722497    24A     -0.671451
      25A     -0.651236    26A     -0.637274    27A     -0.620925
      28A     -0.613237    29A     -0.594844    30A     -0.583901
      31A     -0.574973    32A     -0.545838    33A     -0.538921
      34A     -0.516308    35A     -0.505220    36A     -0.495430
      37A     -0.421759    38A     -0.389282    39A     -0.350678
      40A     -0.333948

  @DF-RHF Final Energy:  -512.53872660394427

   => Energetics <=

    Nuclear Repulsion Energy =            588.1645347411997591
    One-Electron Energy =               -1865.3019879437506461
    Two-Electron Energy =                 764.5987265986066177
    Total Energy =                       -512.5387266039442693
  Basis Set: (AUG-CC-PVTZ AUX)
    Blend: AUG-CC-PVTZ-RI
    Molecular point group: c1

    Geometry (in Angstrom), charge = 0, multiplicity = 1:

       Center              X                  Y                   Z               Mass
    ------------   -----------------  -----------------  -----------------  -----------------
         O           -0.486553143265     2.146762578235    -0.321935317116    15.994914619570
         O            1.755764856735     0.865905578235     1.138470682884    15.994914619570
         N            2.096485856735    -0.688700421765    -0.506651317116    14.003074004430
         C           -0.162901143265    -0.161863421765     0.109050682884    12.000000000000
         C           -1.038330143265     0.904733578235    -0.150914317116    12.000000000000
         C           -0.683273143265    -1.453805421765     0.243329682884    12.000000000000
         C            1.304439856735     0.086470578235     0.298570682884    12.000000000000
         C           -2.410529143265     0.667837578235    -0.267747317116    12.000000000000
         C           -2.054803143265    -1.691225421765     0.136211682884    12.000000000000
         C           -2.854731843265    -0.700972021765    -0.099416617116    12.000000000000
         C            3.539111856735    -0.522300421765    -0.498092317116    12.000000000000
         H           -0.000019143265    -2.272229421765     0.459850682884     1.007825032230
         H           -3.085522143265     1.497080578235    -0.477313317116     1.007825032230
         H           -2.446605143265    -2.697522421765     0.256770682884     1.007825032230
         H           -3.987367143265    -0.791761421765    -0.204104317116     1.007825032230
         H            1.659582856735    -1.126733421765    -1.307200317116     1.007825032230
         H            3.859705856735     0.333667578235    -1.102003317116     1.007825032230
         H            4.007744856735    -1.431162421765    -0.879951317116     1.007825032230
         H            3.854345856735    -0.353054421765     0.531089682884     1.007825032230
         H           -1.208605143265     2.783523578235    -0.469799317116     1.007825032230

  Basis Set: AUG-CC-PVTZ
    Blend: AUG-CC-PVTZ
  Basis Set: (AUG-CC-PVTZ AUX)
    Blend: AUG-CC-PVTZ-JKFIT
	 Reference Energy          =    -512.5387266039442693 [Eh]
	 Singles Energy            =      -0.0000000000000000 [Eh]
	 Same-Spin Energy          =      -0.5367728874044517 [Eh]
	 Opposite-Spin Energy      =      -1.6462063913446374 [Eh]
	 Correlation Energy        =      -2.1829792787490891 [Eh]
	 Total Energy              =    -514.7217058826934135 [Eh]

	 ================> DF-SCS-MP2 Energies <==================
	-----------------------------------------------------------
	 SCS Same-Spin Scale       =       0.3333333333333333 [-]
	 SCS Opposite-Spin Scale   =       1.2000000000000000 [-]
	 SCS Same-Spin Energy      =      -0.1789242958014839 [Eh]
	 SCS Opposite-Spin Energy  =      -1.9754476696135648 [Eh]
	 SCS Correlation Energy    =      -2.1543719654150486 [Eh]
	 SCS Total Energy          =    -514.6930985693593357 [Eh]
	-----------------------------------------------------------

  Dipole Moment: [D]
     X:    -1.6411      Y:    -1.6121      Z:    -2.9633     Total:     3.7514

*** Psi4 exiting successfully. Buy a developer a beer!
