                               Psi4 1.4a3.dev225

  ==> Input File <==

--------------------------------------------------------------------------
#psi4
#
memory 32 gb

molecule  {
0 1
  O       -0.4983720     2.1660820    -0.3008080
  O        1.7439460     0.8852250     1.1595980
  N        2.0846670    -0.6693810    -0.4855240
  C       -0.1747200    -0.1425440     0.1301780
  C       -1.0501490     0.9240530    -0.1297870
  C       -0.6950920    -1.4344860     0.2644570
  C        1.2926210     0.1057900     0.3196980
  C       -2.4223480     0.6871570    -0.2466200
  C       -2.0666220    -1.6719060     0.1573390
  C       -2.9283400    -0.6051620    -0.0964900
  C        3.5272930    -0.5029810    -0.4769650
  H       -0.0118380    -2.2529100     0.4809780
  H       -3.0973410     1.5164000    -0.4561860
  H       -2.4584240    -2.6782030     0.2778980
  H       -3.9991860    -0.7724420    -0.1829770
  H        1.6477640    -1.1074140    -1.2860730
  H        3.8537398     0.3686137    -1.0919011
  H        3.9959260    -1.4118430    -0.8588240
  H        3.8425270    -0.3337350     0.5522170
  H       -1.2204240     2.8028430    -0.4486720
units angstrom
no_reorient  #important for SAPT in psi4, default
symmetry c1  #important for SAPT in psi4, default
}

set PROPERTIES_ORIGIN ["COM"]
properties('MP2/aug-cc-pvtz', properties = ['dipole'])
--------------------------------------------------------------------------

    Molecular point group: c1
  Charge       = 0
  Multiplicity = 1
  Basis Set: AUG-CC-PVTZ
    Blend: AUG-CC-PVTZ
  Basis Set: (AUG-CC-PVTZ AUX)
    Blend: AUG-CC-PVTZ-JKFIT

    Orbital Energies [Eh]
    ---------------------

    Doubly Occupied:

       1A    -20.597772     2A    -20.513273     3A    -15.584216
       4A    -11.350164     5A    -11.320457     6A    -11.258375
       7A    -11.257414     8A    -11.256802     9A    -11.249579
      10A    -11.246606    11A    -11.240465    12A     -1.409989
      13A     -1.367167    14A     -1.225438    15A     -1.160080
      16A     -1.046718    17A     -1.017738    18A     -0.948975
      19A     -0.865103    20A     -0.844095    21A     -0.783177
      22A     -0.742306    23A     -0.723647    24A     -0.675227
      25A     -0.648128    26A     -0.635529    27A     -0.618290
      28A     -0.611958    29A     -0.595609    30A     -0.586110
      31A     -0.575398    32A     -0.545478    33A     -0.535492
      34A     -0.522315    35A     -0.510761    36A     -0.489721
      37A     -0.421599    38A     -0.388548    39A     -0.354407
      40A     -0.326192

  @DF-RHF Final Energy:  -512.55155822261588

   => Energetics <=

    Nuclear Repulsion Energy =            587.0760314067219952
    One-Electron Energy =               -1863.1545431051185915
    Two-Electron Energy =                 763.5269534757807151
    Total Energy =                       -512.5515582226158813
  Basis Set: (AUG-CC-PVTZ AUX)
    Blend: AUG-CC-PVTZ-RI
    Molecular point group: c1

    Geometry (in Angstrom), charge = 0, multiplicity = 1:

       Center              X                  Y                   Z               Mass
    ------------   -----------------  -----------------  -----------------  -----------------
         O           -0.481683841040     2.140582149215    -0.320415955839    15.994914619570
         O            1.760634158960     0.859725149215     1.139990044161    15.994914619570
         N            2.101355158960    -0.694880850785    -0.505131955839    14.003074004430
         C           -0.158031841040    -0.168043850785     0.110570044161    12.000000000000
         C           -1.033460841040     0.898553149215    -0.149394955839    12.000000000000
         C           -0.678403841040    -1.459985850785     0.244849044161    12.000000000000
         C            1.309309158960     0.080290149215     0.300090044161    12.000000000000
         C           -2.405659841040     0.661657149215    -0.266227955839    12.000000000000
         C           -2.049933841040    -1.697405850785     0.137731044161    12.000000000000
         C           -2.911651841040    -0.630661850785    -0.116097955839    12.000000000000
         C            3.543981158960    -0.528480850785    -0.496572955839    12.000000000000
         H            0.004850158960    -2.278409850785     0.461370044161     1.007825032230
         H           -3.080652841040     1.490900149215    -0.475793955839     1.007825032230
         H           -2.441735841040    -2.703702850785     0.258290044161     1.007825032230
         H           -3.982497841040    -0.797941850785    -0.202584955839     1.007825032230
         H            1.664452158960    -1.132913850785    -1.305680955839     1.007825032230
         H            3.870427958960     0.343113849215    -1.111509055839     1.007825032230
         H            4.012614158960    -1.437342850785    -0.878431955839     1.007825032230
         H            3.859215158960    -0.359234850785     0.532609044161     1.007825032230
         H           -1.203735841040     2.777343149215    -0.468279955839     1.007825032230

  Basis Set: AUG-CC-PVTZ
    Blend: AUG-CC-PVTZ
  Basis Set: (AUG-CC-PVTZ AUX)
    Blend: AUG-CC-PVTZ-JKFIT
	 Reference Energy          =    -512.5515582226158813 [Eh]
	 Singles Energy            =      -0.0000000000000000 [Eh]
	 Same-Spin Energy          =      -0.5370496501528512 [Eh]
	 Opposite-Spin Energy      =      -1.6461861608522437 [Eh]
	 Correlation Energy        =      -2.1832358110050949 [Eh]
	 Total Energy              =    -514.7347940336210286 [Eh]

	 ================> DF-SCS-MP2 Energies <==================
	-----------------------------------------------------------
	 SCS Same-Spin Scale       =       0.3333333333333333 [-]
	 SCS Opposite-Spin Scale   =       1.2000000000000000 [-]
	 SCS Same-Spin Energy      =      -0.1790165500509504 [Eh]
	 SCS Opposite-Spin Energy  =      -1.9754233930226923 [Eh]
	 SCS Correlation Energy    =      -2.1544399430736427 [Eh]
	 SCS Total Energy          =    -514.7059981656894934 [Eh]
	-----------------------------------------------------------

  Dipole Moment: [D]
     X:    -1.7225      Y:    -1.5865      Z:    -2.9657     Total:     3.7788

*** Psi4 exiting successfully. Buy a developer a beer!
