                               Psi4 1.4a3.dev225

  ==> Input File <==

--------------------------------------------------------------------------
#psi4
#
memory 32 gb

molecule  {
0 1
  O       -0.4983720     2.1660820    -0.3008080
  O        1.7439460     0.8852250     1.1595980
  N        2.0846670    -0.6693810    -0.4855240
  C       -0.1747200    -0.1425440     0.1301780
  C       -1.0501490     0.9240530    -0.1297870
  C       -0.6950920    -1.4344860     0.2644570
  C        1.2926210     0.1057900     0.3196980
  C       -2.4223480     0.6871570    -0.2466200
  C       -2.0666220    -1.6719060     0.1573390
  C       -2.9283400    -0.6051620    -0.0964900
  C        3.5272930    -0.5029810    -0.4769650
  H       -0.0118380    -2.2529100     0.4809780
  H       -3.0973410     1.5164000    -0.4561860
  H       -2.4584240    -2.6782030     0.2778980
  H       -3.9991860    -0.7724420    -0.1829770
  H        1.6477640    -1.1074140    -1.2860730
  H        3.8771510     0.4311203    -1.1360014
  H        3.9959260    -1.4118430    -0.8588240
  H        3.8425270    -0.3337350     0.5522170
  H       -1.2204240     2.8028430    -0.4486720
units angstrom
no_reorient  #important for SAPT in psi4, default
symmetry c1  #important for SAPT in psi4, default
}

set PROPERTIES_ORIGIN ["COM"]
properties('MP2/aug-cc-pvtz', properties = ['dipole'])
--------------------------------------------------------------------------

    Molecular point group: c1
  Charge       = 0
  Multiplicity = 1
  Basis Set: AUG-CC-PVTZ
    Blend: AUG-CC-PVTZ
  Basis Set: (AUG-CC-PVTZ AUX)
    Blend: AUG-CC-PVTZ-JKFIT

    Orbital Energies [Eh]
    ---------------------

    Doubly Occupied:

       1A    -20.597978     2A    -20.513990     3A    -15.585596
       4A    -11.350751     5A    -11.320762     6A    -11.267680
       7A    -11.257764     8A    -11.257079     9A    -11.249951
      10A    -11.246865    11A    -11.240748    12A     -1.410209
      13A     -1.367761    14A     -1.226051    15A     -1.160373
      16A     -1.046838    17A     -1.018017    18A     -0.944916
      19A     -0.864907    20A     -0.843644    21A     -0.783474
      22A     -0.742584    23A     -0.723843    24A     -0.675437
      25A     -0.647880    26A     -0.634403    27A     -0.616430
      28A     -0.607873    29A     -0.594804    30A     -0.585783
      31A     -0.575839    32A     -0.546711    33A     -0.534253
      34A     -0.521154    35A     -0.508429    36A     -0.489390
      37A     -0.422108    38A     -0.387290    39A     -0.354728
      40A     -0.326460

  @DF-RHF Final Energy:  -512.54558439076663

   => Energetics <=

    Nuclear Repulsion Energy =            586.7484484712216499
    One-Electron Energy =               -1862.4865607170147541
    Two-Electron Energy =                 763.1925278550265830
    Total Energy =                       -512.5455843907666349
  Basis Set: (AUG-CC-PVTZ AUX)
    Blend: AUG-CC-PVTZ-RI
    Molecular point group: c1

    Geometry (in Angstrom), charge = 0, multiplicity = 1:

       Center              X                  Y                   Z               Mass
    ------------   -----------------  -----------------  -----------------  -----------------
         O           -0.481840029797     2.140165133936    -0.320121738926    15.994914619570
         O            1.760477970203     0.859308133936     1.140284261074    15.994914619570
         N            2.101198970203    -0.695297866064    -0.504837738926    14.003074004430
         C           -0.158188029797    -0.168460866064     0.110864261074    12.000000000000
         C           -1.033617029797     0.898136133936    -0.149100738926    12.000000000000
         C           -0.678560029797    -1.460402866064     0.245143261074    12.000000000000
         C            1.309152970203     0.079873133936     0.300384261074    12.000000000000
         C           -2.405816029797     0.661240133936    -0.265933738926    12.000000000000
         C           -2.050090029797    -1.697822866064     0.138025261074    12.000000000000
         C           -2.911808029797    -0.631078866064    -0.115803738926    12.000000000000
         C            3.543824970203    -0.528897866064    -0.496278738926    12.000000000000
         H            0.004693970203    -2.278826866064     0.461664261074     1.007825032230
         H           -3.080809029797     1.490483133936    -0.475499738926     1.007825032230
         H           -2.441892029797    -2.704119866064     0.258584261074     1.007825032230
         H           -3.982654029797    -0.798358866064    -0.202290738926     1.007825032230
         H            1.664295970203    -1.133330866064    -1.305386738926     1.007825032230
         H            3.893682970203     0.405203433936    -1.155315138926     1.007825032230
         H            4.012457970203    -1.437759866064    -0.878137738926     1.007825032230
         H            3.859058970203    -0.359651866064     0.532903261074     1.007825032230
         H           -1.203892029797     2.776926133936    -0.467985738926     1.007825032230

  Basis Set: AUG-CC-PVTZ
    Blend: AUG-CC-PVTZ
  Basis Set: (AUG-CC-PVTZ AUX)
    Blend: AUG-CC-PVTZ-JKFIT
	 Reference Energy          =    -512.5455843907666349 [Eh]
	 Singles Energy            =      -0.0000000000000000 [Eh]
	 Same-Spin Energy          =      -0.5370674621527719 [Eh]
	 Opposite-Spin Energy      =      -1.6467744418270007 [Eh]
	 Correlation Energy        =      -2.1838419039797725 [Eh]
	 Total Energy              =    -514.7294262947464176 [Eh]

	 ================> DF-SCS-MP2 Energies <==================
	-----------------------------------------------------------
	 SCS Same-Spin Scale       =       0.3333333333333333 [-]
	 SCS Opposite-Spin Scale   =       1.2000000000000000 [-]
	 SCS Same-Spin Energy      =      -0.1790224873842573 [Eh]
	 SCS Opposite-Spin Energy  =      -1.9761293301924008 [Eh]
	 SCS Correlation Energy    =      -2.1551518175766580 [Eh]
	 SCS Total Energy          =    -514.7007362083433009 [Eh]
	-----------------------------------------------------------

  Dipole Moment: [D]
     X:    -1.7850      Y:    -1.6155      Z:    -2.9272     Total:     3.7900

*** Psi4 exiting successfully. Buy a developer a beer!
