                               Psi4 1.4a3.dev225

  ==> Input File <==

--------------------------------------------------------------------------
#psi4
#
memory 32 gb

molecule  {
0 1
  O       -0.4983720     2.1660820    -0.3008080
  O        1.7439460     0.8852250     1.1595980
  N        2.0846670    -0.6693810    -0.4855240
  C       -0.1747200    -0.1425440     0.1301780
  C       -1.0501490     0.9240530    -0.1297870
  C       -0.6950920    -1.4344860     0.2644570
  C        1.2926210     0.1057900     0.3196980
  C       -2.4223480     0.6871570    -0.2466200
  C       -2.0666220    -1.6719060     0.1573390
  C       -2.9283400    -0.6051620    -0.0964900
  C        3.5272930    -0.5029810    -0.4769650
  H       -0.0118380    -2.2529100     0.4809780
  H       -3.0973410     1.5164000    -0.4561860
  H       -2.4584240    -2.6782030     0.2778980
  H       -3.9991860    -0.7724420    -0.1829770
  H        1.6477640    -1.1074140    -1.2860730
  H        3.8585105     0.3412385    -1.0915857
  H        3.9959260    -1.4118430    -0.8588240
  H        3.8425270    -0.3337350     0.5522170
  H       -1.2204240     2.8028430    -0.4486720
units angstrom
no_reorient  #important for SAPT in psi4, default
symmetry c1  #important for SAPT in psi4, default
}

set PROPERTIES_ORIGIN ["COM"]
properties('MP2/aug-cc-pvtz', properties = ['dipole'])
--------------------------------------------------------------------------

    Molecular point group: c1
  Charge       = 0
  Multiplicity = 1
  Basis Set: AUG-CC-PVTZ
    Blend: AUG-CC-PVTZ
  Basis Set: (AUG-CC-PVTZ AUX)
    Blend: AUG-CC-PVTZ-JKFIT

    Orbital Energies [Eh]
    ---------------------

    Doubly Occupied:

       1A    -20.597737     2A    -20.513133     3A    -15.584099
       4A    -11.350108     5A    -11.320418     6A    -11.257367
       7A    -11.256764     8A    -11.255998     9A    -11.249533
      10A    -11.246571    11A    -11.240427    12A     -1.409952
      13A     -1.367063    14A     -1.225367    15A     -1.160042
      16A     -1.046737    17A     -1.017701    18A     -0.950326
      19A     -0.865230    20A     -0.844302    21A     -0.783157
      22A     -0.742299    23A     -0.723776    24A     -0.675224
      25A     -0.648636    26A     -0.636058    27A     -0.619251
      28A     -0.612333    29A     -0.595659    30A     -0.585954
      31A     -0.575385    32A     -0.545112    33A     -0.535881
      34A     -0.522570    35A     -0.511338    36A     -0.489775
      37A     -0.421538    38A     -0.388896    39A     -0.354363
      40A     -0.326155

  @DF-RHF Final Energy:  -512.55206263399054

   => Energetics <=

    Nuclear Repulsion Energy =            587.1353283015475881
    One-Electron Energy =               -1863.2703112651984156
    Two-Electron Energy =                 763.5829203296602827
    Total Energy =                       -512.5520626339905448
  Basis Set: (AUG-CC-PVTZ AUX)
    Blend: AUG-CC-PVTZ-RI
    Molecular point group: c1

    Geometry (in Angstrom), charge = 0, multiplicity = 1:

       Center              X                  Y                   Z               Mass
    ------------   -----------------  -----------------  -----------------  -----------------
         O           -0.481715668956     2.140764783956    -0.320418060043    15.994914619570
         O            1.760602331044     0.859907783956     1.139987939957    15.994914619570
         N            2.101323331044    -0.694698216044    -0.505134060043    14.003074004430
         C           -0.158063668956    -0.167861216044     0.110567939957    12.000000000000
         C           -1.033492668956     0.898735783956    -0.149397060043    12.000000000000
         C           -0.678435668956    -1.459803216044     0.244846939957    12.000000000000
         C            1.309277331044     0.080472783956     0.300087939957    12.000000000000
         C           -2.405691668956     0.661839783956    -0.266230060043    12.000000000000
         C           -2.049965668956    -1.697223216044     0.137728939957    12.000000000000
         C           -2.911683668956    -0.630479216044    -0.116100060043    12.000000000000
         C            3.543949331044    -0.528298216044    -0.496575060043    12.000000000000
         H            0.004818331044    -2.278227216044     0.461367939957     1.007825032230
         H           -3.080684668956     1.491082783956    -0.475796060043     1.007825032230
         H           -2.441767668956    -2.703520216044     0.258287939957     1.007825032230
         H           -3.982529668956    -0.797759216044    -0.202587060043     1.007825032230
         H            1.664420331044    -1.132731216044    -1.305683060043     1.007825032230
         H            3.875166831044     0.315921283956    -1.111195760043     1.007825032230
         H            4.012582331044    -1.437160216044    -0.878434060043     1.007825032230
         H            3.859183331044    -0.359052216044     0.532606939957     1.007825032230
         H           -1.203767668956     2.777525783956    -0.468282060043     1.007825032230

  Basis Set: AUG-CC-PVTZ
    Blend: AUG-CC-PVTZ
  Basis Set: (AUG-CC-PVTZ AUX)
    Blend: AUG-CC-PVTZ-JKFIT
	 Reference Energy          =    -512.5520626339905448 [Eh]
	 Singles Energy            =      -0.0000000000000000 [Eh]
	 Same-Spin Energy          =      -0.5370373232453020 [Eh]
	 Opposite-Spin Energy      =      -1.6460421695110901 [Eh]
	 Correlation Energy        =      -2.1830794927563919 [Eh]
	 Total Energy              =    -514.7351421267469505 [Eh]

	 ================> DF-SCS-MP2 Energies <==================
	-----------------------------------------------------------
	 SCS Same-Spin Scale       =       0.3333333333333333 [-]
	 SCS Opposite-Spin Scale   =       1.2000000000000000 [-]
	 SCS Same-Spin Energy      =      -0.1790124410817673 [Eh]
	 SCS Opposite-Spin Energy  =      -1.9752506034133079 [Eh]
	 SCS Correlation Energy    =      -2.1542630444950754 [Eh]
	 SCS Total Energy          =    -514.7063256784856549 [Eh]
	-----------------------------------------------------------

  Dipole Moment: [D]
     X:    -1.7108      Y:    -1.5810      Z:    -2.9773     Total:     3.7803

*** Psi4 exiting successfully. Buy a developer a beer!
