                               Psi4 1.4a3.dev225

  ==> Input File <==

--------------------------------------------------------------------------
#psi4
#
memory 32 gb

molecule  {
0 1
  O       -0.4983720     2.1660820    -0.3008080
  O        1.7439460     0.8852250     1.1595980
  N        2.0846670    -0.6693810    -0.4855240
  C       -0.1747200    -0.1425440     0.1301780
  C       -1.0501490     0.9240530    -0.1297870
  C       -0.6950920    -1.4344860     0.2644570
  C        1.3319492     0.1275422     0.3360226
  C       -2.4223480     0.6871570    -0.2466200
  C       -2.0666220    -1.6719060     0.1573390
  C       -2.9283400    -0.6051620    -0.0964900
  C        3.5272930    -0.5029810    -0.4769650
  H       -0.0118380    -2.2529100     0.4809780
  H       -3.0973410     1.5164000    -0.4561860
  H       -2.4584240    -2.6782030     0.2778980
  H       -3.9991860    -0.7724420    -0.1829770
  H        1.6477640    -1.1074140    -1.2860730
  H        3.8478870     0.3529870    -1.0808760
  H        3.9959260    -1.4118430    -0.8588240
  H        3.8425270    -0.3337350     0.5522170
  H       -1.2204240     2.8028430    -0.4486720
units angstrom
no_reorient  #important for SAPT in psi4, default
symmetry c1  #important for SAPT in psi4, default
}

set PROPERTIES_ORIGIN ["COM"]
properties('MP2/aug-cc-pvtz', properties = ['dipole'])
--------------------------------------------------------------------------

    Molecular point group: c1
  Charge       = 0
  Multiplicity = 1
  Basis Set: AUG-CC-PVTZ
    Blend: AUG-CC-PVTZ
  Basis Set: (AUG-CC-PVTZ AUX)
    Blend: AUG-CC-PVTZ-JKFIT

    Orbital Energies [Eh]
    ---------------------

    Doubly Occupied:

       1A    -20.596191     2A    -20.519855     3A    -15.582118
       4A    -11.349378     5A    -11.316771     6A    -11.255523
       7A    -11.254019     8A    -11.253722     9A    -11.247536
      10A    -11.244316    11A    -11.238204    12A     -1.409286
      13A     -1.392380    14A     -1.229617    15A     -1.156485
      16A     -1.040131    17A     -1.014775    18A     -0.948060
      19A     -0.860436    20A     -0.839121    21A     -0.785381
      22A     -0.740165    23A     -0.720868    24A     -0.673664
      25A     -0.645878    26A     -0.643132    27A     -0.622177
      28A     -0.611151    29A     -0.595761    30A     -0.584268
      31A     -0.575931    32A     -0.547882    33A     -0.539217
      34A     -0.526889    35A     -0.512645    36A     -0.488987
      37A     -0.420851    38A     -0.393111    39A     -0.351696
      40A     -0.323703

  @DF-RHF Final Energy:  -512.55244736609120

   => Energetics <=

    Nuclear Repulsion Energy =            587.1112855537832047
    One-Electron Energy =               -1863.2249022832470473
    Two-Electron Energy =                 763.5611693633727555
    Total Energy =                       -512.5524473660912008
  Basis Set: (AUG-CC-PVTZ AUX)
    Blend: AUG-CC-PVTZ-RI
    Molecular point group: c1

    Geometry (in Angstrom), charge = 0, multiplicity = 1:

       Center              X                  Y                   Z               Mass
    ------------   -----------------  -----------------  -----------------  -----------------
         O           -0.484768903485     2.138958476396    -0.321786285579    15.994914619570
         O            1.757549096515     0.858101476396     1.138619714421    15.994914619570
         N            2.098270096515    -0.696504523604    -0.506502285579    14.003074004430
         C           -0.161116903485    -0.169667523604     0.109199714421    12.000000000000
         C           -1.036545903485     0.896929476396    -0.150765285579    12.000000000000
         C           -0.681488903485    -1.461609523604     0.243478714421    12.000000000000
         C            1.345552296515     0.100418676396     0.315044314421    12.000000000000
         C           -2.408744903485     0.660033476396    -0.267598285579    12.000000000000
         C           -2.053018903485    -1.699029523604     0.136360714421    12.000000000000
         C           -2.914736903485    -0.632285523604    -0.117468285579    12.000000000000
         C            3.540896096515    -0.530104523604    -0.497943285579    12.000000000000
         H            0.001765096515    -2.280033523604     0.459999714421     1.007825032230
         H           -3.083737903485     1.489276476396    -0.477164285579     1.007825032230
         H           -2.444820903485    -2.705326523604     0.256919714421     1.007825032230
         H           -3.985582903485    -0.799565523604    -0.203955285579     1.007825032230
         H            1.661367096515    -1.134537523604    -1.307051285579     1.007825032230
         H            3.861490096515     0.325863476396    -1.101854285579     1.007825032230
         H            4.009529096515    -1.438966523604    -0.879802285579     1.007825032230
         H            3.856130096515    -0.360858523604     0.531238714421     1.007825032230
         H           -1.206820903485     2.775719476396    -0.469650285579     1.007825032230

  Basis Set: AUG-CC-PVTZ
    Blend: AUG-CC-PVTZ
  Basis Set: (AUG-CC-PVTZ AUX)
    Blend: AUG-CC-PVTZ-JKFIT
	 Reference Energy          =    -512.5524473660912008 [Eh]
	 Singles Energy            =      -0.0000000000000000 [Eh]
	 Same-Spin Energy          =      -0.5360517554269877 [Eh]
	 Opposite-Spin Energy      =      -1.6440389949396046 [Eh]
	 Correlation Energy        =      -2.1800907503665923 [Eh]
	 Total Energy              =    -514.7325381164578175 [Eh]

	 ================> DF-SCS-MP2 Energies <==================
	-----------------------------------------------------------
	 SCS Same-Spin Scale       =       0.3333333333333333 [-]
	 SCS Opposite-Spin Scale   =       1.2000000000000000 [-]
	 SCS Same-Spin Energy      =      -0.1786839184756626 [Eh]
	 SCS Opposite-Spin Energy  =      -1.9728467939275254 [Eh]
	 SCS Correlation Energy    =      -2.1515307124031877 [Eh]
	 SCS Total Energy          =    -514.7039780784944014 [Eh]
	-----------------------------------------------------------

  Dipole Moment: [D]
     X:    -1.4628      Y:    -1.4566      Z:    -2.8362     Total:     3.5079

*** Psi4 exiting successfully. Buy a developer a beer!
