                               Psi4 1.4a3.dev225

  ==> Input File <==

--------------------------------------------------------------------------
#psi4
#
memory 32 gb

molecule  {
0 1
  O       -0.4983720     2.1660820    -0.3008080
  O        1.7439460     0.8852250     1.1595980
  N        2.0846670    -0.6693810    -0.4855240
  C       -0.1747200    -0.1425440     0.1301780
  C       -1.0501490     0.9240530    -0.1297870
  C       -0.6950920    -1.4344860     0.2644570
  C        1.2926210     0.1057900     0.3196980
  C       -2.4223480     0.6871570    -0.2466200
  C       -2.0666220    -1.6719060     0.1573390
  C       -2.9283400    -0.6051620    -0.0964900
  C        3.5272930    -0.5029810    -0.4769650
  H       -0.0118380    -2.2529100     0.4809780
  H       -3.0973410     1.5164000    -0.4561860
  H       -2.4584240    -2.6782030     0.2778980
  H       -3.9991860    -0.7724420    -0.1829770
  H        1.6477640    -1.1074140    -1.2860730
  H        3.8478870     0.3529870    -1.0808760
  H        3.9529929    -1.3285789    -0.8238405
  H        3.8425270    -0.3337350     0.5522170
  H       -1.2204240     2.8028430    -0.4486720
units angstrom
no_reorient  #important for SAPT in psi4, default
symmetry c1  #important for SAPT in psi4, default
}

set PROPERTIES_ORIGIN ["COM"]
properties('MP2/aug-cc-pvtz', properties = ['dipole'])
--------------------------------------------------------------------------

    Molecular point group: c1
  Charge       = 0
  Multiplicity = 1
  Basis Set: AUG-CC-PVTZ
    Blend: AUG-CC-PVTZ
  Basis Set: (AUG-CC-PVTZ AUX)
    Blend: AUG-CC-PVTZ-JKFIT

    Orbital Energies [Eh]
    ---------------------

    Doubly Occupied:

       1A    -20.597450     2A    -20.512524     3A    -15.582975
       4A    -11.349346     5A    -11.320083     6A    -11.257052
       7A    -11.256484     8A    -11.249150     9A    -11.246311
      10A    -11.243449    11A    -11.240177    12A     -1.409656
      13A     -1.366400    14A     -1.225366    15A     -1.159794
      16A     -1.046993    17A     -1.017442    18A     -0.959591
      19A     -0.865730    20A     -0.845096    21A     -0.782622
      22A     -0.742551    23A     -0.725313    24A     -0.674905
      25A     -0.650123    26A     -0.635639    27A     -0.619300
      28A     -0.614165    29A     -0.596653    30A     -0.589288
      31A     -0.576849    32A     -0.553547    33A     -0.535551
      34A     -0.522530    35A     -0.510722    36A     -0.489601
      37A     -0.420933    38A     -0.388698    39A     -0.354051
      40A     -0.325871

  @DF-RHF Final Energy:  -512.54592858313833

   => Energetics <=

    Nuclear Repulsion Energy =            587.6605872117631861
    One-Electron Energy =               -1864.2930715395409607
    Two-Electron Energy =                 764.0865557446394405
    Total Energy =                       -512.5459285831383340
  Basis Set: (AUG-CC-PVTZ AUX)
    Blend: AUG-CC-PVTZ-RI
    Molecular point group: c1

    Geometry (in Angstrom), charge = 0, multiplicity = 1:

       Center              X                  Y                   Z               Mass
    ------------   -----------------  -----------------  -----------------  -----------------
         O           -0.481358363959     2.140130903599    -0.320722904052    15.994914619570
         O            1.760959636041     0.859273903599     1.139683095948    15.994914619570
         N            2.101680636041    -0.695332096401    -0.505438904052    14.003074004430
         C           -0.157706363959    -0.168495096401     0.110263095948    12.000000000000
         C           -1.033135363959     0.898101903599    -0.149701904052    12.000000000000
         C           -0.678078363959    -1.460437096401     0.244542095948    12.000000000000
         C            1.309634636041     0.079838903599     0.299783095948    12.000000000000
         C           -2.405334363959     0.661205903599    -0.266534904052    12.000000000000
         C           -2.049608363959    -1.697857096401     0.137424095948    12.000000000000
         C           -2.911326363959    -0.631113096401    -0.116404904052    12.000000000000
         C            3.544306636041    -0.528932096401    -0.496879904052    12.000000000000
         H            0.005175636041    -2.278861096401     0.461063095948     1.007825032230
         H           -3.080327363959     1.490448903599    -0.476100904052     1.007825032230
         H           -2.441410363959    -2.704154096401     0.257983095948     1.007825032230
         H           -3.982172363959    -0.798393096401    -0.202891904052     1.007825032230
         H            1.664777636041    -1.133365096401    -1.305987904052     1.007825032230
         H            3.864900636041     0.327035903599    -1.100790904052     1.007825032230
         H            3.970006536041    -1.354529996401    -0.843755404052     1.007825032230
         H            3.859540636041    -0.359686096401     0.532302095948     1.007825032230
         H           -1.203410363959     2.776891903599    -0.468586904052     1.007825032230

  Basis Set: AUG-CC-PVTZ
    Blend: AUG-CC-PVTZ
  Basis Set: (AUG-CC-PVTZ AUX)
    Blend: AUG-CC-PVTZ-JKFIT
	 Reference Energy          =    -512.5459285831383340 [Eh]
	 Singles Energy            =      -0.0000000000000000 [Eh]
	 Same-Spin Energy          =      -0.5371078786072464 [Eh]
	 Opposite-Spin Energy      =      -1.6456046094853107 [Eh]
	 Correlation Energy        =      -2.1827124880925570 [Eh]
	 Total Energy              =    -514.7286410712308680 [Eh]

	 ================> DF-SCS-MP2 Energies <==================
	-----------------------------------------------------------
	 SCS Same-Spin Scale       =       0.3333333333333333 [-]
	 SCS Opposite-Spin Scale   =       1.2000000000000000 [-]
	 SCS Same-Spin Energy      =      -0.1790359595357488 [Eh]
	 SCS Opposite-Spin Energy  =      -1.9747255313823728 [Eh]
	 SCS Correlation Energy    =      -2.1537614909181215 [Eh]
	 SCS Total Energy          =    -514.6996900740564342 [Eh]
	-----------------------------------------------------------

  Dipole Moment: [D]
     X:    -1.6634      Y:    -1.6097      Z:    -2.9908     Total:     3.7819

*** Psi4 exiting successfully. Buy a developer a beer!
