                               Psi4 1.4a3.dev225

  ==> Input File <==

--------------------------------------------------------------------------
#psi4
#
memory 32 gb

molecule  {
0 1
  O       -0.4983720     2.1660820    -0.3008080
  O        1.7439460     0.8852250     1.1595980
  N        2.0846670    -0.6693810    -0.4855240
  C       -0.1747200    -0.1425440     0.1301780
  C       -0.9254557     0.7721304    -0.0927584
  C       -0.6950920    -1.4344860     0.2644570
  C        1.2926210     0.1057900     0.3196980
  C       -2.4223480     0.6871570    -0.2466200
  C       -2.0666220    -1.6719060     0.1573390
  C       -2.9283400    -0.6051620    -0.0964900
  C        3.5272930    -0.5029810    -0.4769650
  H       -0.0118380    -2.2529100     0.4809780
  H       -3.0973410     1.5164000    -0.4561860
  H       -2.4584240    -2.6782030     0.2778980
  H       -3.9991860    -0.7724420    -0.1829770
  H        1.6477640    -1.1074140    -1.2860730
  H        3.8478870     0.3529870    -1.0808760
  H        3.9959260    -1.4118430    -0.8588240
  H        3.8425270    -0.3337350     0.5522170
  H       -1.2204240     2.8028430    -0.4486720
units angstrom
no_reorient  #important for SAPT in psi4, default
symmetry c1  #important for SAPT in psi4, default
}

set PROPERTIES_ORIGIN ["COM"]
properties('MP2/aug-cc-pvtz', properties = ['dipole'])
--------------------------------------------------------------------------

    Molecular point group: c1
  Charge       = 0
  Multiplicity = 1
  Basis Set: AUG-CC-PVTZ
    Blend: AUG-CC-PVTZ
  Basis Set: (AUG-CC-PVTZ AUX)
    Blend: AUG-CC-PVTZ-JKFIT

    Orbital Energies [Eh]
    ---------------------

    Doubly Occupied:

       1A    -20.571431     2A    -20.517145     3A    -15.587478
       4A    -11.354775     5A    -11.307988     6A    -11.262411
       7A    -11.261732     8A    -11.258190     9A    -11.256453
      10A    -11.247596    11A    -11.230690    12A     -1.374501
      13A     -1.351231    14A     -1.229442    15A     -1.182161
      16A     -1.071915    17A     -1.011192    18A     -0.956915
      19A     -0.871578    20A     -0.839668    21A     -0.783812
      22A     -0.746699    23A     -0.702439    24A     -0.672976
      25A     -0.663925    26A     -0.641621    27A     -0.618639
      28A     -0.610942    29A     -0.588406    30A     -0.576192
      31A     -0.565365    32A     -0.547610    33A     -0.538375
      34A     -0.520351    35A     -0.496570    36A     -0.488703
      37A     -0.421838    38A     -0.391706    39A     -0.375829
      40A     -0.331299

  @DF-RHF Final Energy:  -512.49040974479919

   => Energetics <=

    Nuclear Repulsion Energy =            589.2137793084050372
    One-Electron Energy =               -1867.3527995253114113
    Two-Electron Energy =                 765.6486104721071797
    Total Energy =                       -512.4904097447991944
  Basis Set: (AUG-CC-PVTZ AUX)
    Blend: AUG-CC-PVTZ-RI
    Molecular point group: c1

    Geometry (in Angstrom), charge = 0, multiplicity = 1:

       Center              X                  Y                   Z               Mass
    ------------   -----------------  -----------------  -----------------  -----------------
         O           -0.491550040972     2.152754661216    -0.323430946811    15.994914619570
         O            1.750767959028     0.871897661216     1.136975053189    15.994914619570
         N            2.091488959028    -0.682708338784    -0.508146946811    14.003074004430
         C           -0.167898040972    -0.155871338784     0.107555053189    12.000000000000
         C           -0.918633740972     0.758803061216    -0.115381346811    12.000000000000
         C           -0.688270040972    -1.447813338784     0.241834053189    12.000000000000
         C            1.299442959028     0.092462661216     0.297075053189    12.000000000000
         C           -2.415526040972     0.673829661216    -0.269242946811    12.000000000000
         C           -2.059800040972    -1.685233338784     0.134716053189    12.000000000000
         C           -2.921518040972    -0.618489338784    -0.119112946811    12.000000000000
         C            3.534114959028    -0.516308338784    -0.499587946811    12.000000000000
         H           -0.005016040972    -2.266237338784     0.458355053189     1.007825032230
         H           -3.090519040972     1.503072661216    -0.478808946811     1.007825032230
         H           -2.451602040972    -2.691530338784     0.255275053189     1.007825032230
         H           -3.992364040972    -0.785769338784    -0.205599946811     1.007825032230
         H            1.654585959028    -1.120741338784    -1.308695946811     1.007825032230
         H            3.854708959028     0.339659661216    -1.103498946811     1.007825032230
         H            4.002747959028    -1.425170338784    -0.881446946811     1.007825032230
         H            3.849348959028    -0.347062338784     0.529594053189     1.007825032230
         H           -1.213602040972     2.789515661216    -0.471294946811     1.007825032230

  Basis Set: AUG-CC-PVTZ
    Blend: AUG-CC-PVTZ
  Basis Set: (AUG-CC-PVTZ AUX)
    Blend: AUG-CC-PVTZ-JKFIT
	 Reference Energy          =    -512.4904097447991944 [Eh]
	 Singles Energy            =      -0.0000000000000000 [Eh]
	 Same-Spin Energy          =      -0.5359553469264189 [Eh]
	 Opposite-Spin Energy      =      -1.6481428309599733 [Eh]
	 Correlation Energy        =      -2.1840981778863924 [Eh]
	 Total Energy              =    -514.6745079226856205 [Eh]

	 ================> DF-SCS-MP2 Energies <==================
	-----------------------------------------------------------
	 SCS Same-Spin Scale       =       0.3333333333333333 [-]
	 SCS Opposite-Spin Scale   =       1.2000000000000000 [-]
	 SCS Same-Spin Energy      =      -0.1786517823088063 [Eh]
	 SCS Opposite-Spin Energy  =      -1.9777713971519679 [Eh]
	 SCS Correlation Energy    =      -2.1564231794607740 [Eh]
	 SCS Total Energy          =    -514.6468329242600248 [Eh]
	-----------------------------------------------------------

  Dipole Moment: [D]
     X:    -1.7760      Y:    -2.2973      Z:    -2.8478     Total:     4.0672

*** Psi4 exiting successfully. Buy a developer a beer!
