                               Psi4 1.4a3.dev225

  ==> Input File <==

--------------------------------------------------------------------------
#psi4
#
memory 32 gb

molecule  {
0 1
  O       -0.4983720     2.1660820    -0.3008080
  O        1.7439460     0.8852250     1.1595980
  N        2.0846670    -0.6693810    -0.4855240
  C       -0.1747200    -0.1425440     0.1301780
  C       -1.0501490     0.9240530    -0.1297870
  C       -0.6950920    -1.4344860     0.2644570
  C        1.2926210     0.1057900     0.3196980
  C       -2.4223480     0.6871570    -0.2466200
  C       -2.0666220    -1.6719060     0.1573390
  C       -2.9283400    -0.6051620    -0.0964900
  C        3.5272930    -0.5029810    -0.4769650
  H       -0.0118380    -2.2529100     0.4809780
  H       -2.9734410     1.3641862    -0.4177186
  H       -2.4584240    -2.6782030     0.2778980
  H       -3.9991860    -0.7724420    -0.1829770
  H        1.6477640    -1.1074140    -1.2860730
  H        3.8478870     0.3529870    -1.0808760
  H        3.9959260    -1.4118430    -0.8588240
  H        3.8425270    -0.3337350     0.5522170
  H       -1.2204240     2.8028430    -0.4486720
units angstrom
no_reorient  #important for SAPT in psi4, default
symmetry c1  #important for SAPT in psi4, default
}

set PROPERTIES_ORIGIN ["COM"]
properties('MP2/aug-cc-pvtz', properties = ['dipole'])
--------------------------------------------------------------------------

    Molecular point group: c1
  Charge       = 0
  Multiplicity = 1
  Basis Set: AUG-CC-PVTZ
    Blend: AUG-CC-PVTZ
  Basis Set: (AUG-CC-PVTZ AUX)
    Blend: AUG-CC-PVTZ-JKFIT

    Orbital Energies [Eh]
    ---------------------

    Doubly Occupied:

       1A    -20.598476     2A    -20.512703     3A    -15.583512
       4A    -11.349442     5A    -11.318978     6A    -11.256840
       7A    -11.255714     8A    -11.255259     9A    -11.248246
      10A    -11.239179    11A    -11.222273    12A     -1.410602
      13A     -1.366658    14A     -1.224948    15A     -1.160711
      16A     -1.052172    17A     -1.021880    18A     -0.950127
      19A     -0.875413    20A     -0.846619    21A     -0.785128
      22A     -0.754115    23A     -0.724846    24A     -0.678176
      25A     -0.657546    26A     -0.638169    27A     -0.628858
      28A     -0.615022    29A     -0.595843    30A     -0.585669
      31A     -0.575949    32A     -0.545055    33A     -0.537249
      34A     -0.522699    35A     -0.514172    36A     -0.489030
      37A     -0.421105    38A     -0.388503    39A     -0.353666
      40A     -0.325363

  @DF-RHF Final Energy:  -512.51805334523158

   => Energetics <=

    Nuclear Repulsion Energy =            588.3650675366050109
    One-Electron Energy =               -1865.5944097868784866
    Two-Electron Energy =                 764.7112889050418971
    Total Energy =                       -512.5180533452315785
  Basis Set: (AUG-CC-PVTZ AUX)
    Blend: AUG-CC-PVTZ-RI
    Molecular point group: c1

    Geometry (in Angstrom), charge = 0, multiplicity = 1:

       Center              X                  Y                   Z               Mass
    ------------   -----------------  -----------------  -----------------  -----------------
         O           -0.482471397652     2.141701903817    -0.320746147030    15.994914619570
         O            1.759846602348     0.860844903817     1.139659852970    15.994914619570
         N            2.100567602348    -0.693761096183    -0.505462147030    14.003074004430
         C           -0.158819397652    -0.166924096183     0.110239852970    12.000000000000
         C           -1.034248397652     0.899672903817    -0.149725147030    12.000000000000
         C           -0.679191397652    -1.458866096183     0.244518852970    12.000000000000
         C            1.308521602348     0.081409903817     0.299759852970    12.000000000000
         C           -2.406447397652     0.662776903817    -0.266558147030    12.000000000000
         C           -2.050721397652    -1.696286096183     0.137400852970    12.000000000000
         C           -2.912439397652    -0.629542096183    -0.116428147030    12.000000000000
         C            3.543193602348    -0.527361096183    -0.496903147030    12.000000000000
         H            0.004062602348    -2.277290096183     0.461039852970     1.007825032230
         H           -2.957540397652     1.339806103817    -0.437656747030     1.007825032230
         H           -2.442523397652    -2.702583096183     0.257959852970     1.007825032230
         H           -3.983285397652    -0.796822096183    -0.202915147030     1.007825032230
         H            1.663664602348    -1.131794096183    -1.306011147030     1.007825032230
         H            3.863787602348     0.328606903817    -1.100814147030     1.007825032230
         H            4.011826602348    -1.436223096183    -0.878762147030     1.007825032230
         H            3.858427602348    -0.358115096183     0.532278852970     1.007825032230
         H           -1.204523397652     2.778462903817    -0.468610147030     1.007825032230

  Basis Set: AUG-CC-PVTZ
    Blend: AUG-CC-PVTZ
  Basis Set: (AUG-CC-PVTZ AUX)
    Blend: AUG-CC-PVTZ-JKFIT
	 Reference Energy          =    -512.5180533452315785 [Eh]
	 Singles Energy            =      -0.0000000000000000 [Eh]
	 Same-Spin Energy          =      -0.5368065041610424 [Eh]
	 Opposite-Spin Energy      =      -1.6455849027855947 [Eh]
	 Correlation Energy        =      -2.1823914069466372 [Eh]
	 Total Energy              =    -514.7004447521782140 [Eh]

	 ================> DF-SCS-MP2 Energies <==================
	-----------------------------------------------------------
	 SCS Same-Spin Scale       =       0.3333333333333333 [-]
	 SCS Opposite-Spin Scale   =       1.2000000000000000 [-]
	 SCS Same-Spin Energy      =      -0.1789355013870141 [Eh]
	 SCS Opposite-Spin Energy  =      -1.9747018833427135 [Eh]
	 SCS Correlation Energy    =      -2.1536373847297274 [Eh]
	 SCS Total Energy          =    -514.6716907299612558 [Eh]
	-----------------------------------------------------------

  Dipole Moment: [D]
     X:    -1.7270      Y:    -1.5290      Z:    -2.9840     Total:     3.7716

*** Psi4 exiting successfully. Buy a developer a beer!
