                               Psi4 1.4a3.dev225

  ==> Input File <==

--------------------------------------------------------------------------
#psi4
#
memory 32 gb

molecule  {
0 1
  O       -0.4983720     2.1660820    -0.3008080
  O        1.7439460     0.8852250     1.1595980
  N        2.0846670    -0.6693810    -0.4855240
  C       -0.1747200    -0.1425440     0.1301780
  C       -1.0501490     0.9240530    -0.1297870
  C       -0.6950920    -1.4344860     0.2644570
  C        1.3215300     0.0774969     0.2903081
  C       -2.4223480     0.6871570    -0.2466200
  C       -2.0666220    -1.6719060     0.1573390
  C       -2.9283400    -0.6051620    -0.0964900
  C        3.5272930    -0.5029810    -0.4769650
  H       -0.0118380    -2.2529100     0.4809780
  H       -3.0973410     1.5164000    -0.4561860
  H       -2.4584240    -2.6782030     0.2778980
  H       -3.9991860    -0.7724420    -0.1829770
  H        1.6477640    -1.1074140    -1.2860730
  H        3.8478870     0.3529870    -1.0808760
  H        3.9959260    -1.4118430    -0.8588240
  H        3.8425270    -0.3337350     0.5522170
  H       -1.2204240     2.8028430    -0.4486720
units angstrom
no_reorient  #important for SAPT in psi4, default
symmetry c1  #important for SAPT in psi4, default
}

set PROPERTIES_ORIGIN ["COM"]
properties('MP2/aug-cc-pvtz', properties = ['dipole'])
--------------------------------------------------------------------------

    Molecular point group: c1
  Charge       = 0
  Multiplicity = 1
  Basis Set: AUG-CC-PVTZ
    Blend: AUG-CC-PVTZ
  Basis Set: (AUG-CC-PVTZ AUX)
    Blend: AUG-CC-PVTZ-JKFIT

    Orbital Energies [Eh]
    ---------------------

    Doubly Occupied:

       1A    -20.595446     2A    -20.504638     3A    -15.593588
       4A    -11.348688     5A    -11.318737     6A    -11.261490
       7A    -11.255367     8A    -11.254956     9A    -11.249706
      10A    -11.245347    11A    -11.239120    12A     -1.407373
      13A     -1.353800    14A     -1.238608    15A     -1.158376
      16A     -1.044035    17A     -1.015895    18A     -0.960806
      19A     -0.861686    20A     -0.842684    21A     -0.793589
      22A     -0.741822    23A     -0.724271    24A     -0.672876
      25A     -0.651995    26A     -0.635641    27A     -0.620705
      28A     -0.613549    29A     -0.593594    30A     -0.585281
      31A     -0.567577    32A     -0.550073    33A     -0.532629
      34A     -0.518738    35A     -0.510071    36A     -0.488581
      37A     -0.415087    38A     -0.391734    39A     -0.352226
      40A     -0.324209

  @DF-RHF Final Energy:  -512.54765335579248

   => Energetics <=

    Nuclear Repulsion Energy =            587.0621852449953622
    One-Electron Energy =               -1863.1504913469620988
    Two-Electron Energy =                 763.5406527461742598
    Total Energy =                       -512.5476533557924768
  Basis Set: (AUG-CC-PVTZ AUX)
    Blend: AUG-CC-PVTZ-RI
    Molecular point group: c1

    Geometry (in Angstrom), charge = 0, multiplicity = 1:

       Center              X                  Y                   Z               Mass
    ------------   -----------------  -----------------  -----------------  -----------------
         O           -0.483941234711     2.142933919052    -0.318154868178    15.994914619570
         O            1.758376765289     0.862076919052     1.142251131822    15.994914619570
         N            2.099097765289    -0.692529080948    -0.502870868178    14.003074004430
         C           -0.160289234711    -0.165692080948     0.112831131822    12.000000000000
         C           -1.035718234711     0.900904919052    -0.147133868178    12.000000000000
         C           -0.680661234711    -1.457634080948     0.247110131822    12.000000000000
         C            1.335960765289     0.054348819052     0.272961231822    12.000000000000
         C           -2.407917234711     0.664008919052    -0.263966868178    12.000000000000
         C           -2.052191234711    -1.695054080948     0.139992131822    12.000000000000
         C           -2.913909234711    -0.628310080948    -0.113836868178    12.000000000000
         C            3.541723765289    -0.526129080948    -0.494311868178    12.000000000000
         H            0.002592765289    -2.276058080948     0.463631131822     1.007825032230
         H           -3.082910234711     1.493251919052    -0.473532868178     1.007825032230
         H           -2.443993234711    -2.701351080948     0.260551131822     1.007825032230
         H           -3.984755234711    -0.795590080948    -0.200323868178     1.007825032230
         H            1.662194765289    -1.130562080948    -1.303419868178     1.007825032230
         H            3.862317765289     0.329838919052    -1.098222868178     1.007825032230
         H            4.010356765289    -1.434991080948    -0.876170868178     1.007825032230
         H            3.856957765289    -0.356883080948     0.534870131822     1.007825032230
         H           -1.205993234711     2.779694919052    -0.466018868178     1.007825032230

  Basis Set: AUG-CC-PVTZ
    Blend: AUG-CC-PVTZ
  Basis Set: (AUG-CC-PVTZ AUX)
    Blend: AUG-CC-PVTZ-JKFIT
	 Reference Energy          =    -512.5476533557924768 [Eh]
	 Singles Energy            =      -0.0000000000000000 [Eh]
	 Same-Spin Energy          =      -0.5374572280567009 [Eh]
	 Opposite-Spin Energy      =      -1.6467129220482704 [Eh]
	 Correlation Energy        =      -2.1841701501049711 [Eh]
	 Total Energy              =    -514.7318235058974096 [Eh]

	 ================> DF-SCS-MP2 Energies <==================
	-----------------------------------------------------------
	 SCS Same-Spin Scale       =       0.3333333333333333 [-]
	 SCS Opposite-Spin Scale   =       1.2000000000000000 [-]
	 SCS Same-Spin Energy      =      -0.1791524093522336 [Eh]
	 SCS Opposite-Spin Energy  =      -1.9760555064579244 [Eh]
	 SCS Correlation Energy    =      -2.1552079158101578 [Eh]
	 SCS Total Energy          =    -514.7028612716026146 [Eh]
	-----------------------------------------------------------

  Dipole Moment: [D]
     X:    -1.4127      Y:    -1.7902      Z:    -3.2299     Total:     3.9538

*** Psi4 exiting successfully. Buy a developer a beer!
