                               Psi4 1.4a3.dev225

  ==> Input File <==

--------------------------------------------------------------------------
#psi4
#
memory 32 gb

molecule  {
0 1
  O       -0.4983720     2.1660820    -0.3008080
  O        1.7439460     0.8852250     1.1595980
  N        2.0846670    -0.6693810    -0.4855240
  C       -0.1747200    -0.1425440     0.1301780
  C       -1.0501490     0.9240530    -0.1297870
  C       -0.6500679    -1.4506791     0.2742578
  C        1.2926210     0.1057900     0.3196980
  C       -2.4223480     0.6871570    -0.2466200
  C       -2.0666220    -1.6719060     0.1573390
  C       -2.9283400    -0.6051620    -0.0964900
  C        3.5272930    -0.5029810    -0.4769650
  H       -0.0118380    -2.2529100     0.4809780
  H       -3.0973410     1.5164000    -0.4561860
  H       -2.4584240    -2.6782030     0.2778980
  H       -3.9991860    -0.7724420    -0.1829770
  H        1.6477640    -1.1074140    -1.2860730
  H        3.8478870     0.3529870    -1.0808760
  H        3.9959260    -1.4118430    -0.8588240
  H        3.8425270    -0.3337350     0.5522170
  H       -1.2204240     2.8028430    -0.4486720
units angstrom
no_reorient  #important for SAPT in psi4, default
symmetry c1  #important for SAPT in psi4, default
}

set PROPERTIES_ORIGIN ["COM"]
properties('MP2/aug-cc-pvtz', properties = ['dipole'])
--------------------------------------------------------------------------

    Molecular point group: c1
  Charge       = 0
  Multiplicity = 1
  Basis Set: AUG-CC-PVTZ
    Blend: AUG-CC-PVTZ
  Basis Set: (AUG-CC-PVTZ AUX)
    Blend: AUG-CC-PVTZ-JKFIT

    Orbital Energies [Eh]
    ---------------------

    Doubly Occupied:

       1A    -20.597895     2A    -20.512648     3A    -15.583798
       4A    -11.349129     5A    -11.320690     6A    -11.259067
       7A    -11.256194     8A    -11.255969     9A    -11.251283
      10A    -11.246857    11A    -11.244932    12A     -1.410073
      13A     -1.366774    14A     -1.225340    15A     -1.156196
      16A     -1.048292    17A     -1.013331    18A     -0.949907
      19A     -0.867179    20A     -0.844168    21A     -0.782124
      22A     -0.745344    23A     -0.723577    24A     -0.672097
      25A     -0.647803    26A     -0.636125    27A     -0.626002
      28A     -0.614662    29A     -0.595716    30A     -0.584831
      31A     -0.573264    32A     -0.545207    33A     -0.537853
      34A     -0.520416    35A     -0.514515    36A     -0.486587
      37A     -0.420086    38A     -0.388758    39A     -0.354975
      40A     -0.323303

  @DF-RHF Final Energy:  -512.54842635829459

   => Energetics <=

    Nuclear Repulsion Energy =            586.7471479629721216
    One-Electron Energy =               -1862.4852140432096803
    Two-Electron Energy =                 763.1896397219429673
    Total Energy =                       -512.5484263582945914
  Basis Set: (AUG-CC-PVTZ AUX)
    Blend: AUG-CC-PVTZ-RI
    Molecular point group: c1

    Geometry (in Angstrom), charge = 0, multiplicity = 1:

       Center              X                  Y                   Z               Mass
    ------------   -----------------  -----------------  -----------------  -----------------
         O           -0.485221368029     2.141972732764    -0.321268055240    15.994914619570
         O            1.757096631971     0.861115732764     1.139137944760    15.994914619570
         N            2.097817631971    -0.693490267236    -0.505984055240    14.003074004430
         C           -0.161569368029    -0.166653267236     0.109717944760    12.000000000000
         C           -1.036998368029     0.899943732764    -0.150247055240    12.000000000000
         C           -0.636917268029    -1.474788367236     0.253797744760    12.000000000000
         C            1.305771631971     0.081680732764     0.299237944760    12.000000000000
         C           -2.409197368029     0.663047732764    -0.267080055240    12.000000000000
         C           -2.053471368029    -1.696015267236     0.136878944760    12.000000000000
         C           -2.915189368029    -0.629271267236    -0.116950055240    12.000000000000
         C            3.540443631971    -0.527090267236    -0.497425055240    12.000000000000
         H            0.001312631971    -2.277019267236     0.460517944760     1.007825032230
         H           -3.084190368029     1.492290732764    -0.476646055240     1.007825032230
         H           -2.445273368029    -2.702312267236     0.257437944760     1.007825032230
         H           -3.986035368029    -0.796551267236    -0.203437055240     1.007825032230
         H            1.660914631971    -1.131523267236    -1.306533055240     1.007825032230
         H            3.861037631971     0.328877732764    -1.101336055240     1.007825032230
         H            4.009076631971    -1.435952267236    -0.879284055240     1.007825032230
         H            3.855677631971    -0.357844267236     0.531756944760     1.007825032230
         H           -1.207273368029     2.778733732764    -0.469132055240     1.007825032230

  Basis Set: AUG-CC-PVTZ
    Blend: AUG-CC-PVTZ
  Basis Set: (AUG-CC-PVTZ AUX)
    Blend: AUG-CC-PVTZ-JKFIT
	 Reference Energy          =    -512.5484263582945914 [Eh]
	 Singles Energy            =      -0.0000000000000000 [Eh]
	 Same-Spin Energy          =      -0.5370557623105351 [Eh]
	 Opposite-Spin Energy      =      -1.6464450649693987 [Eh]
	 Correlation Energy        =      -2.1835008272799339 [Eh]
	 Total Energy              =    -514.7319271855744773 [Eh]

	 ================> DF-SCS-MP2 Energies <==================
	-----------------------------------------------------------
	 SCS Same-Spin Scale       =       0.3333333333333333 [-]
	 SCS Opposite-Spin Scale   =       1.2000000000000000 [-]
	 SCS Same-Spin Energy      =      -0.1790185874368450 [Eh]
	 SCS Opposite-Spin Energy  =      -1.9757340779632784 [Eh]
	 SCS Correlation Energy    =      -2.1547526654001232 [Eh]
	 SCS Total Energy          =    -514.7031790236947018 [Eh]
	-----------------------------------------------------------

  Dipole Moment: [D]
     X:    -1.7111      Y:    -1.5840      Z:    -2.9720     Total:     3.7775

*** Psi4 exiting successfully. Buy a developer a beer!
