                               Psi4 1.4a3.dev225

  ==> Input File <==

--------------------------------------------------------------------------
#psi4
#
memory 32 gb

molecule  {
0 1
  O       -0.4983720     2.1660820    -0.3008080
  O        1.7439460     0.8852250     1.1595980
  N        2.0846670    -0.6693810    -0.4855240
  C       -0.1747200    -0.1425440     0.1301780
  C       -1.0501490     0.9240530    -0.1297870
  C       -0.6950920    -1.4344860     0.2644570
  C        1.2926210     0.1057900     0.3196980
  C       -2.4223480     0.6871570    -0.2466200
  C       -2.0666220    -1.6719060     0.1573390
  C       -2.9283400    -0.6051620    -0.0964900
  C        3.5272930    -0.5029810    -0.4769650
  H       -0.0118380    -2.2529100     0.4809780
  H       -3.0353910     1.4402931    -0.4369523
  H       -2.4584240    -2.6782030     0.2778980
  H       -3.9991860    -0.7724420    -0.1829770
  H        1.6477640    -1.1074140    -1.2860730
  H        3.8478870     0.3529870    -1.0808760
  H        3.9959260    -1.4118430    -0.8588240
  H        3.8425270    -0.3337350     0.5522170
  H       -1.2204240     2.8028430    -0.4486720
units angstrom
no_reorient  #important for SAPT in psi4, default
symmetry c1  #important for SAPT in psi4, default
}

set PROPERTIES_ORIGIN ["COM"]
properties('MP2/aug-cc-pvtz', properties = ['dipole'])
--------------------------------------------------------------------------

    Molecular point group: c1
  Charge       = 0
  Multiplicity = 1
  Basis Set: AUG-CC-PVTZ
    Blend: AUG-CC-PVTZ
  Basis Set: (AUG-CC-PVTZ AUX)
    Blend: AUG-CC-PVTZ-JKFIT

    Orbital Energies [Eh]
    ---------------------

    Doubly Occupied:

       1A    -20.598084     2A    -20.512870     3A    -15.583675
       4A    -11.349692     5A    -11.319522     6A    -11.257000
       7A    -11.255844     8A    -11.255820     9A    -11.248796
      10A    -11.239713    11A    -11.234435    12A     -1.410246
      13A     -1.366811    14A     -1.225105    15A     -1.160077
      16A     -1.048540    17A     -1.019488    18A     -0.950126
      19A     -0.869021    20A     -0.845446    21A     -0.783812
      22A     -0.747435    23A     -0.724261    24A     -0.676059
      25A     -0.652203    26A     -0.637012    27A     -0.625136
      28A     -0.614744    29A     -0.595754    30A     -0.585872
      31A     -0.575690    32A     -0.545112    33A     -0.536583
      34A     -0.522641    35A     -0.513054    36A     -0.489322
      37A     -0.421259    38A     -0.388631    39A     -0.353882
      40A     -0.325663

  @DF-RHF Final Energy:  -512.54639703313819

   => Energetics <=

    Nuclear Repulsion Energy =            587.7256245160280059
    One-Electron Energy =               -1864.4151755888306070
    Two-Electron Energy =                 764.1431540396645232
    Total Energy =                       -512.5463970331381915
  Basis Set: (AUG-CC-PVTZ AUX)
    Blend: AUG-CC-PVTZ-RI
    Molecular point group: c1

    Geometry (in Angstrom), charge = 0, multiplicity = 1:

       Center              X                  Y                   Z               Mass
    ------------   -----------------  -----------------  -----------------  -----------------
         O           -0.482058095752     2.141194153593    -0.320617828632    15.994914619570
         O            1.760259904248     0.860337153593     1.139788171368    15.994914619570
         N            2.100980904248    -0.694268846407    -0.505333828632    14.003074004430
         C           -0.158406095752    -0.167431846407     0.110368171368    12.000000000000
         C           -1.033835095752     0.899165153593    -0.149596828632    12.000000000000
         C           -0.678778095752    -1.459373846407     0.244647171368    12.000000000000
         C            1.308934904248     0.080902153593     0.299888171368    12.000000000000
         C           -2.406034095752     0.662269153593    -0.266429828632    12.000000000000
         C           -2.050308095752    -1.696793846407     0.137529171368    12.000000000000
         C           -2.912026095752    -0.630049846407    -0.116299828632    12.000000000000
         C            3.543606904248    -0.527868846407    -0.496774828632    12.000000000000
         H            0.004475904248    -2.277797846407     0.461168171368     1.007825032230
         H           -3.019077095752     1.415405253593    -0.456762128632     1.007825032230
         H           -2.442110095752    -2.703090846407     0.258088171368     1.007825032230
         H           -3.982872095752    -0.797329846407    -0.202786828632     1.007825032230
         H            1.664077904248    -1.132301846407    -1.305882828632     1.007825032230
         H            3.864200904248     0.328099153593    -1.100685828632     1.007825032230
         H            4.012239904248    -1.436730846407    -0.878633828632     1.007825032230
         H            3.858840904248    -0.358622846407     0.532407171368     1.007825032230
         H           -1.204110095752     2.777955153593    -0.468481828632     1.007825032230

  Basis Set: AUG-CC-PVTZ
    Blend: AUG-CC-PVTZ
  Basis Set: (AUG-CC-PVTZ AUX)
    Blend: AUG-CC-PVTZ-JKFIT
	 Reference Energy          =    -512.5463970331381915 [Eh]
	 Singles Energy            =      -0.0000000000000000 [Eh]
	 Same-Spin Energy          =      -0.5368756939317825 [Eh]
	 Opposite-Spin Energy      =      -1.6455895811007473 [Eh]
	 Correlation Energy        =      -2.1824652750325297 [Eh]
	 Total Energy              =    -514.7288623081707328 [Eh]

	 ================> DF-SCS-MP2 Energies <==================
	-----------------------------------------------------------
	 SCS Same-Spin Scale       =       0.3333333333333333 [-]
	 SCS Opposite-Spin Scale   =       1.2000000000000000 [-]
	 SCS Same-Spin Energy      =      -0.1789585646439275 [Eh]
	 SCS Opposite-Spin Energy  =      -1.9747074973208967 [Eh]
	 SCS Correlation Energy    =      -2.1536660619648242 [Eh]
	 SCS Total Energy          =    -514.7000630951030189 [Eh]
	-----------------------------------------------------------

  Dipole Moment: [D]
     X:    -1.7231      Y:    -1.5491      Z:    -2.9804     Total:     3.7751

*** Psi4 exiting successfully. Buy a developer a beer!
