                               Psi4 1.4a3.dev225

  ==> Input File <==

--------------------------------------------------------------------------
#psi4
#
memory 32 gb

molecule  {
0 1
  O       -0.4983720     2.1660820    -0.3008080
  O        1.7439460     0.8852250     1.1595980
  N        2.0846670    -0.6693810    -0.4855240
  C       -0.1747200    -0.1425440     0.1301780
  C       -1.0098673     1.0147255    -0.1422721
  C       -0.6950920    -1.4344860     0.2644570
  C        1.2926210     0.1057900     0.3196980
  C       -2.4223480     0.6871570    -0.2466200
  C       -2.0666220    -1.6719060     0.1573390
  C       -2.9283400    -0.6051620    -0.0964900
  C        3.5272930    -0.5029810    -0.4769650
  H       -0.0118380    -2.2529100     0.4809780
  H       -3.0973410     1.5164000    -0.4561860
  H       -2.4584240    -2.6782030     0.2778980
  H       -3.9991860    -0.7724420    -0.1829770
  H        1.6477640    -1.1074140    -1.2860730
  H        3.8478870     0.3529870    -1.0808760
  H        3.9959260    -1.4118430    -0.8588240
  H        3.8425270    -0.3337350     0.5522170
  H       -1.2204240     2.8028430    -0.4486720
units angstrom
no_reorient  #important for SAPT in psi4, default
symmetry c1  #important for SAPT in psi4, default
}

set PROPERTIES_ORIGIN ["COM"]
properties('MP2/aug-cc-pvtz', properties = ['dipole'])
--------------------------------------------------------------------------

    Molecular point group: c1
  Charge       = 0
  Multiplicity = 1
  Basis Set: AUG-CC-PVTZ
    Blend: AUG-CC-PVTZ
  Basis Set: (AUG-CC-PVTZ AUX)
    Blend: AUG-CC-PVTZ-JKFIT

    Orbital Energies [Eh]
    ---------------------

    Doubly Occupied:

       1A    -20.619922     2A    -20.511282     3A    -15.581471
       4A    -11.345806     5A    -11.332567     6A    -11.254627
       7A    -11.254550     8A    -11.254097     9A    -11.247302
      10A    -11.246105    11A    -11.233628    12A     -1.471028
      13A     -1.365903    14A     -1.223094    15A     -1.147213
      16A     -1.039332    17A     -1.007965    18A     -0.947247
      19A     -0.867939    20A     -0.850365    21A     -0.780066
      22A     -0.758985    23A     -0.724099    24A     -0.687876
      25A     -0.648326    26A     -0.639579    27A     -0.625293
      28A     -0.618238    29A     -0.609854    30A     -0.582999
      31A     -0.577589    32A     -0.543863    33A     -0.536845
      34A     -0.520926    35A     -0.496852    36A     -0.485167
      37A     -0.417403    38A     -0.387440    39A     -0.350284
      40A     -0.310435

  @DF-RHF Final Energy:  -512.53920536094972

   => Energetics <=

    Nuclear Repulsion Energy =            586.9554928690390625
    One-Electron Energy =               -1862.7822727465054413
    Two-Electron Energy =                 763.2875745165166563
    Total Energy =                       -512.5392053609497225
  Basis Set: (AUG-CC-PVTZ AUX)
    Blend: AUG-CC-PVTZ-RI
    Molecular point group: c1

    Geometry (in Angstrom), charge = 0, multiplicity = 1:

       Center              X                  Y                   Z               Mass
    ------------   -----------------  -----------------  -----------------  -----------------
         O           -0.484844646553     2.133483662567    -0.319497732803    15.994914619570
         O            1.757473353447     0.852626662567     1.140908267197    15.994914619570
         N            2.098194353447    -0.701979337433    -0.504213732803    14.003074004430
         C           -0.161192646553    -0.175142337433     0.111488267197    12.000000000000
         C           -0.996339946553     0.982127162567    -0.160961832803    12.000000000000
         C           -0.681564646553    -1.467084337433     0.245767267197    12.000000000000
         C            1.306148353447     0.073191662567     0.301008267197    12.000000000000
         C           -2.408820646553     0.654558662567    -0.265309732803    12.000000000000
         C           -2.053094646553    -1.704504337433     0.138649267197    12.000000000000
         C           -2.914812646553    -0.637760337433    -0.115179732803    12.000000000000
         C            3.540820353447    -0.535579337433    -0.495654732803    12.000000000000
         H            0.001689353447    -2.285508337433     0.462288267197     1.007825032230
         H           -3.083813646553     1.483801662567    -0.474875732803     1.007825032230
         H           -2.444896646553    -2.710801337433     0.259208267197     1.007825032230
         H           -3.985658646553    -0.805040337433    -0.201666732803     1.007825032230
         H            1.661291353447    -1.140012337433    -1.304762732803     1.007825032230
         H            3.861414353447     0.320388662567    -1.099565732803     1.007825032230
         H            4.009453353447    -1.444441337433    -0.877513732803     1.007825032230
         H            3.856054353447    -0.366333337433     0.533527267197     1.007825032230
         H           -1.206896646553     2.770244662567    -0.467361732803     1.007825032230

  Basis Set: AUG-CC-PVTZ
    Blend: AUG-CC-PVTZ
  Basis Set: (AUG-CC-PVTZ AUX)
    Blend: AUG-CC-PVTZ-JKFIT
	 Reference Energy          =    -512.5392053609497225 [Eh]
	 Singles Energy            =      -0.0000000000000000 [Eh]
	 Same-Spin Energy          =      -0.5373544676600137 [Eh]
	 Opposite-Spin Energy      =      -1.6454936607776758 [Eh]
	 Correlation Energy        =      -2.1828481284376897 [Eh]
	 Total Energy              =    -514.7220534893874628 [Eh]

	 ================> DF-SCS-MP2 Energies <==================
	-----------------------------------------------------------
	 SCS Same-Spin Scale       =       0.3333333333333333 [-]
	 SCS Opposite-Spin Scale   =       1.2000000000000000 [-]
	 SCS Same-Spin Energy      =      -0.1791181558866712 [Eh]
	 SCS Opposite-Spin Energy  =      -1.9745923929332108 [Eh]
	 SCS Correlation Energy    =      -2.1537105488198818 [Eh]
	 SCS Total Energy          =    -514.6929159097695674 [Eh]
	-----------------------------------------------------------

  Dipole Moment: [D]
     X:    -1.5256      Y:    -0.9112      Z:    -3.0725     Total:     3.5494

*** Psi4 exiting successfully. Buy a developer a beer!
