                               Psi4 1.4a3.dev225

  ==> Input File <==

--------------------------------------------------------------------------
#psi4
#
memory 32 gb

molecule  {
0 1
  O       -0.4983720     2.1660820    -0.3008080
  O        1.7439460     0.8852250     1.1595980
  N        2.0846670    -0.6693810    -0.4855240
  C       -0.1747200    -0.1425440     0.1301780
  C       -1.0501490     0.9240530    -0.1297870
  C       -0.6044647    -1.4652784     0.2838830
  C        1.2926210     0.1057900     0.3196980
  C       -2.4223480     0.6871570    -0.2466200
  C       -2.0666220    -1.6719060     0.1573390
  C       -2.9283400    -0.6051620    -0.0964900
  C        3.5272930    -0.5029810    -0.4769650
  H       -0.0118380    -2.2529100     0.4809780
  H       -3.0973410     1.5164000    -0.4561860
  H       -2.4584240    -2.6782030     0.2778980
  H       -3.9991860    -0.7724420    -0.1829770
  H        1.6477640    -1.1074140    -1.2860730
  H        3.8478870     0.3529870    -1.0808760
  H        3.9959260    -1.4118430    -0.8588240
  H        3.8425270    -0.3337350     0.5522170
  H       -1.2204240     2.8028430    -0.4486720
units angstrom
no_reorient  #important for SAPT in psi4, default
symmetry c1  #important for SAPT in psi4, default
}

set PROPERTIES_ORIGIN ["COM"]
properties('MP2/aug-cc-pvtz', properties = ['dipole'])
--------------------------------------------------------------------------

    Molecular point group: c1
  Charge       = 0
  Multiplicity = 1
  Basis Set: AUG-CC-PVTZ
    Blend: AUG-CC-PVTZ
  Basis Set: (AUG-CC-PVTZ AUX)
    Blend: AUG-CC-PVTZ-JKFIT

    Orbital Energies [Eh]
    ---------------------

    Doubly Occupied:

       1A    -20.598118     2A    -20.512168     3A    -15.583661
       4A    -11.348260     5A    -11.321087     6A    -11.260889
       7A    -11.255944     8A    -11.255741     9A    -11.253427
      10A    -11.249219    11A    -11.247254    12A     -1.410263
      13A     -1.366514    14A     -1.225350    15A     -1.152986
      16A     -1.050035    17A     -1.009582    18A     -0.949542
      19A     -0.870330    20A     -0.843462    21A     -0.781207
      22A     -0.749488    23A     -0.723193    24A     -0.669278
      25A     -0.647342    26A     -0.638066    27A     -0.633578
      28A     -0.614980    29A     -0.595792    30A     -0.583933
      31A     -0.570646    32A     -0.545200    33A     -0.540373
      34A     -0.518262    35A     -0.514404    36A     -0.483762
      37A     -0.418505    38A     -0.388633    39A     -0.356067
      40A     -0.320449

  @DF-RHF Final Energy:  -512.53837730852581

   => Energetics <=

    Nuclear Repulsion Energy =            586.3789789838605202
    One-Electron Energy =               -1861.7207341010980599
    Two-Electron Energy =                 762.8033778087116161
    Total Energy =                       -512.5383773085258099
  Basis Set: (AUG-CC-PVTZ AUX)
    Blend: AUG-CC-PVTZ-RI
    Molecular point group: c1

    Geometry (in Angstrom), charge = 0, multiplicity = 1:

       Center              X                  Y                   Z               Mass
    ------------   -----------------  -----------------  -----------------  -----------------
         O           -0.488843944105     2.143132455654    -0.322032651129    15.994914619570
         O            1.753474055895     0.862275455654     1.138373348871    15.994914619570
         N            2.094195055895    -0.692330544346    -0.506748651129    14.003074004430
         C           -0.165191944105    -0.165493544346     0.108953348871    12.000000000000
         C           -1.040620944105     0.901103455654    -0.151011651129    12.000000000000
         C           -0.594936644105    -1.488227944346     0.262658348871    12.000000000000
         C            1.302149055895     0.082840455654     0.298473348871    12.000000000000
         C           -2.412819944105     0.664207455654    -0.267844651129    12.000000000000
         C           -2.057093944105    -1.694855544346     0.136114348871    12.000000000000
         C           -2.918811944105    -0.628111544346    -0.117714651129    12.000000000000
         C            3.536821055895    -0.525930544346    -0.498189651129    12.000000000000
         H           -0.002309944105    -2.275859544346     0.459753348871     1.007825032230
         H           -3.087812944105     1.493450455654    -0.477410651129     1.007825032230
         H           -2.448895944105    -2.701152544346     0.256673348871     1.007825032230
         H           -3.989657944105    -0.795391544346    -0.204201651129     1.007825032230
         H            1.657292055895    -1.130363544346    -1.307297651129     1.007825032230
         H            3.857415055895     0.330037455654    -1.102100651129     1.007825032230
         H            4.005454055895    -1.434792544346    -0.880048651129     1.007825032230
         H            3.852055055895    -0.356684544346     0.530992348871     1.007825032230
         H           -1.210895944105     2.779893455654    -0.469896651129     1.007825032230

  Basis Set: AUG-CC-PVTZ
    Blend: AUG-CC-PVTZ
  Basis Set: (AUG-CC-PVTZ AUX)
    Blend: AUG-CC-PVTZ-JKFIT
	 Reference Energy          =    -512.5383773085258099 [Eh]
	 Singles Energy            =      -0.0000000000000000 [Eh]
	 Same-Spin Energy          =      -0.5371476890597128 [Eh]
	 Opposite-Spin Energy      =      -1.6472035588215426 [Eh]
	 Correlation Energy        =      -2.1843512478812555 [Eh]
	 Total Energy              =    -514.7227285564071053 [Eh]

	 ================> DF-SCS-MP2 Energies <==================
	-----------------------------------------------------------
	 SCS Same-Spin Scale       =       0.3333333333333333 [-]
	 SCS Opposite-Spin Scale   =       1.2000000000000000 [-]
	 SCS Same-Spin Energy      =      -0.1790492296865709 [Eh]
	 SCS Opposite-Spin Energy  =      -1.9766442705858509 [Eh]
	 SCS Correlation Energy    =      -2.1556935002724220 [Eh]
	 SCS Total Energy          =    -514.6940708087981875 [Eh]
	-----------------------------------------------------------

  Dipole Moment: [D]
     X:    -1.7175      Y:    -1.5796      Z:    -2.9720     Total:     3.7786

*** Psi4 exiting successfully. Buy a developer a beer!
