                               Psi4 1.4a3.dev225

  ==> Input File <==

--------------------------------------------------------------------------
#psi4
#
memory 32 gb

molecule  {
0 1
  O       -0.4983720     2.1660820    -0.3008080
  O        1.7439460     0.8852250     1.1595980
  N        2.0846670    -0.6693810    -0.4855240
  C       -0.1747200    -0.1425440     0.1301780
  C       -1.0501490     0.9240530    -0.1297870
  C       -0.6950920    -1.4344860     0.2644570
  C        1.2926210     0.1057900     0.3196980
  C       -2.4223480     0.6871570    -0.2466200
  C       -2.0666220    -1.6719060     0.1573390
  C       -2.9283400    -0.6051620    -0.0964900
  C        3.5272930    -0.5029810    -0.4769650
  H       -0.0118380    -2.2529100     0.4809780
  H       -3.0973410     1.5164000    -0.4561860
  H       -2.4584240    -2.6782030     0.2778980
  H       -3.9991860    -0.7724420    -0.1829770
  H        1.6477640    -1.1074140    -1.2860730
  H        3.8478870     0.3529870    -1.0808760
  H        3.9959260    -1.4118430    -0.8588240
  H        3.8425270    -0.3337350     0.5522170
  H       -1.2352504     2.8159181    -0.4517082
units angstrom
no_reorient  #important for SAPT in psi4, default
symmetry c1  #important for SAPT in psi4, default
}

set PROPERTIES_ORIGIN ["COM"]
properties('MP2/aug-cc-pvtz', properties = ['dipole'])
--------------------------------------------------------------------------

    Molecular point group: c1
  Charge       = 0
  Multiplicity = 1
  Basis Set: AUG-CC-PVTZ
    Blend: AUG-CC-PVTZ
  Basis Set: (AUG-CC-PVTZ AUX)
    Blend: AUG-CC-PVTZ-JKFIT

    Orbital Energies [Eh]
    ---------------------

    Doubly Occupied:

       1A    -20.599308     2A    -20.513039     3A    -15.583840
       4A    -11.349957     5A    -11.320220     6A    -11.257259
       7A    -11.256636     8A    -11.255923     9A    -11.249379
      10A    -11.246379    11A    -11.240253    12A     -1.405997
      13A     -1.366856    14A     -1.225262    15A     -1.159635
      16A     -1.046544    17A     -1.016998    18A     -0.950108
      19A     -0.864755    20A     -0.842947    21A     -0.783035
      22A     -0.740279    23A     -0.722378    24A     -0.674841
      25A     -0.647961    26A     -0.635973    27A     -0.618901
      28A     -0.612371    29A     -0.595187    30A     -0.585575
      31A     -0.574508    32A     -0.545161    33A     -0.535678
      34A     -0.522280    35A     -0.511007    36A     -0.489532
      37A     -0.421392    38A     -0.388756    39A     -0.354246
      40A     -0.325884

  @DF-RHF Final Energy:  -512.55043869967460

   => Energetics <=

    Nuclear Repulsion Energy =            587.0334531606827113
    One-Electron Energy =               -1863.0953040425724794
    Two-Electron Energy =                 763.5114121822151674
    Total Energy =                       -512.5504386996746007
  Basis Set: (AUG-CC-PVTZ AUX)
    Blend: AUG-CC-PVTZ-RI
    Molecular point group: c1

    Geometry (in Angstrom), charge = 0, multiplicity = 1:

       Center              X                  Y                   Z               Mass
    ------------   -----------------  -----------------  -----------------  -----------------
         O           -0.481545878931     2.140599172317    -0.320469254105    15.994914619570
         O            1.760772121069     0.859742172317     1.139936745895    15.994914619570
         N            2.101493121069    -0.694863827683    -0.505185254105    14.003074004430
         C           -0.157893878931    -0.168026827683     0.110516745895    12.000000000000
         C           -1.033322878931     0.898570172317    -0.149448254105    12.000000000000
         C           -0.678265878931    -1.459968827683     0.244795745895    12.000000000000
         C            1.309447121069     0.080307172317     0.300036745895    12.000000000000
         C           -2.405521878931     0.661674172317    -0.266281254105    12.000000000000
         C           -2.049795878931    -1.697388827683     0.137677745895    12.000000000000
         C           -2.911513878931    -0.630644827683    -0.116151254105    12.000000000000
         C            3.544119121069    -0.528463827683    -0.496626254105    12.000000000000
         H            0.004988121069    -2.278392827683     0.461316745895     1.007825032230
         H           -3.080514878931     1.490917172317    -0.475847254105     1.007825032230
         H           -2.441597878931    -2.703685827683     0.258236745895     1.007825032230
         H           -3.982359878931    -0.797924827683    -0.202638254105     1.007825032230
         H            1.664590121069    -1.132896827683    -1.305734254105     1.007825032230
         H            3.864713121069     0.327504172317    -1.100537254105     1.007825032230
         H            4.012752121069    -1.437325827683    -0.878485254105     1.007825032230
         H            3.859353121069    -0.359217827683     0.532555745895     1.007825032230
         H           -1.218424278931     2.790435272317    -0.471369454105     1.007825032230

  Basis Set: AUG-CC-PVTZ
    Blend: AUG-CC-PVTZ
  Basis Set: (AUG-CC-PVTZ AUX)
    Blend: AUG-CC-PVTZ-JKFIT
	 Reference Energy          =    -512.5504386996746007 [Eh]
	 Singles Energy            =      -0.0000000000000000 [Eh]
	 Same-Spin Energy          =      -0.5373054692399876 [Eh]
	 Opposite-Spin Energy      =      -1.6466998887848783 [Eh]
	 Correlation Energy        =      -2.1840053580248657 [Eh]
	 Total Energy              =    -514.7344440576994202 [Eh]

	 ================> DF-SCS-MP2 Energies <==================
	-----------------------------------------------------------
	 SCS Same-Spin Scale       =       0.3333333333333333 [-]
	 SCS Opposite-Spin Scale   =       1.2000000000000000 [-]
	 SCS Same-Spin Energy      =      -0.1791018230799958 [Eh]
	 SCS Opposite-Spin Energy  =      -1.9760398665418539 [Eh]
	 SCS Correlation Energy    =      -2.1551416896218498 [Eh]
	 SCS Total Energy          =    -514.7055803892964150 [Eh]
	-----------------------------------------------------------

  Dipole Moment: [D]
     X:    -1.7178      Y:    -1.5599      Z:    -2.9772     Total:     3.7746

*** Psi4 exiting successfully. Buy a developer a beer!
