                               Psi4 1.4a3.dev225

  ==> Input File <==

--------------------------------------------------------------------------
#psi4
#
memory 32 gb

molecule  {
0 1
  O       -0.4983720     2.1660820    -0.3008080
  O        1.7439460     0.8852250     1.1595980
  N        2.0846670    -0.6693810    -0.4855240
  C       -0.1747200    -0.1425440     0.1301780
  C       -1.0501490     0.9240530    -0.1297870
  C       -0.6950920    -1.4344860     0.2644570
  C        1.4133079     0.1681086     0.3656502
  C       -2.4223480     0.6871570    -0.2466200
  C       -2.0666220    -1.6719060     0.1573390
  C       -2.9283400    -0.6051620    -0.0964900
  C        3.5272930    -0.5029810    -0.4769650
  H       -0.0118380    -2.2529100     0.4809780
  H       -3.0973410     1.5164000    -0.4561860
  H       -2.4584240    -2.6782030     0.2778980
  H       -3.9991860    -0.7724420    -0.1829770
  H        1.6477640    -1.1074140    -1.2860730
  H        3.8478870     0.3529870    -1.0808760
  H        3.9959260    -1.4118430    -0.8588240
  H        3.8425270    -0.3337350     0.5522170
  H       -1.2204240     2.8028430    -0.4486720
units angstrom
no_reorient  #important for SAPT in psi4, default
symmetry c1  #important for SAPT in psi4, default
}

set PROPERTIES_ORIGIN ["COM"]
properties('MP2/aug-cc-pvtz', properties = ['dipole'])
--------------------------------------------------------------------------

    Molecular point group: c1
  Charge       = 0
  Multiplicity = 1
  Basis Set: AUG-CC-PVTZ
    Blend: AUG-CC-PVTZ
  Basis Set: (AUG-CC-PVTZ AUX)
    Blend: AUG-CC-PVTZ-JKFIT

    Orbital Energies [Eh]
    ---------------------

    Doubly Occupied:

       1A    -20.592525     2A    -20.534556     3A    -15.580860
       4A    -11.349865     5A    -11.308788     6A    -11.255811
       7A    -11.247051     8A    -11.246448     9A    -11.239616
      10A    -11.239121    11A    -11.233013    12A     -1.452952
      13A     -1.403382    14A     -1.236721    15A     -1.148884
      16A     -1.027725    17A     -1.008024    18A     -0.944580
      19A     -0.851517    20A     -0.828737    21A     -0.792283
      22A     -0.735369    23A     -0.717185    24A     -0.675445
      25A     -0.660169    26A     -0.640579    27A     -0.631828
      28A     -0.605767    29A     -0.596595    30A     -0.582650
      31A     -0.575765    32A     -0.561015    33A     -0.551419
      34A     -0.529302    35A     -0.510842    36A     -0.484742
      37A     -0.411558    38A     -0.397886    39A     -0.345071
      40A     -0.317810

  @DF-RHF Final Energy:  -512.53084612857094

   => Energetics <=

    Nuclear Repulsion Energy =            587.0996583462275566
    One-Electron Energy =               -1863.1540892820621593
    Two-Electron Energy =                 763.5235848072637737
    Total Energy =                       -512.5308461285709427
  Basis Set: (AUG-CC-PVTZ AUX)
    Blend: AUG-CC-PVTZ-RI
    Molecular point group: c1

    Geometry (in Angstrom), charge = 0, multiplicity = 1:

       Center              X                  Y                   Z               Mass
    ------------   -----------------  -----------------  -----------------  -----------------
         O           -0.491231785043     2.135736008013    -0.324139809783    15.994914619570
         O            1.751086214957     0.854879008013     1.136266190217    15.994914619570
         N            2.091807214957    -0.699726991987    -0.508855809783    14.003074004430
         C           -0.167579785043    -0.172889991987     0.106846190217    12.000000000000
         C           -1.043008785043     0.893707008013    -0.153118809783    12.000000000000
         C           -0.687951785043    -1.464831991987     0.241125190217    12.000000000000
         C            1.420448114957     0.137762608013     0.342318390217    12.000000000000
         C           -2.415207785043     0.656811008013    -0.269951809783    12.000000000000
         C           -2.059481785043    -1.702251991987     0.134007190217    12.000000000000
         C           -2.921199785043    -0.635507991987    -0.119821809783    12.000000000000
         C            3.534433214957    -0.533326991987    -0.500296809783    12.000000000000
         H           -0.004697785043    -2.283255991987     0.457646190217     1.007825032230
         H           -3.090200785043     1.486054008013    -0.479517809783     1.007825032230
         H           -2.451283785043    -2.708548991987     0.254566190217     1.007825032230
         H           -3.992045785043    -0.802787991987    -0.206308809783     1.007825032230
         H            1.654904214957    -1.137759991987    -1.309404809783     1.007825032230
         H            3.855027214957     0.322641008013    -1.104207809783     1.007825032230
         H            4.003066214957    -1.442188991987    -0.882155809783     1.007825032230
         H            3.849667214957    -0.364080991987     0.528885190217     1.007825032230
         H           -1.213283785043     2.772497008013    -0.472003809783     1.007825032230

  Basis Set: AUG-CC-PVTZ
    Blend: AUG-CC-PVTZ
  Basis Set: (AUG-CC-PVTZ AUX)
    Blend: AUG-CC-PVTZ-JKFIT
	 Reference Energy          =    -512.5308461285709427 [Eh]
	 Singles Energy            =      -0.0000000000000000 [Eh]
	 Same-Spin Energy          =      -0.5348237538349632 [Eh]
	 Opposite-Spin Energy      =      -1.6413713137850510 [Eh]
	 Correlation Energy        =      -2.1761950676200144 [Eh]
	 Total Energy              =    -514.7070411961909713 [Eh]

	 ================> DF-SCS-MP2 Energies <==================
	-----------------------------------------------------------
	 SCS Same-Spin Scale       =       0.3333333333333333 [-]
	 SCS Opposite-Spin Scale   =       1.2000000000000000 [-]
	 SCS Same-Spin Energy      =      -0.1782745846116544 [Eh]
	 SCS Opposite-Spin Energy  =      -1.9696455765420611 [Eh]
	 SCS Correlation Energy    =      -2.1479201611537153 [Eh]
	 SCS Total Energy          =    -514.6787662897246491 [Eh]
	-----------------------------------------------------------

  Dipole Moment: [D]
     X:    -0.8396      Y:    -1.1878      Z:    -2.5491     Total:     2.9349

*** Psi4 exiting successfully. Buy a developer a beer!
