                               Psi4 1.4a3.dev225

  ==> Input File <==

--------------------------------------------------------------------------
#psi4
#
memory 32 gb

molecule  {
0 1
  O       -0.4983720     2.1660820    -0.3008080
  O        1.7439460     0.8852250     1.1595980
  N        2.0846670    -0.6693810    -0.4855240
  C       -0.1747200    -0.1425440     0.1301780
  C       -1.0501490     0.9240530    -0.1297870
  C       -0.6950920    -1.4344860     0.2644570
  C        1.2926210     0.1057900     0.3196980
  C       -2.4223480     0.6871570    -0.2466200
  C       -2.0666220    -1.6719060     0.1573390
  C       -2.9159821    -0.6204601    -0.0928499
  C        3.5272930    -0.5029810    -0.4769650
  H       -0.0118380    -2.2529100     0.4809780
  H       -3.0973410     1.5164000    -0.4561860
  H       -2.4584240    -2.6782030     0.2778980
  H       -3.9991860    -0.7724420    -0.1829770
  H        1.6477640    -1.1074140    -1.2860730
  H        3.8478870     0.3529870    -1.0808760
  H        3.9959260    -1.4118430    -0.8588240
  H        3.8425270    -0.3337350     0.5522170
  H       -1.2204240     2.8028430    -0.4486720
units angstrom
no_reorient  #important for SAPT in psi4, default
symmetry c1  #important for SAPT in psi4, default
}

set PROPERTIES_ORIGIN ["COM"]
properties('MP2/aug-cc-pvtz', properties = ['dipole'])
--------------------------------------------------------------------------

    Molecular point group: c1
  Charge       = 0
  Multiplicity = 1
  Basis Set: AUG-CC-PVTZ
    Blend: AUG-CC-PVTZ
  Basis Set: (AUG-CC-PVTZ AUX)
    Blend: AUG-CC-PVTZ-JKFIT

    Orbital Energies [Eh]
    ---------------------

    Doubly Occupied:

       1A    -20.597395     2A    -20.513225     3A    -15.584019
       4A    -11.350194     5A    -11.320062     6A    -11.257773
       7A    -11.256155     8A    -11.256042     9A    -11.249861
      10A    -11.246732    11A    -11.238422    12A     -1.409689
      13A     -1.367151    14A     -1.225439    15A     -1.161120
      16A     -1.046350    17A     -1.018886    18A     -0.950163
      19A     -0.866224    20A     -0.843254    21A     -0.783027
      22A     -0.742257    23A     -0.723523    24A     -0.673886
      25A     -0.648872    26A     -0.636321    27A     -0.619436
      28A     -0.612850    29A     -0.595543    30A     -0.585757
      31A     -0.575171    32A     -0.545321    33A     -0.535461
      34A     -0.520710    35A     -0.512604    36A     -0.490771
      37A     -0.421553    38A     -0.388907    39A     -0.352924
      40A     -0.328086

  @DF-RHF Final Energy:  -512.55171481263847

   => Energetics <=

    Nuclear Repulsion Energy =            587.3516367718613083
    One-Electron Energy =               -1863.7044240897846521
    Two-Electron Energy =                 763.8010725052847647
    Total Energy =                       -512.5517148126384654
  Basis Set: (AUG-CC-PVTZ AUX)
    Blend: AUG-CC-PVTZ-RI
    Molecular point group: c1

    Geometry (in Angstrom), charge = 0, multiplicity = 1:

       Center              X                  Y                   Z               Mass
    ------------   -----------------  -----------------  -----------------  -----------------
         O           -0.482626466911     2.141901636753    -0.320778668433    15.994914619570
         O            1.759691533089     0.861044636753     1.139627331567    15.994914619570
         N            2.100412533089    -0.693561363247    -0.505494668433    14.003074004430
         C           -0.158974466911    -0.166724363247     0.110207331567    12.000000000000
         C           -1.034403466911     0.899872636753    -0.149757668433    12.000000000000
         C           -0.679346466911    -1.458666363247     0.244486331567    12.000000000000
         C            1.308366533089     0.081609636753     0.299727331567    12.000000000000
         C           -2.406602466911     0.662976636753    -0.266590668433    12.000000000000
         C           -2.050876466911    -1.696086363247     0.137368331567    12.000000000000
         C           -2.900236566911    -0.644640463247    -0.112820568433    12.000000000000
         C            3.543038533089    -0.527161363247    -0.496935668433    12.000000000000
         H            0.003907533089    -2.277090363247     0.461007331567     1.007825032230
         H           -3.081595466911     1.492219636753    -0.476156668433     1.007825032230
         H           -2.442678466911    -2.702383363247     0.257927331567     1.007825032230
         H           -3.983440466911    -0.796622363247    -0.202947668433     1.007825032230
         H            1.663509533089    -1.131594363247    -1.306043668433     1.007825032230
         H            3.863632533089     0.328806636753    -1.100846668433     1.007825032230
         H            4.011671533089    -1.436023363247    -0.878794668433     1.007825032230
         H            3.858272533089    -0.357915363247     0.532246331567     1.007825032230
         H           -1.204678466911     2.778662636753    -0.468642668433     1.007825032230

  Basis Set: AUG-CC-PVTZ
    Blend: AUG-CC-PVTZ
  Basis Set: (AUG-CC-PVTZ AUX)
    Blend: AUG-CC-PVTZ-JKFIT
	 Reference Energy          =    -512.5517148126384654 [Eh]
	 Singles Energy            =      -0.0000000000000000 [Eh]
	 Same-Spin Energy          =      -0.5370155461664217 [Eh]
	 Opposite-Spin Energy      =      -1.6460021792138084 [Eh]
	 Correlation Energy        =      -2.1830177253802301 [Eh]
	 Total Energy              =    -514.7347325380186476 [Eh]

	 ================> DF-SCS-MP2 Energies <==================
	-----------------------------------------------------------
	 SCS Same-Spin Scale       =       0.3333333333333333 [-]
	 SCS Opposite-Spin Scale   =       1.2000000000000000 [-]
	 SCS Same-Spin Energy      =      -0.1790051820554739 [Eh]
	 SCS Opposite-Spin Energy  =      -1.9752026150565700 [Eh]
	 SCS Correlation Energy    =      -2.1542077971120439 [Eh]
	 SCS Total Energy          =    -514.7059226097504734 [Eh]
	-----------------------------------------------------------

  Dipole Moment: [D]
     X:    -1.6971      Y:    -1.5859      Z:    -2.9721     Total:     3.7721

*** Psi4 exiting successfully. Buy a developer a beer!
