                               Psi4 1.4a3.dev225

  ==> Input File <==

--------------------------------------------------------------------------
#psi4
#
memory 32 gb

molecule  {
0 1
  O       -0.4983720     2.1660820    -0.3008080
  O        1.7439460     0.8852250     1.1595980
  N        2.0846670    -0.6693810    -0.4855240
  C       -0.1747200    -0.1425440     0.1301780
  C       -1.0501490     0.9240530    -0.1297870
  C       -0.6950920    -1.4344860     0.2644570
  C        1.2926210     0.1057900     0.3196980
  C       -2.4223480     0.6871570    -0.2466200
  C       -2.0666220    -1.6719060     0.1573390
  C       -2.9283400    -0.6051620    -0.0964900
  C        3.5272930    -0.5029810    -0.4769650
  H       -0.0118380    -2.2529100     0.4809780
  H       -3.0973410     1.5164000    -0.4561860
  H       -2.4584240    -2.6782030     0.2778980
  H       -3.8022086    -0.7416716    -0.1670681
  H        1.6477640    -1.1074140    -1.2860730
  H        3.8478870     0.3529870    -1.0808760
  H        3.9959260    -1.4118430    -0.8588240
  H        3.8425270    -0.3337350     0.5522170
  H       -1.2204240     2.8028430    -0.4486720
units angstrom
no_reorient  #important for SAPT in psi4, default
symmetry c1  #important for SAPT in psi4, default
}

set PROPERTIES_ORIGIN ["COM"]
properties('MP2/aug-cc-pvtz', properties = ['dipole'])
--------------------------------------------------------------------------

    Molecular point group: c1
  Charge       = 0
  Multiplicity = 1
  Basis Set: AUG-CC-PVTZ
    Blend: AUG-CC-PVTZ
  Basis Set: (AUG-CC-PVTZ AUX)
    Blend: AUG-CC-PVTZ-JKFIT

    Orbital Energies [Eh]
    ---------------------

    Doubly Occupied:

       1A    -20.597054     2A    -20.512897     3A    -15.583692
       4A    -11.349802     5A    -11.319465     6A    -11.256367
       7A    -11.255816     8A    -11.249232     9A    -11.245522
      10A    -11.239393    11A    -11.232870    12A     -1.409334
      13A     -1.366810    14A     -1.225117    15A     -1.161440
      16A     -1.054020    17A     -1.017072    18A     -0.953290
      19A     -0.878189    20A     -0.846734    21A     -0.785321
      22A     -0.747467    23A     -0.726170    24A     -0.691025
      25A     -0.652598    26A     -0.636206    27A     -0.622826
      28A     -0.611873    29A     -0.595247    30A     -0.591230
      31A     -0.575115    32A     -0.545068    33A     -0.537849
      34A     -0.528196    35A     -0.511459    36A     -0.489068
      37A     -0.421387    38A     -0.388618    39A     -0.353863
      40A     -0.325438

  @DF-RHF Final Energy:  -512.51737963074515

   => Energetics <=

    Nuclear Repulsion Energy =            588.3598579683131220
    One-Electron Energy =               -1865.5741973640062952
    Two-Electron Energy =                 764.6969597649479056
    Total Energy =                       -512.5173796307451539
  Basis Set: (AUG-CC-PVTZ AUX)
    Blend: AUG-CC-PVTZ-RI
    Molecular point group: c1

    Geometry (in Angstrom), charge = 0, multiplicity = 1:

       Center              X                  Y                   Z               Mass
    ------------   -----------------  -----------------  -----------------  -----------------
         O           -0.482958936446     2.140481117416    -0.320595647096    15.994914619570
         O            1.759359063554     0.859624117416     1.139810352904    15.994914619570
         N            2.100080063554    -0.694981882584    -0.505311647096    14.003074004430
         C           -0.159306936446    -0.168144882584     0.110390352904    12.000000000000
         C           -1.034735936446     0.898452117416    -0.149574647096    12.000000000000
         C           -0.679678936446    -1.460086882584     0.244669352904    12.000000000000
         C            1.308034063554     0.080189117416     0.299910352904    12.000000000000
         C           -2.406934936446     0.661556117416    -0.266407647096    12.000000000000
         C           -2.051208936446    -1.697506882584     0.137551352904    12.000000000000
         C           -2.912926936446    -0.630762882584    -0.116277647096    12.000000000000
         C            3.542706063554    -0.528581882584    -0.496752647096    12.000000000000
         H            0.003575063554    -2.278510882584     0.461190352904     1.007825032230
         H           -3.081927936446     1.490799117416    -0.475973647096     1.007825032230
         H           -2.443010936446    -2.703803882584     0.258110352904     1.007825032230
         H           -3.786795536446    -0.767272482584    -0.186855747096     1.007825032230
         H            1.663177063554    -1.133014882584    -1.305860647096     1.007825032230
         H            3.863300063554     0.327386117416    -1.100663647096     1.007825032230
         H            4.011339063554    -1.437443882584    -0.878611647096     1.007825032230
         H            3.857940063554    -0.359335882584     0.532429352904     1.007825032230
         H           -1.205010936446     2.777242117416    -0.468459647096     1.007825032230

  Basis Set: AUG-CC-PVTZ
    Blend: AUG-CC-PVTZ
  Basis Set: (AUG-CC-PVTZ AUX)
    Blend: AUG-CC-PVTZ-JKFIT
	 Reference Energy          =    -512.5173796307451539 [Eh]
	 Singles Energy            =      -0.0000000000000000 [Eh]
	 Same-Spin Energy          =      -0.5368940094657007 [Eh]
	 Opposite-Spin Energy      =      -1.6455766234165634 [Eh]
	 Correlation Energy        =      -2.1824706328822643 [Eh]
	 Total Energy              =    -514.6998502636274679 [Eh]

	 ================> DF-SCS-MP2 Energies <==================
	-----------------------------------------------------------
	 SCS Same-Spin Scale       =       0.3333333333333333 [-]
	 SCS Opposite-Spin Scale   =       1.2000000000000000 [-]
	 SCS Same-Spin Energy      =      -0.1789646698219002 [Eh]
	 SCS Opposite-Spin Energy  =      -1.9746919480998759 [Eh]
	 SCS Correlation Energy    =      -2.1536566179217762 [Eh]
	 SCS Total Energy          =    -514.6710362486669510 [Eh]
	-----------------------------------------------------------

  Dipole Moment: [D]
     X:    -1.7466      Y:    -1.5880      Z:    -2.9766     Total:     3.7990

*** Psi4 exiting successfully. Buy a developer a beer!
