                               Psi4 1.4a3.dev225

  ==> Input File <==

--------------------------------------------------------------------------
#psi4
#
memory 32 gb

molecule  {
0 1
  O       -0.4983720     2.1660820    -0.3008080
  O        1.7439460     0.8852250     1.1595980
  N        2.0846670    -0.6693810    -0.4855240
  C       -0.1747200    -0.1425440     0.1301780
  C       -1.0501490     0.9240530    -0.1297870
  C       -0.6950920    -1.4344860     0.2644570
  C        1.1769849     0.2189624     0.4372578
  C       -2.4223480     0.6871570    -0.2466200
  C       -2.0666220    -1.6719060     0.1573390
  C       -2.9283400    -0.6051620    -0.0964900
  C        3.5272930    -0.5029810    -0.4769650
  H       -0.0118380    -2.2529100     0.4809780
  H       -3.0973410     1.5164000    -0.4561860
  H       -2.4584240    -2.6782030     0.2778980
  H       -3.9991860    -0.7724420    -0.1829770
  H        1.6477640    -1.1074140    -1.2860730
  H        3.8478870     0.3529870    -1.0808760
  H        3.9959260    -1.4118430    -0.8588240
  H        3.8425270    -0.3337350     0.5522170
  H       -1.2204240     2.8028430    -0.4486720
units angstrom
no_reorient  #important for SAPT in psi4, default
symmetry c1  #important for SAPT in psi4, default
}

set PROPERTIES_ORIGIN ["COM"]
properties('MP2/aug-cc-pvtz', properties = ['dipole'])
--------------------------------------------------------------------------

    Molecular point group: c1
  Charge       = 0
  Multiplicity = 1
  Basis Set: AUG-CC-PVTZ
    Blend: AUG-CC-PVTZ
  Basis Set: (AUG-CC-PVTZ AUX)
    Blend: AUG-CC-PVTZ-JKFIT

    Orbital Energies [Eh]
    ---------------------

    Doubly Occupied:

       1A    -20.607584     2A    -20.545356     3A    -15.540315
       4A    -11.355539     5A    -11.327919     6A    -11.266118
       7A    -11.264356     8A    -11.253648     9A    -11.252131
      10A    -11.246359    11A    -11.234141    12A     -1.446264
      13A     -1.418585    14A     -1.178098    15A     -1.154102
      16A     -1.059914    17A     -1.025579    18A     -0.917992
      19A     -0.876337    20A     -0.848280    21A     -0.770835
      22A     -0.746073    23A     -0.709751    24A     -0.687793
      25A     -0.661708    26A     -0.645546    27A     -0.618341
      28A     -0.614386    29A     -0.598349    30A     -0.591388
      31A     -0.575606    32A     -0.554603    33A     -0.538538
      34A     -0.525792    35A     -0.521221    36A     -0.498030
      37A     -0.422096    38A     -0.365525    39A     -0.354676
      40A     -0.332420

  @DF-RHF Final Energy:  -512.51433828997403

   => Energetics <=

    Nuclear Repulsion Energy =            587.8179651162706705
    One-Electron Energy =               -1864.3620209120028903
    Two-Electron Energy =                 764.0297175057581853
    Total Energy =                       -512.5143382899740345
  Basis Set: (AUG-CC-PVTZ AUX)
    Blend: AUG-CC-PVTZ-RI
    Molecular point group: c1

    Geometry (in Angstrom), charge = 0, multiplicity = 1:

       Center              X                  Y                   Z               Mass
    ------------   -----------------  -----------------  -----------------  -----------------
         O           -0.472459022470     2.131696340637    -0.329828094348    15.994914619570
         O            1.769858977530     0.850839340637     1.130577905652    15.994914619570
         N            2.110579977530    -0.703766659363    -0.514544094348    14.003074004430
         C           -0.148807022470    -0.176929659363     0.101157905652    12.000000000000
         C           -1.024236022470     0.889667340637    -0.158807094348    12.000000000000
         C           -0.669179022470    -1.468871659363     0.235436905652    12.000000000000
         C            1.202897877530     0.184576740637     0.408237705652    12.000000000000
         C           -2.396435022470     0.652771340637    -0.275640094348    12.000000000000
         C           -2.040709022470    -1.706291659363     0.128318905652    12.000000000000
         C           -2.902427022470    -0.639547659363    -0.125510094348    12.000000000000
         C            3.553205977530    -0.537366659363    -0.505985094348    12.000000000000
         H            0.014074977530    -2.287295659363     0.451957905652     1.007825032230
         H           -3.071428022470     1.482014340637    -0.485206094348     1.007825032230
         H           -2.432511022470    -2.712588659363     0.248877905652     1.007825032230
         H           -3.973273022470    -0.806827659363    -0.211997094348     1.007825032230
         H            1.673676977530    -1.141799659363    -1.315093094348     1.007825032230
         H            3.873799977530     0.318601340637    -1.109896094348     1.007825032230
         H            4.021838977530    -1.446228659363    -0.887844094348     1.007825032230
         H            3.868439977530    -0.368120659363     0.523196905652     1.007825032230
         H           -1.194511022470     2.768457340637    -0.477692094348     1.007825032230

  Basis Set: AUG-CC-PVTZ
    Blend: AUG-CC-PVTZ
  Basis Set: (AUG-CC-PVTZ AUX)
    Blend: AUG-CC-PVTZ-JKFIT
	 Reference Energy          =    -512.5143382899740345 [Eh]
	 Singles Energy            =      -0.0000000000000000 [Eh]
	 Same-Spin Energy          =      -0.5367736372229275 [Eh]
	 Opposite-Spin Energy      =      -1.6459175166432289 [Eh]
	 Correlation Energy        =      -2.1826911538661564 [Eh]
	 Total Energy              =    -514.6970294438401652 [Eh]

	 ================> DF-SCS-MP2 Energies <==================
	-----------------------------------------------------------
	 SCS Same-Spin Scale       =       0.3333333333333333 [-]
	 SCS Opposite-Spin Scale   =       1.2000000000000000 [-]
	 SCS Same-Spin Energy      =      -0.1789245457409758 [Eh]
	 SCS Opposite-Spin Energy  =      -1.9751010199718746 [Eh]
	 SCS Correlation Energy    =      -2.1540255657128502 [Eh]
	 SCS Total Energy          =    -514.6683638556868345 [Eh]
	-----------------------------------------------------------

  Dipole Moment: [D]
     X:    -3.0340      Y:    -0.6874      Z:    -1.9011     Total:     3.6458

*** Psi4 exiting successfully. Buy a developer a beer!
