                               Psi4 1.4a3.dev225

  ==> Input File <==

--------------------------------------------------------------------------
#psi4
#
memory 32 gb

molecule  {
0 1
  O       -0.4983720     2.1660820    -0.3008080
  O        1.7439460     0.8852250     1.1595980
  N        2.0846670    -0.6693810    -0.4855240
  C       -0.1747200    -0.1425440     0.1301780
  C       -1.1307124     0.7427079    -0.1048167
  C       -0.6950920    -1.4344860     0.2644570
  C        1.2926210     0.1057900     0.3196980
  C       -2.4223480     0.6871570    -0.2466200
  C       -2.0666220    -1.6719060     0.1573390
  C       -2.9283400    -0.6051620    -0.0964900
  C        3.5272930    -0.5029810    -0.4769650
  H       -0.0118380    -2.2529100     0.4809780
  H       -3.0973410     1.5164000    -0.4561860
  H       -2.4584240    -2.6782030     0.2778980
  H       -3.9991860    -0.7724420    -0.1829770
  H        1.6477640    -1.1074140    -1.2860730
  H        3.8478870     0.3529870    -1.0808760
  H        3.9959260    -1.4118430    -0.8588240
  H        3.8425270    -0.3337350     0.5522170
  H       -1.2204240     2.8028430    -0.4486720
units angstrom
no_reorient  #important for SAPT in psi4, default
symmetry c1  #important for SAPT in psi4, default
}

set PROPERTIES_ORIGIN ["COM"]
properties('MP2/aug-cc-pvtz', properties = ['dipole'])
--------------------------------------------------------------------------

    Molecular point group: c1
  Charge       = 0
  Multiplicity = 1
  Basis Set: AUG-CC-PVTZ
    Blend: AUG-CC-PVTZ
  Basis Set: (AUG-CC-PVTZ AUX)
    Blend: AUG-CC-PVTZ-JKFIT

    Orbital Energies [Eh]
    ---------------------

    Doubly Occupied:

       1A    -20.558943     2A    -20.516461     3A    -15.588303
       4A    -11.358307     5A    -11.307352     6A    -11.263908
       7A    -11.263159     8A    -11.258435     9A    -11.253173
      10A    -11.249098    11A    -11.246794    12A     -1.371648
      13A     -1.322806    14A     -1.229519    15A     -1.187995
      16A     -1.066045    17A     -1.032392    18A     -0.956448
      19A     -0.875071    20A     -0.841164    21A     -0.790942
      22A     -0.745333    23A     -0.701840    24A     -0.670093
      25A     -0.653997    26A     -0.640668    27A     -0.618382
      28A     -0.606239    29A     -0.592358    30A     -0.569887
      31A     -0.562025    32A     -0.547725    33A     -0.537296
      34A     -0.523929    35A     -0.491433    36A     -0.485033
      37A     -0.426375    38A     -0.391408    39A     -0.364173
      40A     -0.351051

  @DF-RHF Final Energy:  -512.50694845334976

   => Energetics <=

    Nuclear Repulsion Energy =            588.0993449768152459
    One-Electron Energy =               -1865.1781680488702477
    Two-Electron Energy =                 764.5718746187052375
    Total Energy =                       -512.5069484533497643
  Basis Set: (AUG-CC-PVTZ AUX)
    Blend: AUG-CC-PVTZ-RI
    Molecular point group: c1

    Geometry (in Angstrom), charge = 0, multiplicity = 1:

       Center              X                  Y                   Z               Mass
    ------------   -----------------  -----------------  -----------------  -----------------
         O           -0.475245088447     2.155091892915    -0.322473073041    15.994914619570
         O            1.767072911553     0.874234892915     1.137932926959    15.994914619570
         N            2.107793911553    -0.680371107085    -0.507189073041    14.003074004430
         C           -0.151593088447    -0.153534107085     0.108512926959    12.000000000000
         C           -1.107585488447     0.731717792915    -0.126481773041    12.000000000000
         C           -0.671965088447    -1.445476107085     0.242791926959    12.000000000000
         C            1.315747911553     0.094799892915     0.298032926959    12.000000000000
         C           -2.399221088447     0.676166892915    -0.268285073041    12.000000000000
         C           -2.043495088447    -1.682896107085     0.135673926959    12.000000000000
         C           -2.905213088447    -0.616152107085    -0.118155073041    12.000000000000
         C            3.550419911553    -0.513971107085    -0.498630073041    12.000000000000
         H            0.011288911553    -2.263900107085     0.459312926959     1.007825032230
         H           -3.074214088447     1.505409892915    -0.477851073041     1.007825032230
         H           -2.435297088447    -2.689193107085     0.256232926959     1.007825032230
         H           -3.976059088447    -0.783432107085    -0.204642073041     1.007825032230
         H            1.670890911553    -1.118404107085    -1.307738073041     1.007825032230
         H            3.871013911553     0.341996892915    -1.102541073041     1.007825032230
         H            4.019052911553    -1.422833107085    -0.880489073041     1.007825032230
         H            3.865653911553    -0.344725107085     0.530551926959     1.007825032230
         H           -1.197297088447     2.791852892915    -0.470337073041     1.007825032230

  Basis Set: AUG-CC-PVTZ
    Blend: AUG-CC-PVTZ
  Basis Set: (AUG-CC-PVTZ AUX)
    Blend: AUG-CC-PVTZ-JKFIT
	 Reference Energy          =    -512.5069484533497643 [Eh]
	 Singles Energy            =      -0.0000000000000000 [Eh]
	 Same-Spin Energy          =      -0.5384344945024869 [Eh]
	 Opposite-Spin Energy      =      -1.6506879810678212 [Eh]
	 Correlation Energy        =      -2.1891224755703083 [Eh]
	 Total Energy              =    -514.6960709289201077 [Eh]

	 ================> DF-SCS-MP2 Energies <==================
	-----------------------------------------------------------
	 SCS Same-Spin Scale       =       0.3333333333333333 [-]
	 SCS Opposite-Spin Scale   =       1.2000000000000000 [-]
	 SCS Same-Spin Energy      =      -0.1794781648341623 [Eh]
	 SCS Opposite-Spin Energy  =      -1.9808255772813854 [Eh]
	 SCS Correlation Energy    =      -2.1603037421155475 [Eh]
	 SCS Total Energy          =    -514.6672521954652666 [Eh]
	-----------------------------------------------------------

  Dipole Moment: [D]
     X:    -1.9854      Y:    -2.6964      Z:    -2.8031     Total:     4.3669

*** Psi4 exiting successfully. Buy a developer a beer!
