                               Psi4 1.4a3.dev225

  ==> Input File <==

--------------------------------------------------------------------------
#psi4
#
memory 32 gb

molecule  {
0 1
  O       -0.4983720     2.1660820    -0.3008080
  O        1.7439460     0.8852250     1.1595980
  N        2.0846670    -0.6693810    -0.4855240
  C       -0.1747200    -0.1425440     0.1301780
  C       -0.9615297     0.8898677    -0.1188629
  C       -0.6950920    -1.4344860     0.2644570
  C        1.2926210     0.1057900     0.3196980
  C       -2.4223480     0.6871570    -0.2466200
  C       -2.0666220    -1.6719060     0.1573390
  C       -2.9283400    -0.6051620    -0.0964900
  C        3.5272930    -0.5029810    -0.4769650
  H       -0.0118380    -2.2529100     0.4809780
  H       -3.0973410     1.5164000    -0.4561860
  H       -2.4584240    -2.6782030     0.2778980
  H       -3.9991860    -0.7724420    -0.1829770
  H        1.6477640    -1.1074140    -1.2860730
  H        3.8478870     0.3529870    -1.0808760
  H        3.9959260    -1.4118430    -0.8588240
  H        3.8425270    -0.3337350     0.5522170
  H       -1.2204240     2.8028430    -0.4486720
units angstrom
no_reorient  #important for SAPT in psi4, default
symmetry c1  #important for SAPT in psi4, default
}

set PROPERTIES_ORIGIN ["COM"]
properties('MP2/aug-cc-pvtz', properties = ['dipole'])
--------------------------------------------------------------------------

    Molecular point group: c1
  Charge       = 0
  Multiplicity = 1
  Basis Set: AUG-CC-PVTZ
    Blend: AUG-CC-PVTZ
  Basis Set: (AUG-CC-PVTZ AUX)
    Blend: AUG-CC-PVTZ-JKFIT

    Orbital Energies [Eh]
    ---------------------

    Doubly Occupied:

       1A    -20.594244     2A    -20.513844     3A    -15.584174
       4A    -11.349604     5A    -11.319644     6A    -11.258158
       7A    -11.256199     8A    -11.255682     9A    -11.254297
      10A    -11.241171    11A    -11.240228    12A     -1.406265
      13A     -1.367608    14A     -1.225892    15A     -1.162460
      16A     -1.054311    17A     -1.010585    18A     -0.951819
      19A     -0.866119    20A     -0.842974    21A     -0.782395
      22A     -0.748191    23A     -0.719786    24A     -0.673626
      25A     -0.658857    26A     -0.638237    27A     -0.619215
      28A     -0.611039    29A     -0.594822    30A     -0.583405
      31A     -0.572679    32A     -0.545556    33A     -0.535748
      34A     -0.517792    35A     -0.511200    36A     -0.489226
      37A     -0.420227    38A     -0.389324    39A     -0.358120
      40A     -0.324669

  @DF-RHF Final Energy:  -512.54139267190135

   => Energetics <=

    Nuclear Repulsion Energy =            587.9771299779948777
    One-Electron Energy =               -1864.9382583697240534
    Two-Electron Energy =                 764.4197357198279406
    Total Energy =                       -512.5413926719013489
  Basis Set: (AUG-CC-PVTZ AUX)
    Blend: AUG-CC-PVTZ-RI
    Molecular point group: c1

    Geometry (in Angstrom), charge = 0, multiplicity = 1:

       Center              X                  Y                   Z               Mass
    ------------   -----------------  -----------------  -----------------  -----------------
         O           -0.488684434844     2.143401977055    -0.321357286691    15.994914619570
         O            1.753633565156     0.862544977055     1.139048713309    15.994914619570
         N            2.094354565156    -0.692061022945    -0.506073286691    14.003074004430
         C           -0.165032434844    -0.165224022945     0.109628713309    12.000000000000
         C           -0.951842134844     0.867187677055    -0.139412186691    12.000000000000
         C           -0.685404434844    -1.457166022945     0.243907713309    12.000000000000
         C            1.302308565156     0.083109977055     0.299148713309    12.000000000000
         C           -2.412660434844     0.664476977055    -0.267169286691    12.000000000000
         C           -2.056934434844    -1.694586022945     0.136789713309    12.000000000000
         C           -2.918652434844    -0.627842022945    -0.117039286691    12.000000000000
         C            3.536980565156    -0.525661022945    -0.497514286691    12.000000000000
         H           -0.002150434844    -2.275590022945     0.460428713309     1.007825032230
         H           -3.087653434844     1.493719977055    -0.476735286691     1.007825032230
         H           -2.448736434844    -2.700883022945     0.257348713309     1.007825032230
         H           -3.989498434844    -0.795122022945    -0.203526286691     1.007825032230
         H            1.657451565156    -1.130094022945    -1.306622286691     1.007825032230
         H            3.857574565156     0.330306977055    -1.101425286691     1.007825032230
         H            4.005613565156    -1.434523022945    -0.879373286691     1.007825032230
         H            3.852214565156    -0.356415022945     0.531667713309     1.007825032230
         H           -1.210736434844     2.780162977055    -0.469221286691     1.007825032230

  Basis Set: AUG-CC-PVTZ
    Blend: AUG-CC-PVTZ
  Basis Set: (AUG-CC-PVTZ AUX)
    Blend: AUG-CC-PVTZ-JKFIT
	 Reference Energy          =    -512.5413926719013489 [Eh]
	 Singles Energy            =      -0.0000000000000000 [Eh]
	 Same-Spin Energy          =      -0.5365339807744365 [Eh]
	 Opposite-Spin Energy      =      -1.6459436806536720 [Eh]
	 Correlation Energy        =      -2.1824776614281083 [Eh]
	 Total Energy              =    -514.7238703333295007 [Eh]

	 ================> DF-SCS-MP2 Energies <==================
	-----------------------------------------------------------
	 SCS Same-Spin Scale       =       0.3333333333333333 [-]
	 SCS Opposite-Spin Scale   =       1.2000000000000000 [-]
	 SCS Same-Spin Energy      =      -0.1788446602581455 [Eh]
	 SCS Opposite-Spin Energy  =      -1.9751324167844064 [Eh]
	 SCS Correlation Energy    =      -2.1539770770425517 [Eh]
	 SCS Total Energy          =    -514.6953697489439037 [Eh]
	-----------------------------------------------------------

  Dipole Moment: [D]
     X:    -1.6982      Y:    -1.6215      Z:    -2.9618     Total:     3.7796

*** Psi4 exiting successfully. Buy a developer a beer!
