                               Psi4 1.4a3.dev225

  ==> Input File <==

--------------------------------------------------------------------------
#psi4
#
memory 32 gb

molecule  {
0 1
  O       -0.4983720     2.1660820    -0.3008080
  O        1.7439460     0.8852250     1.1595980
  N        2.0846670    -0.6693810    -0.4855240
  C       -0.1747200    -0.1425440     0.1301780
  C       -1.0501490     0.9240530    -0.1297870
  C       -0.6950920    -1.4344860     0.2644570
  C        1.2926210     0.1057900     0.3196980
  C       -2.4223480     0.6871570    -0.2466200
  C       -2.0175000    -1.6634027     0.1611755
  C       -2.9283400    -0.6051620    -0.0964900
  C        3.5272930    -0.5029810    -0.4769650
  H       -0.0118380    -2.2529100     0.4809780
  H       -3.0973410     1.5164000    -0.4561860
  H       -2.4584240    -2.6782030     0.2778980
  H       -3.9991860    -0.7724420    -0.1829770
  H        1.6477640    -1.1074140    -1.2860730
  H        3.8478870     0.3529870    -1.0808760
  H        3.9959260    -1.4118430    -0.8588240
  H        3.8425270    -0.3337350     0.5522170
  H       -1.2204240     2.8028430    -0.4486720
units angstrom
no_reorient  #important for SAPT in psi4, default
symmetry c1  #important for SAPT in psi4, default
}

set PROPERTIES_ORIGIN ["COM"]
properties('MP2/aug-cc-pvtz', properties = ['dipole'])
--------------------------------------------------------------------------

    Molecular point group: c1
  Charge       = 0
  Multiplicity = 1
  Basis Set: AUG-CC-PVTZ
    Blend: AUG-CC-PVTZ
  Basis Set: (AUG-CC-PVTZ AUX)
    Blend: AUG-CC-PVTZ-JKFIT

    Orbital Energies [Eh]
    ---------------------

    Doubly Occupied:

       1A    -20.597528     2A    -20.512497     3A    -15.583387
       4A    -11.349283     5A    -11.319885     6A    -11.260049
       7A    -11.255648     8A    -11.250705     9A    -11.248031
      10A    -11.247828    11A    -11.239757    12A     -1.409741
      13A     -1.366425    14A     -1.224877    15A     -1.162970
      16A     -1.045559    17A     -1.021604    18A     -0.949979
      19A     -0.865458    20A     -0.843143    21A     -0.782663
      22A     -0.742792    23A     -0.721595    24A     -0.676897
      25A     -0.645520    26A     -0.634520    27A     -0.619476
      28A     -0.613177    29A     -0.595719    30A     -0.591287
      31A     -0.574863    32A     -0.544835    33A     -0.531409
      34A     -0.525195    35A     -0.505697    36A     -0.491793
      37A     -0.421182    38A     -0.388413    39A     -0.356377
      40A     -0.325950

  @DF-RHF Final Energy:  -512.54887594071772

   => Energetics <=

    Nuclear Repulsion Energy =            587.8273802568077144
    One-Electron Energy =               -1864.6650863299751109
    Two-Electron Energy =                 764.2888301324495615
    Total Energy =                       -512.5488759407177213
  Basis Set: (AUG-CC-PVTZ AUX)
    Blend: AUG-CC-PVTZ-RI
    Molecular point group: c1

    Geometry (in Angstrom), charge = 0, multiplicity = 1:

       Center              X                  Y                   Z               Mass
    ------------   -----------------  -----------------  -----------------  -----------------
         O           -0.485546892433     2.140010927719    -0.320794269837    15.994914619570
         O            1.756771107567     0.859153927719     1.139611730163    15.994914619570
         N            2.097492107567    -0.695452072281    -0.505510269837    14.003074004430
         C           -0.161894892433    -0.168615072281     0.110191730163    12.000000000000
         C           -1.037323892433     0.897981927719    -0.149773269837    12.000000000000
         C           -0.682266892433    -1.460557072281     0.244470730163    12.000000000000
         C            1.305446107567     0.079718927719     0.299711730163    12.000000000000
         C           -2.409522892433     0.661085927719    -0.266606269837    12.000000000000
         C           -2.004674892433    -1.689473772281     0.141189230163    12.000000000000
         C           -2.915514892433    -0.631233072281    -0.116476269837    12.000000000000
         C            3.540118107567    -0.529052072281    -0.496951269837    12.000000000000
         H            0.000987107567    -2.278981072281     0.460991730163     1.007825032230
         H           -3.084515892433     1.490328927719    -0.476172269837     1.007825032230
         H           -2.445598892433    -2.704274072281     0.257911730163     1.007825032230
         H           -3.986360892433    -0.798513072281    -0.202963269837     1.007825032230
         H            1.660589107567    -1.133485072281    -1.306059269837     1.007825032230
         H            3.860712107567     0.326915927719    -1.100862269837     1.007825032230
         H            4.008751107567    -1.437914072281    -0.878810269837     1.007825032230
         H            3.855352107567    -0.359806072281     0.532230730163     1.007825032230
         H           -1.207598892433     2.776771927719    -0.468658269837     1.007825032230

  Basis Set: AUG-CC-PVTZ
    Blend: AUG-CC-PVTZ
  Basis Set: (AUG-CC-PVTZ AUX)
    Blend: AUG-CC-PVTZ-JKFIT
	 Reference Energy          =    -512.5488759407177213 [Eh]
	 Singles Energy            =      -0.0000000000000000 [Eh]
	 Same-Spin Energy          =      -0.5371343112361845 [Eh]
	 Opposite-Spin Energy      =      -1.6461573463506907 [Eh]
	 Correlation Energy        =      -2.1832916575868753 [Eh]
	 Total Energy              =    -514.7321675983046134 [Eh]

	 ================> DF-SCS-MP2 Energies <==================
	-----------------------------------------------------------
	 SCS Same-Spin Scale       =       0.3333333333333333 [-]
	 SCS Opposite-Spin Scale   =       1.2000000000000000 [-]
	 SCS Same-Spin Energy      =      -0.1790447704120615 [Eh]
	 SCS Opposite-Spin Energy  =      -1.9753888156208288 [Eh]
	 SCS Correlation Energy    =      -2.1544335860328903 [Eh]
	 SCS Total Energy          =    -514.7033095267505587 [Eh]
	-----------------------------------------------------------

  Dipole Moment: [D]
     X:    -1.7488      Y:    -1.5668      Z:    -2.9795     Total:     3.7935

*** Psi4 exiting successfully. Buy a developer a beer!
