                               Psi4 1.4a3.dev225

  ==> Input File <==

--------------------------------------------------------------------------
#psi4
#
memory 32 gb

molecule  {
0 1
  O       -0.4983720     2.1660820    -0.3008080
  O        1.7439460     0.8852250     1.1595980
  N        2.0846670    -0.6693810    -0.4855240
  C       -0.1747200    -0.1425440     0.1301780
  C       -1.0501490     0.9240530    -0.1297870
  C       -0.6950920    -1.4344860     0.2644570
  C        1.1948130     0.0892369     0.3070652
  C       -2.4223480     0.6871570    -0.2466200
  C       -2.0666220    -1.6719060     0.1573390
  C       -2.9283400    -0.6051620    -0.0964900
  C        3.5272930    -0.5029810    -0.4769650
  H       -0.0118380    -2.2529100     0.4809780
  H       -3.0973410     1.5164000    -0.4561860
  H       -2.4584240    -2.6782030     0.2778980
  H       -3.9991860    -0.7724420    -0.1829770
  H        1.6477640    -1.1074140    -1.2860730
  H        3.8478870     0.3529870    -1.0808760
  H        3.9959260    -1.4118430    -0.8588240
  H        3.8425270    -0.3337350     0.5522170
  H       -1.2204240     2.8028430    -0.4486720
units angstrom
no_reorient  #important for SAPT in psi4, default
symmetry c1  #important for SAPT in psi4, default
}

set PROPERTIES_ORIGIN ["COM"]
properties('MP2/aug-cc-pvtz', properties = ['dipole'])
--------------------------------------------------------------------------

    Molecular point group: c1
  Charge       = 0
  Multiplicity = 1
  Basis Set: AUG-CC-PVTZ
    Blend: AUG-CC-PVTZ
  Basis Set: (AUG-CC-PVTZ AUX)
    Blend: AUG-CC-PVTZ-JKFIT

    Orbital Energies [Eh]
    ---------------------

    Doubly Occupied:

       1A    -20.602504     2A    -20.507170     3A    -15.580298
       4A    -11.353052     5A    -11.328704     6A    -11.265331
       7A    -11.264056     8A    -11.252810     9A    -11.251619
      10A    -11.249960    11A    -11.245495    12A     -1.414753
      13A     -1.333021    14A     -1.204689    15A     -1.168083
      16A     -1.063662    17A     -1.024463    18A     -0.946835
      19A     -0.878802    20A     -0.854410    21A     -0.777372
      22A     -0.745337    23A     -0.724122    24A     -0.681265
      25A     -0.651329    26A     -0.630254    27A     -0.621280
      28A     -0.606474    29A     -0.596970    30A     -0.588838
      31A     -0.577837    32A     -0.539585    33A     -0.533700
      34A     -0.523341    35A     -0.505754    36A     -0.485797
      37A     -0.418726    38A     -0.376754    39A     -0.359936
      40A     -0.331850

  @DF-RHF Final Energy:  -512.53088949686526

   => Energetics <=

    Nuclear Repulsion Energy =            587.4656068335118562
    One-Electron Energy =               -1863.8605196748828803
    Two-Electron Energy =                 763.8640233445057675
    Total Energy =                       -512.5308894968652567
  Basis Set: (AUG-CC-PVTZ AUX)
    Blend: AUG-CC-PVTZ-RI
    Molecular point group: c1

    Geometry (in Angstrom), charge = 0, multiplicity = 1:

       Center              X                  Y                   Z               Mass
    ------------   -----------------  -----------------  -----------------  -----------------
         O           -0.473875231169     2.142001330042    -0.319485999975    15.994914619570
         O            1.768442768831     0.861144330042     1.140920000025    15.994914619570
         N            2.109163768831    -0.693461669958    -0.504201999975    14.003074004430
         C           -0.150223231169    -0.166624669958     0.111500000025    12.000000000000
         C           -1.025652231169     0.899972330042    -0.148464999975    12.000000000000
         C           -0.670595231169    -1.458566669958     0.245779000025    12.000000000000
         C            1.219309768831     0.065156230042     0.288387200025    12.000000000000
         C           -2.397851231169     0.663076330042    -0.265297999975    12.000000000000
         C           -2.042125231169    -1.695986669958     0.138661000025    12.000000000000
         C           -2.903843231169    -0.629242669958    -0.115167999975    12.000000000000
         C            3.551789768831    -0.527061669958    -0.495642999975    12.000000000000
         H            0.012658768831    -2.276990669958     0.462300000025     1.007825032230
         H           -3.072844231169     1.492319330042    -0.474863999975     1.007825032230
         H           -2.433927231169    -2.702283669958     0.259220000025     1.007825032230
         H           -3.974689231169    -0.796522669958    -0.201654999975     1.007825032230
         H            1.672260768831    -1.131494669958    -1.304750999975     1.007825032230
         H            3.872383768831     0.328906330042    -1.099553999975     1.007825032230
         H            4.020422768831    -1.435923669958    -0.877501999975     1.007825032230
         H            3.867023768831    -0.357815669958     0.533539000025     1.007825032230
         H           -1.195927231169     2.778762330042    -0.467349999975     1.007825032230

  Basis Set: AUG-CC-PVTZ
    Blend: AUG-CC-PVTZ
  Basis Set: (AUG-CC-PVTZ AUX)
    Blend: AUG-CC-PVTZ-JKFIT
	 Reference Energy          =    -512.5308894968652567 [Eh]
	 Singles Energy            =      -0.0000000000000000 [Eh]
	 Same-Spin Energy          =      -0.5395799673411710 [Eh]
	 Opposite-Spin Energy      =      -1.6510793237541952 [Eh]
	 Correlation Energy        =      -2.1906592910953662 [Eh]
	 Total Energy              =    -514.7215487879606144 [Eh]

	 ================> DF-SCS-MP2 Energies <==================
	-----------------------------------------------------------
	 SCS Same-Spin Scale       =       0.3333333333333333 [-]
	 SCS Opposite-Spin Scale   =       1.2000000000000000 [-]
	 SCS Same-Spin Energy      =      -0.1798599891137236 [Eh]
	 SCS Opposite-Spin Energy  =      -1.9812951885050341 [Eh]
	 SCS Correlation Energy    =      -2.1611551776187579 [Eh]
	 SCS Total Energy          =    -514.6920446744840092 [Eh]
	-----------------------------------------------------------

  Dipole Moment: [D]
     X:    -2.3632      Y:    -1.6251      Z:    -3.0190     Total:     4.1641

*** Psi4 exiting successfully. Buy a developer a beer!
