                               Psi4 1.4a3.dev225

  ==> Input File <==

--------------------------------------------------------------------------
#psi4
#
memory 32 gb

molecule  {
0 1
  O       -0.4983720     2.1660820    -0.3008080
  O        1.7439460     0.8852250     1.1595980
  N        2.0846670    -0.6693810    -0.4855240
  C       -0.1747200    -0.1425440     0.1301780
  C       -1.0501490     0.9240530    -0.1297870
  C       -0.6950920    -1.4344860     0.2644570
  C        1.2926210     0.1057900     0.3196980
  C       -2.4223480     0.6871570    -0.2466200
  C       -2.0666220    -1.6719060     0.1573390
  C       -2.9283400    -0.6051620    -0.0964900
  C        3.5272930    -0.5029810    -0.4769650
  H       -0.0118380    -2.2529100     0.4809780
  H       -3.0973410     1.5164000    -0.4561860
  H       -2.4584240    -2.6782030     0.2778980
  H       -3.9991860    -0.7724420    -0.1829770
  H        1.6477640    -1.1074140    -1.2860730
  H        3.8478870     0.3529870    -1.0808760
  H        3.9744594    -1.3702110    -0.8413323
  H        3.8425270    -0.3337350     0.5522170
  H       -1.2204240     2.8028430    -0.4486720
units angstrom
no_reorient  #important for SAPT in psi4, default
symmetry c1  #important for SAPT in psi4, default
}

set PROPERTIES_ORIGIN ["COM"]
properties('MP2/aug-cc-pvtz', properties = ['dipole'])
--------------------------------------------------------------------------

    Molecular point group: c1
  Charge       = 0
  Multiplicity = 1
  Basis Set: AUG-CC-PVTZ
    Blend: AUG-CC-PVTZ
  Basis Set: (AUG-CC-PVTZ AUX)
    Blend: AUG-CC-PVTZ-JKFIT

    Orbital Energies [Eh]
    ---------------------

    Doubly Occupied:

       1A    -20.597578     2A    -20.512796     3A    -15.583407
       4A    -11.349664     5A    -11.320225     6A    -11.257183
       7A    -11.256603     8A    -11.249752     9A    -11.249310
      10A    -11.246421    11A    -11.240281    12A     -1.409787
      13A     -1.366694    14A     -1.225282    15A     -1.159891
      16A     -1.046802    17A     -1.017548    18A     -0.954492
      19A     -0.865421    20A     -0.844640    21A     -0.782862
      22A     -0.742356    23A     -0.724397    24A     -0.675035
      25A     -0.649055    26A     -0.635836    27A     -0.619170
      28A     -0.613204    29A     -0.596030    30A     -0.587591
      31A     -0.576110    32A     -0.549953    33A     -0.535707
      34A     -0.522597    35A     -0.510925    36A     -0.489681
      37A     -0.421188    38A     -0.388747    39A     -0.354183
      40A     -0.325992

  @DF-RHF Final Energy:  -512.55107616741611

   => Energetics <=

    Nuclear Repulsion Energy =            587.4036545947429886
    One-Electron Energy =               -1863.8006726234232246
    Two-Electron Energy =                 763.8459418612640093
    Total Energy =                       -512.5510761674161131
  Basis Set: (AUG-CC-PVTZ AUX)
    Blend: AUG-CC-PVTZ-RI
    Molecular point group: c1

    Geometry (in Angstrom), charge = 0, multiplicity = 1:

       Center              X                  Y                   Z               Mass
    ------------   -----------------  -----------------  -----------------  -----------------
         O           -0.481501578572     2.140408653817    -0.320606206810    15.994914619570
         O            1.760816421428     0.859551653817     1.139799793190    15.994914619570
         N            2.101537421428    -0.695054346183    -0.505322206810    14.003074004430
         C           -0.157849578572    -0.168217346183     0.110379793190    12.000000000000
         C           -1.033278578572     0.898379653817    -0.149585206810    12.000000000000
         C           -0.678221578572    -1.460159346183     0.244658793190    12.000000000000
         C            1.309491421428     0.080116653817     0.299899793190    12.000000000000
         C           -2.405477578572     0.661483653817    -0.266418206810    12.000000000000
         C           -2.049751578572    -1.697579346183     0.137540793190    12.000000000000
         C           -2.911469578572    -0.630835346183    -0.116288206810    12.000000000000
         C            3.544163421428    -0.528654346183    -0.496763206810    12.000000000000
         H            0.005032421428    -2.278583346183     0.461179793190     1.007825032230
         H           -3.080470578572     1.490726653817    -0.475984206810     1.007825032230
         H           -2.441553578572    -2.703876346183     0.258099793190     1.007825032230
         H           -3.982315578572    -0.798115346183    -0.202775206810     1.007825032230
         H            1.664634421428    -1.133087346183    -1.305871206810     1.007825032230
         H            3.864757421428     0.327313653817    -1.100674206810     1.007825032230
         H            3.991329821428    -1.395884346183    -0.861130506810     1.007825032230
         H            3.859397421428    -0.359408346183     0.532418793190     1.007825032230
         H           -1.203553578572     2.777169653817    -0.468470206810     1.007825032230

  Basis Set: AUG-CC-PVTZ
    Blend: AUG-CC-PVTZ
  Basis Set: (AUG-CC-PVTZ AUX)
    Blend: AUG-CC-PVTZ-JKFIT
	 Reference Energy          =    -512.5510761674161131 [Eh]
	 Singles Energy            =      -0.0000000000000000 [Eh]
	 Same-Spin Energy          =      -0.5370723070273662 [Eh]
	 Opposite-Spin Energy      =      -1.6457948131998776 [Eh]
	 Correlation Energy        =      -2.1828671202272441 [Eh]
	 Total Energy              =    -514.7339432876433420 [Eh]

	 ================> DF-SCS-MP2 Energies <==================
	-----------------------------------------------------------
	 SCS Same-Spin Scale       =       0.3333333333333333 [-]
	 SCS Opposite-Spin Scale   =       1.2000000000000000 [-]
	 SCS Same-Spin Energy      =      -0.1790241023424554 [Eh]
	 SCS Opposite-Spin Energy  =      -1.9749537758398530 [Eh]
	 SCS Correlation Energy    =      -2.1539778781823085 [Eh]
	 SCS Total Energy          =    -514.7050540455984446 [Eh]
	-----------------------------------------------------------

  Dipole Moment: [D]
     X:    -1.6843      Y:    -1.5967      Z:    -2.9832     Total:     3.7796

*** Psi4 exiting successfully. Buy a developer a beer!
