                               Psi4 1.4a3.dev225

  ==> Input File <==

--------------------------------------------------------------------------
#psi4
#
memory 32 gb

molecule  {
0 1
  O       -0.4983720     2.1660820    -0.3008080
  O        1.7439460     0.8852250     1.1595980
  N        2.0846670    -0.6693810    -0.4855240
  C       -0.1747200    -0.1425440     0.1301780
  C       -1.1748423     1.0759756    -0.1668156
  C       -0.6950920    -1.4344860     0.2644570
  C        1.2926210     0.1057900     0.3196980
  C       -2.4223480     0.6871570    -0.2466200
  C       -2.0666220    -1.6719060     0.1573390
  C       -2.9283400    -0.6051620    -0.0964900
  C        3.5272930    -0.5029810    -0.4769650
  H       -0.0118380    -2.2529100     0.4809780
  H       -3.0973410     1.5164000    -0.4561860
  H       -2.4584240    -2.6782030     0.2778980
  H       -3.9991860    -0.7724420    -0.1829770
  H        1.6477640    -1.1074140    -1.2860730
  H        3.8478870     0.3529870    -1.0808760
  H        3.9959260    -1.4118430    -0.8588240
  H        3.8425270    -0.3337350     0.5522170
  H       -1.2204240     2.8028430    -0.4486720
units angstrom
no_reorient  #important for SAPT in psi4, default
symmetry c1  #important for SAPT in psi4, default
}

set PROPERTIES_ORIGIN ["COM"]
properties('MP2/aug-cc-pvtz', properties = ['dipole'])
--------------------------------------------------------------------------

    Molecular point group: c1
  Charge       = 0
  Multiplicity = 1
  Basis Set: AUG-CC-PVTZ
    Blend: AUG-CC-PVTZ
  Basis Set: (AUG-CC-PVTZ AUX)
    Blend: AUG-CC-PVTZ-JKFIT

    Orbital Energies [Eh]
    ---------------------

    Doubly Occupied:

       1A    -20.621782     2A    -20.510832     3A    -15.581623
       4A    -11.347441     5A    -11.327930     6A    -11.258225
       7A    -11.255618     8A    -11.254604     9A    -11.251618
      10A    -11.237319    11A    -11.232628    12A     -1.465480
      13A     -1.365255    14A     -1.222840    15A     -1.150702
      16A     -1.045228    17A     -1.013689    18A     -0.945323
      19A     -0.867526    20A     -0.845331    21A     -0.783347
      22A     -0.745619    23A     -0.727379    24A     -0.688699
      25A     -0.639576    26A     -0.637273    27A     -0.625090
      28A     -0.616481    29A     -0.615931    30A     -0.586019
      31A     -0.574184    32A     -0.544092    33A     -0.543611
      34A     -0.522151    35A     -0.487509    36A     -0.474260
      37A     -0.417873    38A     -0.387020    39A     -0.361019
      40A     -0.310309

  @DF-RHF Final Energy:  -512.50704511868844

   => Energetics <=

    Nuclear Repulsion Energy =            585.5962947093386219
    One-Electron Energy =               -1860.0298053928859190
    Two-Electron Energy =                 761.9264655648589724
    Total Energy =                       -512.5070451186884384
  Basis Set: (AUG-CC-PVTZ AUX)
    Blend: AUG-CC-PVTZ-RI
    Molecular point group: c1

    Geometry (in Angstrom), charge = 0, multiplicity = 1:

       Center              X                  Y                   Z               Mass
    ------------   -----------------  -----------------  -----------------  -----------------
         O           -0.471739546731     2.128618145522    -0.317548073657    15.994914619570
         O            1.770578453269     0.847761145522     1.142857926343    15.994914619570
         N            2.111299453269    -0.706844854478    -0.502264073657    14.003074004430
         C           -0.148087546731    -0.180007854478     0.113437926343    12.000000000000
         C           -1.148209846731     1.038511745522    -0.183555673657    12.000000000000
         C           -0.668459546731    -1.471949854478     0.247716926343    12.000000000000
         C            1.319253453269     0.068326145522     0.302957926343    12.000000000000
         C           -2.395715546731     0.649693145522    -0.263360073657    12.000000000000
         C           -2.039989546731    -1.709369854478     0.140598926343    12.000000000000
         C           -2.901707546731    -0.642625854478    -0.113230073657    12.000000000000
         C            3.553925453269    -0.540444854478    -0.493705073657    12.000000000000
         H            0.014794453269    -2.290373854478     0.464237926343     1.007825032230
         H           -3.070708546731     1.478936145522    -0.472926073657     1.007825032230
         H           -2.431791546731    -2.715666854478     0.261157926343     1.007825032230
         H           -3.972553546731    -0.809905854478    -0.199717073657     1.007825032230
         H            1.674396453269    -1.144877854478    -1.302813073657     1.007825032230
         H            3.874519453269     0.315523145522    -1.097616073657     1.007825032230
         H            4.022558453269    -1.449306854478    -0.875564073657     1.007825032230
         H            3.869159453269    -0.371198854478     0.535476926343     1.007825032230
         H           -1.193791546731     2.765379145522    -0.465412073657     1.007825032230

  Basis Set: AUG-CC-PVTZ
    Blend: AUG-CC-PVTZ
  Basis Set: (AUG-CC-PVTZ AUX)
    Blend: AUG-CC-PVTZ-JKFIT
	 Reference Energy          =    -512.5070451186884384 [Eh]
	 Singles Energy            =      -0.0000000000000000 [Eh]
	 Same-Spin Energy          =      -0.5373323640650258 [Eh]
	 Opposite-Spin Energy      =      -1.6483966794596050 [Eh]
	 Correlation Energy        =      -2.1857290435246308 [Eh]
	 Total Energy              =    -514.6927741622130270 [Eh]

	 ================> DF-SCS-MP2 Energies <==================
	-----------------------------------------------------------
	 SCS Same-Spin Scale       =       0.3333333333333333 [-]
	 SCS Opposite-Spin Scale   =       1.2000000000000000 [-]
	 SCS Same-Spin Energy      =      -0.1791107880216753 [Eh]
	 SCS Opposite-Spin Energy  =      -1.9780760153515260 [Eh]
	 SCS Correlation Energy    =      -2.1571868033732011 [Eh]
	 SCS Total Energy          =    -514.6642319220616173 [Eh]
	-----------------------------------------------------------

  Dipole Moment: [D]
     X:    -1.5778      Y:    -1.0066      Z:    -3.0692     Total:     3.5948

*** Psi4 exiting successfully. Buy a developer a beer!
