                               Psi4 1.4a3.dev225

  ==> Input File <==

--------------------------------------------------------------------------
#psi4
#
memory 32 gb

molecule  {
0 1
  O       -0.4983720     2.1660820    -0.3008080
  O        1.7439460     0.8852250     1.1595980
  N        2.0846670    -0.6693810    -0.4855240
  C       -0.1747200    -0.1425440     0.1301780
  C       -1.0501490     0.9240530    -0.1297870
  C       -0.6800079    -1.5777230     0.2891267
  C        1.2926210     0.1057900     0.3196980
  C       -2.4223480     0.6871570    -0.2466200
  C       -2.0666220    -1.6719060     0.1573390
  C       -2.9283400    -0.6051620    -0.0964900
  C        3.5272930    -0.5029810    -0.4769650
  H       -0.0118380    -2.2529100     0.4809780
  H       -3.0973410     1.5164000    -0.4561860
  H       -2.4584240    -2.6782030     0.2778980
  H       -3.9991860    -0.7724420    -0.1829770
  H        1.6477640    -1.1074140    -1.2860730
  H        3.8478870     0.3529870    -1.0808760
  H        3.9959260    -1.4118430    -0.8588240
  H        3.8425270    -0.3337350     0.5522170
  H       -1.2204240     2.8028430    -0.4486720
units angstrom
no_reorient  #important for SAPT in psi4, default
symmetry c1  #important for SAPT in psi4, default
}

set PROPERTIES_ORIGIN ["COM"]
properties('MP2/aug-cc-pvtz', properties = ['dipole'])
--------------------------------------------------------------------------

    Molecular point group: c1
  Charge       = 0
  Multiplicity = 1
  Basis Set: AUG-CC-PVTZ
    Blend: AUG-CC-PVTZ
  Basis Set: (AUG-CC-PVTZ AUX)
    Blend: AUG-CC-PVTZ-JKFIT

    Orbital Energies [Eh]
    ---------------------

    Doubly Occupied:

       1A    -20.596973     2A    -20.510760     3A    -15.582488
       4A    -11.347341     5A    -11.319488     6A    -11.262099
       7A    -11.259136     8A    -11.258818     9A    -11.255077
      10A    -11.252369    11A    -11.245936    12A     -1.409206
      13A     -1.364835    14A     -1.223559    15A     -1.150214
      16A     -1.037396    17A     -1.023190    18A     -0.948445
      19A     -0.875584    20A     -0.839928    21A     -0.779666
      22A     -0.750328    23A     -0.722134    24A     -0.678990
      25A     -0.648631    26A     -0.634522    27A     -0.629909
      28A     -0.613013    29A     -0.594249    30A     -0.589188
      31A     -0.568715    32A     -0.544255    33A     -0.535899
      34A     -0.525383    35A     -0.503298    36A     -0.484909
      37A     -0.417235    38A     -0.387805    39A     -0.344710
      40A     -0.328528

  @DF-RHF Final Energy:  -512.52267787901462

   => Energetics <=

    Nuclear Repulsion Energy =            584.6008332915768051
    One-Electron Energy =               -1858.1586024951532181
    Two-Electron Energy =                 761.0350913245616766
    Total Energy =                       -512.5226778790146227
  Basis Set: (AUG-CC-PVTZ AUX)
    Blend: AUG-CC-PVTZ-RI
    Molecular point group: c1

    Geometry (in Angstrom), charge = 0, multiplicity = 1:

       Center              X                  Y                   Z               Mass
    ------------   -----------------  -----------------  -----------------  -----------------
         O           -0.482843027743     2.152064704222    -0.322449194314    15.994914619570
         O            1.759474972257     0.871207704222     1.137956805686    15.994914619570
         N            2.100195972257    -0.683398295778    -0.507165194314    14.003074004430
         C           -0.159191027743    -0.156561295778     0.108536805686    12.000000000000
         C           -1.034620027743     0.910035704222    -0.151428194314    12.000000000000
         C           -0.664478927743    -1.591740295778     0.267485505686    12.000000000000
         C            1.308149972257     0.091772704222     0.298056805686    12.000000000000
         C           -2.406819027743     0.673139704222    -0.268261194314    12.000000000000
         C           -2.051093027743    -1.685923295778     0.135697805686    12.000000000000
         C           -2.912811027743    -0.619179295778    -0.118131194314    12.000000000000
         C            3.542821972257    -0.516998295778    -0.498606194314    12.000000000000
         H            0.003690972257    -2.266927295778     0.459336805686     1.007825032230
         H           -3.081812027743     1.502382704222    -0.477827194314     1.007825032230
         H           -2.442895027743    -2.692220295778     0.256256805686     1.007825032230
         H           -3.983657027743    -0.786459295778    -0.204618194314     1.007825032230
         H            1.663292972257    -1.121431295778    -1.307714194314     1.007825032230
         H            3.863415972257     0.338969704222    -1.102517194314     1.007825032230
         H            4.011454972257    -1.425860295778    -0.880465194314     1.007825032230
         H            3.858055972257    -0.347752295778     0.530575805686     1.007825032230
         H           -1.204895027743     2.788825704222    -0.470313194314     1.007825032230

  Basis Set: AUG-CC-PVTZ
    Blend: AUG-CC-PVTZ
  Basis Set: (AUG-CC-PVTZ AUX)
    Blend: AUG-CC-PVTZ-JKFIT
	 Reference Energy          =    -512.5226778790146227 [Eh]
	 Singles Energy            =      -0.0000000000000000 [Eh]
	 Same-Spin Energy          =      -0.5375672951161039 [Eh]
	 Opposite-Spin Energy      =      -1.6484462710659502 [Eh]
	 Correlation Energy        =      -2.1860135661820541 [Eh]
	 Total Energy              =    -514.7086914451966777 [Eh]

	 ================> DF-SCS-MP2 Energies <==================
	-----------------------------------------------------------
	 SCS Same-Spin Scale       =       0.3333333333333333 [-]
	 SCS Opposite-Spin Scale   =       1.2000000000000000 [-]
	 SCS Same-Spin Energy      =      -0.1791890983720346 [Eh]
	 SCS Opposite-Spin Energy  =      -1.9781355252791402 [Eh]
	 SCS Correlation Energy    =      -2.1573246236511747 [Eh]
	 SCS Total Energy          =    -514.6800025026658432 [Eh]
	-----------------------------------------------------------

  Dipole Moment: [D]
     X:    -1.8240      Y:    -1.5882      Z:    -2.9703     Total:     3.8304

*** Psi4 exiting successfully. Buy a developer a beer!
