                               Psi4 1.4a3.dev225

  ==> Input File <==

--------------------------------------------------------------------------
#psi4
#
memory 32 gb

molecule  {
0 1
  O       -0.4983720     2.1660820    -0.3008080
  O        1.7439460     0.8852250     1.1595980
  N        2.0846670    -0.6693810    -0.4855240
  C       -0.1747200    -0.1425440     0.1301780
  C       -1.0501490     0.9240530    -0.1297870
  C       -0.6950920    -1.4344860     0.2644570
  C        1.3659165     0.2323708     0.4560984
  C       -2.4223480     0.6871570    -0.2466200
  C       -2.0666220    -1.6719060     0.1573390
  C       -2.9283400    -0.6051620    -0.0964900
  C        3.5272930    -0.5029810    -0.4769650
  H       -0.0118380    -2.2529100     0.4809780
  H       -3.0973410     1.5164000    -0.4561860
  H       -2.4584240    -2.6782030     0.2778980
  H       -3.9991860    -0.7724420    -0.1829770
  H        1.6477640    -1.1074140    -1.2860730
  H        3.8478870     0.3529870    -1.0808760
  H        3.9959260    -1.4118430    -0.8588240
  H        3.8425270    -0.3337350     0.5522170
  H       -1.2204240     2.8028430    -0.4486720
units angstrom
no_reorient  #important for SAPT in psi4, default
symmetry c1  #important for SAPT in psi4, default
}

set PROPERTIES_ORIGIN ["COM"]
properties('MP2/aug-cc-pvtz', properties = ['dipole'])
--------------------------------------------------------------------------

    Molecular point group: c1
  Charge       = 0
  Multiplicity = 1
  Basis Set: AUG-CC-PVTZ
    Blend: AUG-CC-PVTZ
  Basis Set: (AUG-CC-PVTZ AUX)
    Blend: AUG-CC-PVTZ-JKFIT

    Orbital Energies [Eh]
    ---------------------

    Doubly Occupied:

       1A    -20.597009     2A    -20.555985     3A    -15.553774
       4A    -11.347236     5A    -11.310989     6A    -11.249389
       7A    -11.248952     8A    -11.242584     9A    -11.241265
      10A    -11.240952    11A    -11.234839    12A     -1.534995
      13A     -1.408277    14A     -1.192104    15A     -1.150413
      16A     -1.029778    17A     -1.010631    18A     -0.919098
      19A     -0.856110    20A     -0.830225    21A     -0.771780
      22A     -0.739563    23A     -0.727355    24A     -0.698429
      25A     -0.672172    26A     -0.647639    27A     -0.633314
      28A     -0.607260    29A     -0.604257    30A     -0.588475
      31A     -0.580855    32A     -0.574628    33A     -0.542194
      34A     -0.531327    35A     -0.514128    36A     -0.487646
      37A     -0.406770    38A     -0.378332    39A     -0.346307
      40A     -0.320303

  @DF-RHF Final Energy:  -512.47700815554617

   => Energetics <=

    Nuclear Repulsion Energy =            587.7527296597158966
    One-Electron Energy =               -1864.2048022260164544
    Two-Electron Energy =                 763.9750644107543849
    Total Energy =                       -512.4770081555461729
  Basis Set: (AUG-CC-PVTZ AUX)
    Blend: AUG-CC-PVTZ-RI
    Molecular point group: c1

    Geometry (in Angstrom), charge = 0, multiplicity = 1:

       Center              X                  Y                   Z               Mass
    ------------   -----------------  -----------------  -----------------  -----------------
         O           -0.487467159931     2.130631219131    -0.331324732892    15.994914619570
         O            1.754850840069     0.849774219131     1.129081267108    15.994914619570
         N            2.095571840069    -0.704831780869    -0.516040732892    14.003074004430
         C           -0.163815159931    -0.177994780869     0.099661267108    12.000000000000
         C           -1.039244159931     0.888602219131    -0.160303732892    12.000000000000
         C           -0.684187159931    -1.469936780869     0.233940267108    12.000000000000
         C            1.376821340069     0.196920019131     0.425581667108    12.000000000000
         C           -2.411443159931     0.651706219131    -0.277136732892    12.000000000000
         C           -2.055717159931    -1.707356780869     0.126822267108    12.000000000000
         C           -2.917435159931    -0.640612780869    -0.127006732892    12.000000000000
         C            3.538197840069    -0.538431780869    -0.507481732892    12.000000000000
         H           -0.000933159931    -2.288360780869     0.450461267108     1.007825032230
         H           -3.086436159931     1.480949219131    -0.486702732892     1.007825032230
         H           -2.447519159931    -2.713653780869     0.247381267108     1.007825032230
         H           -3.988281159931    -0.807892780869    -0.213493732892     1.007825032230
         H            1.658668840069    -1.142864780869    -1.316589732892     1.007825032230
         H            3.858791840069     0.317536219131    -1.111392732892     1.007825032230
         H            4.006830840069    -1.447293780869    -0.889340732892     1.007825032230
         H            3.853431840069    -0.369185780869     0.521700267108     1.007825032230
         H           -1.209519159931     2.767392219131    -0.479188732892     1.007825032230

  Basis Set: AUG-CC-PVTZ
    Blend: AUG-CC-PVTZ
  Basis Set: (AUG-CC-PVTZ AUX)
    Blend: AUG-CC-PVTZ-JKFIT
	 Reference Energy          =    -512.4770081555461729 [Eh]
	 Singles Energy            =      -0.0000000000000000 [Eh]
	 Same-Spin Energy          =      -0.5331849893681085 [Eh]
	 Opposite-Spin Energy      =      -1.6384534176661356 [Eh]
	 Correlation Energy        =      -2.1716384070342443 [Eh]
	 Total Energy              =    -514.6486465625804385 [Eh]

	 ================> DF-SCS-MP2 Energies <==================
	-----------------------------------------------------------
	 SCS Same-Spin Scale       =       0.3333333333333333 [-]
	 SCS Opposite-Spin Scale   =       1.2000000000000000 [-]
	 SCS Same-Spin Energy      =      -0.1777283297893695 [Eh]
	 SCS Opposite-Spin Energy  =      -1.9661441011993626 [Eh]
	 SCS Correlation Energy    =      -2.1438724309887323 [Eh]
	 SCS Total Energy          =    -514.6208805865348950 [Eh]
	-----------------------------------------------------------

  Dipole Moment: [D]
     X:    -1.4565      Y:    -0.5447      Z:    -1.7573     Total:     2.3465

*** Psi4 exiting successfully. Buy a developer a beer!
