                               Psi4 1.4a3.dev225

  ==> Input File <==

--------------------------------------------------------------------------
#psi4
#
memory 32 gb

molecule  {
0 1
  O       -0.4983720     2.1660820    -0.3008080
  O        1.7439460     0.8852250     1.1595980
  N        2.0846670    -0.6693810    -0.4855240
  C       -0.1747200    -0.1425440     0.1301780
  C       -1.0501490     0.9240530    -0.1297870
  C       -0.6950920    -1.4344860     0.2644570
  C        1.2348029     0.1623762     0.3784779
  C       -2.4223480     0.6871570    -0.2466200
  C       -2.0666220    -1.6719060     0.1573390
  C       -2.9283400    -0.6051620    -0.0964900
  C        3.5272930    -0.5029810    -0.4769650
  H       -0.0118380    -2.2529100     0.4809780
  H       -3.0973410     1.5164000    -0.4561860
  H       -2.4584240    -2.6782030     0.2778980
  H       -3.9991860    -0.7724420    -0.1829770
  H        1.6477640    -1.1074140    -1.2860730
  H        3.8478870     0.3529870    -1.0808760
  H        3.9959260    -1.4118430    -0.8588240
  H        3.8425270    -0.3337350     0.5522170
  H       -1.2204240     2.8028430    -0.4486720
units angstrom
no_reorient  #important for SAPT in psi4, default
symmetry c1  #important for SAPT in psi4, default
}

set PROPERTIES_ORIGIN ["COM"]
properties('MP2/aug-cc-pvtz', properties = ['dipole'])
--------------------------------------------------------------------------

    Molecular point group: c1
  Charge       = 0
  Multiplicity = 1
  Basis Set: AUG-CC-PVTZ
    Blend: AUG-CC-PVTZ
  Basis Set: (AUG-CC-PVTZ AUX)
    Blend: AUG-CC-PVTZ-JKFIT

    Orbital Energies [Eh]
    ---------------------

    Doubly Occupied:

       1A    -20.602467     2A    -20.529239     3A    -15.563249
       4A    -11.352201     5A    -11.323920     6A    -11.261549
       7A    -11.260433     8A    -11.250395     9A    -11.249149
      10A    -11.245125    11A    -11.243193    12A     -1.416774
      13A     -1.402257    14A     -1.195295    15A     -1.162265
      16A     -1.052923    17A     -1.021464    18A     -0.931480
      19A     -0.871848    20A     -0.846808    21A     -0.771968
      22A     -0.743218    23A     -0.717645    24A     -0.680913
      25A     -0.648506    26A     -0.641806    27A     -0.618428
      28A     -0.611187    29A     -0.598586    30A     -0.586320
      31A     -0.582124    32A     -0.544176    33A     -0.535921
      34A     -0.529913    35A     -0.515709    36A     -0.493556
      37A     -0.427574    38A     -0.376831    39A     -0.357658
      40A     -0.329729

  @DF-RHF Final Energy:  -512.54268570411739

   => Energetics <=

    Nuclear Repulsion Energy =            587.4591722702369907
    One-Electron Energy =               -1863.8161075226284993
    Two-Electron Energy =                 763.8142495482740060
    Total Energy =                       -512.5426857041173889
  Basis Set: (AUG-CC-PVTZ AUX)
    Blend: AUG-CC-PVTZ-RI
    Molecular point group: c1

    Geometry (in Angstrom), charge = 0, multiplicity = 1:

       Center              X                  Y                   Z               Mass
    ------------   -----------------  -----------------  -----------------  -----------------
         O           -0.477051904189     2.136191372003    -0.325158802291    15.994914619570
         O            1.765266095811     0.855334372003     1.135247197709    15.994914619570
         N            2.105987095811    -0.699271627997    -0.509874802291    14.003074004430
         C           -0.153399904189    -0.172434627997     0.105827197709    12.000000000000
         C           -1.028828904189     0.894162372003    -0.154137802291    12.000000000000
         C           -0.673771904189    -1.464376627997     0.240106197709    12.000000000000
         C            1.256122995811     0.132485572003     0.354127097709    12.000000000000
         C           -2.401027904189     0.657266372003    -0.270970802291    12.000000000000
         C           -2.045301904189    -1.701796627997     0.132988197709    12.000000000000
         C           -2.907019904189    -0.635052627997    -0.120840802291    12.000000000000
         C            3.548613095811    -0.532871627997    -0.501315802291    12.000000000000
         H            0.009482095811    -2.282800627997     0.456627197709     1.007825032230
         H           -3.076020904189     1.486509372003    -0.480536802291     1.007825032230
         H           -2.437103904189    -2.708093627997     0.253547197709     1.007825032230
         H           -3.977865904189    -0.802332627997    -0.207327802291     1.007825032230
         H            1.669084095811    -1.137304627997    -1.310423802291     1.007825032230
         H            3.869207095811     0.323096372003    -1.105226802291     1.007825032230
         H            4.017246095811    -1.441733627997    -0.883174802291     1.007825032230
         H            3.863847095811    -0.363625627997     0.527866197709     1.007825032230
         H           -1.199103904189     2.772952372003    -0.473022802291     1.007825032230

  Basis Set: AUG-CC-PVTZ
    Blend: AUG-CC-PVTZ
  Basis Set: (AUG-CC-PVTZ AUX)
    Blend: AUG-CC-PVTZ-JKFIT
	 Reference Energy          =    -512.5426857041173889 [Eh]
	 Singles Energy            =      -0.0000000000000000 [Eh]
	 Same-Spin Energy          =      -0.5365811222999634 [Eh]
	 Opposite-Spin Energy      =      -1.6454081526303779 [Eh]
	 Correlation Energy        =      -2.1819892749303413 [Eh]
	 Total Energy              =    -514.7246749790476770 [Eh]

	 ================> DF-SCS-MP2 Energies <==================
	-----------------------------------------------------------
	 SCS Same-Spin Scale       =       0.3333333333333333 [-]
	 SCS Opposite-Spin Scale   =       1.2000000000000000 [-]
	 SCS Same-Spin Energy      =      -0.1788603740999878 [Eh]
	 SCS Opposite-Spin Energy  =      -1.9744897831564534 [Eh]
	 SCS Correlation Energy    =      -2.1533501572564413 [Eh]
	 SCS Total Energy          =    -514.6960358613738435 [Eh]
	-----------------------------------------------------------

  Dipole Moment: [D]
     X:    -2.3479      Y:    -1.1473      Z:    -2.4498     Total:     3.5819

*** Psi4 exiting successfully. Buy a developer a beer!
