                               Psi4 1.4a3.dev225

  ==> Input File <==

--------------------------------------------------------------------------
#psi4
#
memory 32 gb

molecule  {
0 1
  O       -0.4983720     2.1660820    -0.3008080
  O        1.7439460     0.8852250     1.1595980
  N        2.0846670    -0.6693810    -0.4855240
  C       -0.1747200    -0.1425440     0.1301780
  C       -1.0501490     0.9240530    -0.1297870
  C       -0.6950920    -1.4344860     0.2644570
  C        1.2926210     0.1057900     0.3196980
  C       -2.3732494     0.6956334    -0.2424396
  C       -2.0666220    -1.6719060     0.1573390
  C       -2.9283400    -0.6051620    -0.0964900
  C        3.5272930    -0.5029810    -0.4769650
  H       -0.0118380    -2.2529100     0.4809780
  H       -3.0973410     1.5164000    -0.4561860
  H       -2.4584240    -2.6782030     0.2778980
  H       -3.9991860    -0.7724420    -0.1829770
  H        1.6477640    -1.1074140    -1.2860730
  H        3.8478870     0.3529870    -1.0808760
  H        3.9959260    -1.4118430    -0.8588240
  H        3.8425270    -0.3337350     0.5522170
  H       -1.2204240     2.8028430    -0.4486720
units angstrom
no_reorient  #important for SAPT in psi4, default
symmetry c1  #important for SAPT in psi4, default
}

set PROPERTIES_ORIGIN ["COM"]
properties('MP2/aug-cc-pvtz', properties = ['dipole'])
--------------------------------------------------------------------------

    Molecular point group: c1
  Charge       = 0
  Multiplicity = 1
  Basis Set: AUG-CC-PVTZ
    Blend: AUG-CC-PVTZ
  Basis Set: (AUG-CC-PVTZ AUX)
    Blend: AUG-CC-PVTZ-JKFIT

    Orbital Energies [Eh]
    ---------------------

    Doubly Occupied:

       1A    -20.594632     2A    -20.513296     3A    -15.584075
       4A    -11.350284     5A    -11.313276     6A    -11.259562
       7A    -11.257321     8A    -11.256035     9A    -11.250966
      10A    -11.244833    11A    -11.241547    12A     -1.408452
      13A     -1.367176    14A     -1.225485    15A     -1.162236
      16A     -1.043945    17A     -1.023807    18A     -0.950079
      19A     -0.868294    20A     -0.841903    21A     -0.783819
      22A     -0.741279    23A     -0.723477    24A     -0.676411
      25A     -0.646529    26A     -0.635630    27A     -0.618777
      28A     -0.610970    29A     -0.596488    30A     -0.586444
      31A     -0.573849    32A     -0.545272    33A     -0.533328
      34A     -0.525842    35A     -0.508665    36A     -0.489473
      37A     -0.421956    38A     -0.388907    39A     -0.352032
      40A     -0.331125

  @DF-RHF Final Energy:  -512.54904758792054

   => Energetics <=

    Nuclear Repulsion Energy =            587.9496998400381926
    One-Electron Energy =               -1864.9025444126430102
    Two-Electron Energy =                 764.4037969846842770
    Total Energy =                       -512.5490475879205405
  Basis Set: (AUG-CC-PVTZ AUX)
    Blend: AUG-CC-PVTZ-RI
    Molecular point group: c1

    Geometry (in Angstrom), charge = 0, multiplicity = 1:

       Center              X                  Y                   Z               Mass
    ------------   -----------------  -----------------  -----------------  -----------------
         O           -0.485545033610     2.140013064571    -0.320821588181    15.994914619570
         O            1.756772966390     0.859156064571     1.139584411819    15.994914619570
         N            2.097493966390    -0.695449935429    -0.505537588181    14.003074004430
         C           -0.161893033610    -0.168612935429     0.110164411819    12.000000000000
         C           -1.037322033610     0.897984064571    -0.149800588181    12.000000000000
         C           -0.682265033610    -1.460554935429     0.244443411819    12.000000000000
         C            1.305447966390     0.079721064571     0.299684411819    12.000000000000
         C           -2.360422433610     0.669564464571    -0.262453188181    12.000000000000
         C           -2.053795033610    -1.697974935429     0.137325411819    12.000000000000
         C           -2.915513033610    -0.631230935429    -0.116503588181    12.000000000000
         C            3.540119966390    -0.529049935429    -0.496978588181    12.000000000000
         H            0.000988966390    -2.278978935429     0.460964411819     1.007825032230
         H           -3.084514033610     1.490331064571    -0.476199588181     1.007825032230
         H           -2.445597033610    -2.704271935429     0.257884411819     1.007825032230
         H           -3.986359033610    -0.798510935429    -0.202990588181     1.007825032230
         H            1.660590966390    -1.133482935429    -1.306086588181     1.007825032230
         H            3.860713966390     0.326918064571    -1.100889588181     1.007825032230
         H            4.008752966390    -1.437911935429    -0.878837588181     1.007825032230
         H            3.855353966390    -0.359803935429     0.532203411819     1.007825032230
         H           -1.207597033610     2.776774064571    -0.468685588181     1.007825032230

  Basis Set: AUG-CC-PVTZ
    Blend: AUG-CC-PVTZ
  Basis Set: (AUG-CC-PVTZ AUX)
    Blend: AUG-CC-PVTZ-JKFIT
	 Reference Energy          =    -512.5490475879205405 [Eh]
	 Singles Energy            =      -0.0000000000000000 [Eh]
	 Same-Spin Energy          =      -0.5370590864590931 [Eh]
	 Opposite-Spin Energy      =      -1.6461380017998075 [Eh]
	 Correlation Energy        =      -2.1831970882589005 [Eh]
	 Total Energy              =    -514.7322446761794481 [Eh]

	 ================> DF-SCS-MP2 Energies <==================
	-----------------------------------------------------------
	 SCS Same-Spin Scale       =       0.3333333333333333 [-]
	 SCS Opposite-Spin Scale   =       1.2000000000000000 [-]
	 SCS Same-Spin Energy      =      -0.1790196954863643 [Eh]
	 SCS Opposite-Spin Energy  =      -1.9753656021597690 [Eh]
	 SCS Correlation Energy    =      -2.1543852976461335 [Eh]
	 SCS Total Energy          =    -514.7034328855667127 [Eh]
	-----------------------------------------------------------

  Dipole Moment: [D]
     X:    -1.7247      Y:    -1.6702      Z:    -2.9605     Total:     3.8117

*** Psi4 exiting successfully. Buy a developer a beer!
