                               Psi4 1.4a3.dev225

  ==> Input File <==

--------------------------------------------------------------------------
#psi4
#
memory 32 gb

molecule  {
0 1
  O       -0.4983720     2.1660820    -0.3008080
  O        1.7439460     0.8852250     1.1595980
  N        2.0846670    -0.6693810    -0.4855240
  C       -0.1747200    -0.1425440     0.1301780
  C       -1.0501490     0.9240530    -0.1297870
  C       -0.6950920    -1.4344860     0.2644570
  C        1.2926210     0.1057900     0.3196980
  C       -2.4223480     0.6871570    -0.2466200
  C       -2.0666220    -1.6719060     0.1573390
  C       -2.9283400    -0.6051620    -0.0964900
  C        3.5074251    -0.5052727    -0.4770829
  H       -0.0118380    -2.2529100     0.4809780
  H       -3.0973410     1.5164000    -0.4561860
  H       -2.4584240    -2.6782030     0.2778980
  H       -3.9991860    -0.7724420    -0.1829770
  H        1.6477640    -1.1074140    -1.2860730
  H        3.8478870     0.3529870    -1.0808760
  H        3.9959260    -1.4118430    -0.8588240
  H        3.8425270    -0.3337350     0.5522170
  H       -1.2204240     2.8028430    -0.4486720
units angstrom
no_reorient  #important for SAPT in psi4, default
symmetry c1  #important for SAPT in psi4, default
}

set PROPERTIES_ORIGIN ["COM"]
properties('MP2/aug-cc-pvtz', properties = ['dipole'])
--------------------------------------------------------------------------

    Molecular point group: c1
  Charge       = 0
  Multiplicity = 1
  Basis Set: AUG-CC-PVTZ
    Blend: AUG-CC-PVTZ
  Basis Set: (AUG-CC-PVTZ AUX)
    Blend: AUG-CC-PVTZ-JKFIT

    Orbital Energies [Eh]
    ---------------------

    Doubly Occupied:

       1A    -20.598014     2A    -20.513944     3A    -15.584445
       4A    -11.350686     5A    -11.320740     6A    -11.257717
       7A    -11.257058     8A    -11.255791     9A    -11.249878
      10A    -11.246846    11A    -11.240714    12A     -1.410246
      13A     -1.368183    14A     -1.229769    15A     -1.160518
      16A     -1.047430    17A     -1.018009    18A     -0.949676
      19A     -0.865293    20A     -0.844266    21A     -0.784640
      22A     -0.742751    23A     -0.724564    24A     -0.675579
      25A     -0.650944    26A     -0.637743    27A     -0.619557
      28A     -0.612973    29A     -0.595925    30A     -0.587340
      31A     -0.576636    32A     -0.540576    33A     -0.535641
      34A     -0.522403    35A     -0.510723    36A     -0.489862
      37A     -0.422331    38A     -0.388360    39A     -0.354721
      40A     -0.326455

  @DF-RHF Final Energy:  -512.55161961369458

   => Energetics <=

    Nuclear Repulsion Energy =            587.5439162200156034
    One-Electron Energy =               -1864.0531829887656841
    Two-Electron Energy =                 763.9576471550553833
    Total Energy =                       -512.5516196136945837
  Basis Set: (AUG-CC-PVTZ AUX)
    Blend: AUG-CC-PVTZ-RI
    Molecular point group: c1

    Geometry (in Angstrom), charge = 0, multiplicity = 1:

       Center              X                  Y                   Z               Mass
    ------------   -----------------  -----------------  -----------------  -----------------
         O           -0.480066549798     2.140868448874    -0.320480144626    15.994914619570
         O            1.762251450202     0.860011448874     1.139925855374    15.994914619570
         N            2.102972450202    -0.694594551126    -0.505196144626    14.003074004430
         C           -0.156414549798    -0.167757551126     0.110505855374    12.000000000000
         C           -1.031843549798     0.898839448874    -0.149459144626    12.000000000000
         C           -0.676786549798    -1.459699551126     0.244784855374    12.000000000000
         C            1.310926450202     0.080576448874     0.300025855374    12.000000000000
         C           -2.404042549798     0.661943448874    -0.266292144626    12.000000000000
         C           -2.048316549798    -1.697119551126     0.137666855374    12.000000000000
         C           -2.910034549798    -0.630375551126    -0.116162144626    12.000000000000
         C            3.525730550202    -0.530486251126    -0.496755044626    12.000000000000
         H            0.006467450202    -2.278123551126     0.461305855374     1.007825032230
         H           -3.079035549798     1.491186448874    -0.475858144626     1.007825032230
         H           -2.440118549798    -2.703416551126     0.258225855374     1.007825032230
         H           -3.980880549798    -0.797655551126    -0.202649144626     1.007825032230
         H            1.666069450202    -1.132627551126    -1.305745144626     1.007825032230
         H            3.866192450202     0.327773448874    -1.100548144626     1.007825032230
         H            4.014231450202    -1.437056551126    -0.878496144626     1.007825032230
         H            3.860832450202    -0.358948551126     0.532544855374     1.007825032230
         H           -1.202118549798     2.777629448874    -0.468344144626     1.007825032230

  Basis Set: AUG-CC-PVTZ
    Blend: AUG-CC-PVTZ
  Basis Set: (AUG-CC-PVTZ AUX)
    Blend: AUG-CC-PVTZ-JKFIT
	 Reference Energy          =    -512.5516196136945837 [Eh]
	 Singles Energy            =      -0.0000000000000000 [Eh]
	 Same-Spin Energy          =      -0.5371733834127193 [Eh]
	 Opposite-Spin Energy      =      -1.6460800726264366 [Eh]
	 Correlation Energy        =      -2.1832534560391559 [Eh]
	 Total Energy              =    -514.7348730697337942 [Eh]

	 ================> DF-SCS-MP2 Energies <==================
	-----------------------------------------------------------
	 SCS Same-Spin Scale       =       0.3333333333333333 [-]
	 SCS Opposite-Spin Scale   =       1.2000000000000000 [-]
	 SCS Same-Spin Energy      =      -0.1790577944709064 [Eh]
	 SCS Opposite-Spin Energy  =      -1.9752960871517238 [Eh]
	 SCS Correlation Energy    =      -2.1543538816226300 [Eh]
	 SCS Total Energy          =    -514.7059734953172665 [Eh]
	-----------------------------------------------------------

  Dipole Moment: [D]
     X:    -1.7706      Y:    -1.5812      Z:    -2.9610     Total:     3.7951

*** Psi4 exiting successfully. Buy a developer a beer!
