                               Psi4 1.4a3.dev225

  ==> Input File <==

--------------------------------------------------------------------------
#psi4
#
memory 32 gb

molecule  {
0 1
  O       -0.4983720     2.1660820    -0.3008080
  O        1.7439460     0.8852250     1.1595980
  N        2.0846670    -0.6693810    -0.4855240
  C       -0.1747200    -0.1425440     0.1301780
  C       -1.0501490     0.9240530    -0.1297870
  C       -0.6950920    -1.4344860     0.2644570
  C        1.2926210     0.1057900     0.3196980
  C       -2.4223480     0.6871570    -0.2466200
  C       -2.0666220    -1.6719060     0.1573390
  C       -2.9283400    -0.6051620    -0.0964900
  C        3.5769628    -0.4972518    -0.4766703
  H       -0.0118380    -2.2529100     0.4809780
  H       -3.0973410     1.5164000    -0.4561860
  H       -2.4584240    -2.6782030     0.2778980
  H       -3.9991860    -0.7724420    -0.1829770
  H        1.6477640    -1.1074140    -1.2860730
  H        3.8478870     0.3529870    -1.0808760
  H        3.9959260    -1.4118430    -0.8588240
  H        3.8425270    -0.3337350     0.5522170
  H       -1.2204240     2.8028430    -0.4486720
units angstrom
no_reorient  #important for SAPT in psi4, default
symmetry c1  #important for SAPT in psi4, default
}

set PROPERTIES_ORIGIN ["COM"]
properties('MP2/aug-cc-pvtz', properties = ['dipole'])
--------------------------------------------------------------------------

    Molecular point group: c1
  Charge       = 0
  Multiplicity = 1
  Basis Set: AUG-CC-PVTZ
    Blend: AUG-CC-PVTZ
  Basis Set: (AUG-CC-PVTZ AUX)
    Blend: AUG-CC-PVTZ-JKFIT

    Orbital Energies [Eh]
    ---------------------

    Doubly Occupied:

       1A    -20.597015     2A    -20.511140     3A    -15.582337
       4A    -11.348435     5A    -11.319524     6A    -11.257110
       7A    -11.256402     8A    -11.255959     9A    -11.248560
      10A    -11.245816    11A    -11.239640    12A     -1.409188
      13A     -1.364425    14A     -1.215297    15A     -1.158744
      16A     -1.045011    17A     -1.016861    18A     -0.952190
      19A     -0.864867    20A     -0.844035    21A     -0.779666
      22A     -0.741062    23A     -0.721372    24A     -0.674262
      25A     -0.644235    26A     -0.631353    27A     -0.619292
      28A     -0.611419    29A     -0.595436    30A     -0.583709
      31A     -0.571514    32A     -0.555053    33A     -0.536493
      34A     -0.523046    35A     -0.511532    36A     -0.489349
      37A     -0.419403    38A     -0.389261    39A     -0.353375
      40A     -0.325335

  @DF-RHF Final Energy:  -512.55006652323254

   => Energetics <=

    Nuclear Repulsion Energy =            586.2332255112474968
    One-Electron Energy =               -1861.5491324692234230
    Two-Electron Energy =                 762.7658404347434953
    Total Energy =                       -512.5500665232325446
  Basis Set: (AUG-CC-PVTZ AUX)
    Blend: AUG-CC-PVTZ-RI
    Molecular point group: c1

    Geometry (in Angstrom), charge = 0, multiplicity = 1:

       Center              X                  Y                   Z               Mass
    ------------   -----------------  -----------------  -----------------  -----------------
         O           -0.485590407958     2.140231293577    -0.320512920284    15.994914619570
         O            1.756727592042     0.859374293577     1.139893079716    15.994914619570
         N            2.097448592042    -0.695231706423    -0.505228920284    14.003074004430
         C           -0.161938407958    -0.168394706423     0.110473079716    12.000000000000
         C           -1.037367407958     0.898202293577    -0.149491920284    12.000000000000
         C           -0.682310407958    -1.460336706423     0.244752079716    12.000000000000
         C            1.305402592042     0.079939293577     0.299993079716    12.000000000000
         C           -2.409566407958     0.661306293577    -0.266324920284    12.000000000000
         C           -2.053840407958    -1.697756706423     0.137634079716    12.000000000000
         C           -2.915558407958    -0.631012706423    -0.116194920284    12.000000000000
         C            3.589744392042    -0.523102506423    -0.496375220284    12.000000000000
         H            0.000943592042    -2.278760706423     0.461273079716     1.007825032230
         H           -3.084559407958     1.490549293577    -0.475890920284     1.007825032230
         H           -2.445642407958    -2.704053706423     0.258193079716     1.007825032230
         H           -3.986404407958    -0.798292706423    -0.202681920284     1.007825032230
         H            1.660545592042    -1.133264706423    -1.305777920284     1.007825032230
         H            3.860668592042     0.327136293577    -1.100580920284     1.007825032230
         H            4.008707592042    -1.437693706423    -0.878528920284     1.007825032230
         H            3.855308592042    -0.359585706423     0.532512079716     1.007825032230
         H           -1.207642407958     2.776992293577    -0.468376920284     1.007825032230

  Basis Set: AUG-CC-PVTZ
    Blend: AUG-CC-PVTZ
  Basis Set: (AUG-CC-PVTZ AUX)
    Blend: AUG-CC-PVTZ-JKFIT
	 Reference Energy          =    -512.5500665232325446 [Eh]
	 Singles Energy            =      -0.0000000000000000 [Eh]
	 Same-Spin Energy          =      -0.5368489677449737 [Eh]
	 Opposite-Spin Energy      =      -1.6461977228563391 [Eh]
	 Correlation Energy        =      -2.1830466906013131 [Eh]
	 Total Energy              =    -514.7331132138338035 [Eh]

	 ================> DF-SCS-MP2 Energies <==================
	-----------------------------------------------------------
	 SCS Same-Spin Scale       =       0.3333333333333333 [-]
	 SCS Opposite-Spin Scale   =       1.2000000000000000 [-]
	 SCS Same-Spin Energy      =      -0.1789496559149912 [Eh]
	 SCS Opposite-Spin Energy  =      -1.9754372674276068 [Eh]
	 SCS Correlation Energy    =      -2.1543869233425981 [Eh]
	 SCS Total Energy          =    -514.7044534465751440 [Eh]
	-----------------------------------------------------------

  Dipole Moment: [D]
     X:    -1.5605      Y:    -1.5793      Z:    -3.0034     Total:     3.7350

*** Psi4 exiting successfully. Buy a developer a beer!
