                               Psi4 1.4a3.dev225

  ==> Input File <==

--------------------------------------------------------------------------
#psi4
#
memory 32 gb

molecule  {
0 1
  O       -0.4983720     2.1660820    -0.3008080
  O        1.7439460     0.8852250     1.1595980
  N        2.0846670    -0.6693810    -0.4855240
  C       -0.1747200    -0.1425440     0.1301780
  C       -1.0501490     0.9240530    -0.1297870
  C       -0.6950920    -1.4344860     0.2644570
  C        1.2926210     0.1057900     0.3196980
  C       -2.4223480     0.6871570    -0.2466200
  C       -2.2631102    -1.7059193     0.1419931
  C       -2.9283400    -0.6051620    -0.0964900
  C        3.5272930    -0.5029810    -0.4769650
  H       -0.0118380    -2.2529100     0.4809780
  H       -3.0973410     1.5164000    -0.4561860
  H       -2.4584240    -2.6782030     0.2778980
  H       -3.9991860    -0.7724420    -0.1829770
  H        1.6477640    -1.1074140    -1.2860730
  H        3.8478870     0.3529870    -1.0808760
  H        3.9959260    -1.4118430    -0.8588240
  H        3.8425270    -0.3337350     0.5522170
  H       -1.2204240     2.8028430    -0.4486720
units angstrom
no_reorient  #important for SAPT in psi4, default
symmetry c1  #important for SAPT in psi4, default
}

set PROPERTIES_ORIGIN ["COM"]
properties('MP2/aug-cc-pvtz', properties = ['dipole'])
--------------------------------------------------------------------------

    Molecular point group: c1
  Charge       = 0
  Multiplicity = 1
  Basis Set: AUG-CC-PVTZ
    Blend: AUG-CC-PVTZ
  Basis Set: (AUG-CC-PVTZ AUX)
    Blend: AUG-CC-PVTZ-JKFIT

    Orbital Energies [Eh]
    ---------------------

    Doubly Occupied:

       1A    -20.599409     2A    -20.514757     3A    -15.585251
       4A    -11.352094     5A    -11.323309     6A    -11.274915
       7A    -11.256831     8A    -11.254186     9A    -11.245875
      10A    -11.242471    11A    -11.241248    12A     -1.411373
      13A     -1.368730    14A     -1.226520    15A     -1.153251
      16A     -1.056448    17A     -1.007109    18A     -0.949626
      19A     -0.869371    20A     -0.842165    21A     -0.785726
      22A     -0.741820    23A     -0.730761    24A     -0.678590
      25A     -0.658760    26A     -0.639253    27A     -0.618937
      28A     -0.610308    29A     -0.596217    30A     -0.579886
      31A     -0.568791    32A     -0.559669    33A     -0.545988
      34A     -0.518311    35A     -0.489315    36A     -0.484184
      37A     -0.419565    38A     -0.389664    39A     -0.361831
      40A     -0.319822

  @DF-RHF Final Energy:  -512.51156701722402

   => Energetics <=

    Nuclear Repulsion Energy =            584.7932398821519655
    One-Electron Energy =               -1858.4649416720390036
    Two-Electron Energy =                 761.1601347726630138
    Total Energy =                       -512.5115670172240243
  Basis Set: (AUG-CC-PVTZ AUX)
    Blend: AUG-CC-PVTZ-RI
    Molecular point group: c1

    Geometry (in Angstrom), charge = 0, multiplicity = 1:

       Center              X                  Y                   Z               Mass
    ------------   -----------------  -----------------  -----------------  -----------------
         O           -0.466036383638     2.143388313912    -0.319270479767    15.994914619570
         O            1.776281616362     0.862531313912     1.141135520233    15.994914619570
         N            2.117002616362    -0.692074686088    -0.503986479767    14.003074004430
         C           -0.142384383638    -0.165237686088     0.111715520233    12.000000000000
         C           -1.017813383638     0.901359313912    -0.148249479767    12.000000000000
         C           -0.662756383638    -1.457179686088     0.245994520233    12.000000000000
         C            1.324956616362     0.083096313912     0.301235520233    12.000000000000
         C           -2.390012383638     0.664463313912    -0.265082479767    12.000000000000
         C           -2.230774583638    -1.728612986088     0.123530620233    12.000000000000
         C           -2.896004383638    -0.627855686088    -0.114952479767    12.000000000000
         C            3.559628616362    -0.525674686088    -0.495427479767    12.000000000000
         H            0.020497616362    -2.275603686088     0.462515520233     1.007825032230
         H           -3.065005383638     1.493706313912    -0.474648479767     1.007825032230
         H           -2.426088383638    -2.700896686088     0.259435520233     1.007825032230
         H           -3.966850383638    -0.795135686088    -0.201439479767     1.007825032230
         H            1.680099616362    -1.130107686088    -1.304535479767     1.007825032230
         H            3.880222616362     0.330293313912    -1.099338479767     1.007825032230
         H            4.028261616362    -1.434536686088    -0.877286479767     1.007825032230
         H            3.874862616362    -0.356428686088     0.533754520233     1.007825032230
         H           -1.188088383638     2.780149313912    -0.467134479767     1.007825032230

  Basis Set: AUG-CC-PVTZ
    Blend: AUG-CC-PVTZ
  Basis Set: (AUG-CC-PVTZ AUX)
    Blend: AUG-CC-PVTZ-JKFIT
	 Reference Energy          =    -512.5115670172240243 [Eh]
	 Singles Energy            =      -0.0000000000000000 [Eh]
	 Same-Spin Energy          =      -0.5361668678390068 [Eh]
	 Opposite-Spin Energy      =      -1.6480196036028640 [Eh]
	 Correlation Energy        =      -2.1841864714418708 [Eh]
	 Total Energy              =    -514.6957534886659005 [Eh]

	 ================> DF-SCS-MP2 Energies <==================
	-----------------------------------------------------------
	 SCS Same-Spin Scale       =       0.3333333333333333 [-]
	 SCS Opposite-Spin Scale   =       1.2000000000000000 [-]
	 SCS Same-Spin Energy      =      -0.1787222892796689 [Eh]
	 SCS Opposite-Spin Energy  =      -1.9776235243234368 [Eh]
	 SCS Correlation Energy    =      -2.1563458136031057 [Eh]
	 SCS Total Energy          =    -514.6679128308271629 [Eh]
	-----------------------------------------------------------

  Dipole Moment: [D]
     X:    -1.5532      Y:    -1.6127      Z:    -2.9558     Total:     3.7081

*** Psi4 exiting successfully. Buy a developer a beer!
