                               Psi4 1.4a3.dev225

  ==> Input File <==

--------------------------------------------------------------------------
#psi4
#
memory 32 gb

molecule  {
0 1
  O       -0.4983720     2.1660820    -0.3008080
  O        1.7439460     0.8852250     1.1595980
  N        2.0846670    -0.6693810    -0.4855240
  C       -0.1747200    -0.1425440     0.1301780
  C       -1.0501490     0.9240530    -0.1297870
  C       -0.6950920    -1.4344860     0.2644570
  C        1.2926210     0.1057900     0.3196980
  C       -2.4223480     0.6871570    -0.2466200
  C       -2.0666220    -1.6719060     0.1573390
  C       -2.9283400    -0.6051620    -0.0964900
  C        3.5272930    -0.5029810    -0.4769650
  H       -0.0118380    -2.2529100     0.4809780
  H       -3.0663660     1.4783466    -0.4465691
  H       -2.4584240    -2.6782030     0.2778980
  H       -3.9991860    -0.7724420    -0.1829770
  H        1.6477640    -1.1074140    -1.2860730
  H        3.8478870     0.3529870    -1.0808760
  H        3.9959260    -1.4118430    -0.8588240
  H        3.8425270    -0.3337350     0.5522170
  H       -1.2204240     2.8028430    -0.4486720
units angstrom
no_reorient  #important for SAPT in psi4, default
symmetry c1  #important for SAPT in psi4, default
}

set PROPERTIES_ORIGIN ["COM"]
properties('MP2/aug-cc-pvtz', properties = ['dipole'])
--------------------------------------------------------------------------

    Molecular point group: c1
  Charge       = 0
  Multiplicity = 1
  Basis Set: AUG-CC-PVTZ
    Blend: AUG-CC-PVTZ
  Basis Set: (AUG-CC-PVTZ AUX)
    Blend: AUG-CC-PVTZ-JKFIT

    Orbital Energies [Eh]
    ---------------------

    Doubly Occupied:

       1A    -20.597900     2A    -20.512983     3A    -15.583785
       4A    -11.349854     5A    -11.319918     6A    -11.257147
       7A    -11.256255     8A    -11.255892     9A    -11.249128
      10A    -11.240563    11A    -11.240037    12A     -1.410086
      13A     -1.366917    14A     -1.225212    15A     -1.159986
      16A     -1.047454    17A     -1.018497    18A     -0.950176
      19A     -0.866826    20A     -0.844835    21A     -0.783416
      22A     -0.744618    23A     -0.723949    24A     -0.675502
      25A     -0.649977    26A     -0.636486    27A     -0.622148
      28A     -0.614196    29A     -0.595735    30A     -0.586000
      31A     -0.575520    32A     -0.545160    33A     -0.536224
      34A     -0.522625    35A     -0.512242    36A     -0.489526
      37A     -0.421365    38A     -0.388720    39A     -0.354080
      40A     -0.325877

  @DF-RHF Final Energy:  -512.55135440608228

   => Energetics <=

    Nuclear Repulsion Energy =            587.4357986264820966
    One-Electron Energy =               -1863.8606754219670165
    Two-Electron Energy =                 763.8735223894027513
    Total Energy =                       -512.5513544060822824
  Basis Set: (AUG-CC-PVTZ AUX)
    Blend: AUG-CC-PVTZ-RI
    Molecular point group: c1

    Geometry (in Angstrom), charge = 0, multiplicity = 1:

       Center              X                  Y                   Z               Mass
    ------------   -----------------  -----------------  -----------------  -----------------
         O           -0.481851444801     2.140940278147    -0.320553669767    15.994914619570
         O            1.760466555199     0.860083278147     1.139852330233    15.994914619570
         N            2.101187555199    -0.694522721853    -0.505269669767    14.003074004430
         C           -0.158199444801    -0.167685721853     0.110432330233    12.000000000000
         C           -1.033628444801     0.898911278147    -0.149532669767    12.000000000000
         C           -0.678571444801    -1.459627721853     0.244711330233    12.000000000000
         C            1.309141555199     0.080648278147     0.299952330233    12.000000000000
         C           -2.405827444801     0.662015278147    -0.266365669767    12.000000000000
         C           -2.050101444801    -1.697047721853     0.137593330233    12.000000000000
         C           -2.911819444801    -0.630303721853    -0.116235669767    12.000000000000
         C            3.543813555199    -0.528122721853    -0.496710669767    12.000000000000
         H            0.004682555199    -2.278051721853     0.461232330233     1.007825032230
         H           -3.049845444801     1.453204878147    -0.466314769767     1.007825032230
         H           -2.441903444801    -2.703344721853     0.258152330233     1.007825032230
         H           -3.982665444801    -0.797583721853    -0.202722669767     1.007825032230
         H            1.664284555199    -1.132555721853    -1.305818669767     1.007825032230
         H            3.864407555199     0.327845278147    -1.100621669767     1.007825032230
         H            4.012446555199    -1.436984721853    -0.878569669767     1.007825032230
         H            3.859047555199    -0.358876721853     0.532471330233     1.007825032230
         H           -1.203903444801     2.777701278147    -0.468417669767     1.007825032230

  Basis Set: AUG-CC-PVTZ
    Blend: AUG-CC-PVTZ
  Basis Set: (AUG-CC-PVTZ AUX)
    Blend: AUG-CC-PVTZ-JKFIT
	 Reference Energy          =    -512.5513544060822824 [Eh]
	 Singles Energy            =      -0.0000000000000000 [Eh]
	 Same-Spin Energy          =      -0.5369506338491817 [Eh]
	 Opposite-Spin Energy      =      -1.6457666560779955 [Eh]
	 Correlation Energy        =      -2.1827172899271772 [Eh]
	 Total Energy              =    -514.7340716960094369 [Eh]

	 ================> DF-SCS-MP2 Energies <==================
	-----------------------------------------------------------
	 SCS Same-Spin Scale       =       0.3333333333333333 [-]
	 SCS Opposite-Spin Scale   =       1.2000000000000000 [-]
	 SCS Same-Spin Energy      =      -0.1789835446163939 [Eh]
	 SCS Opposite-Spin Energy  =      -1.9749199872935945 [Eh]
	 SCS Correlation Energy    =      -2.1539035319099886 [Eh]
	 SCS Total Energy          =    -514.7052579379923145 [Eh]
	-----------------------------------------------------------

  Dipole Moment: [D]
     X:    -1.7173      Y:    -1.5634      Z:    -2.9775     Total:     3.7761

*** Psi4 exiting successfully. Buy a developer a beer!
