                               Psi4 1.4a3.dev225

  ==> Input File <==

--------------------------------------------------------------------------
#psi4
#
memory 32 gb

molecule  {
0 1
  O       -0.4983720     2.1660820    -0.3008080
  O        1.7439460     0.8852250     1.1595980
  N        2.0846670    -0.6693810    -0.4855240
  C       -0.1747200    -0.1425440     0.1301780
  C       -1.0501490     0.9240530    -0.1297870
  C       -0.6950920    -1.4344860     0.2644570
  C        1.2926210     0.1057900     0.3196980
  C       -2.4223480     0.6871570    -0.2466200
  C       -2.0666220    -1.6719060     0.1573390
  C       -2.9283400    -0.6051620    -0.0964900
  C        3.5272930    -0.5029810    -0.4769650
  H       -0.0118380    -2.2529100     0.4809780
  H       -3.0973410     1.5164000    -0.4561860
  H       -2.4584240    -2.6782030     0.2778980
  H       -3.9499417    -0.7647494    -0.1789998
  H        1.6477640    -1.1074140    -1.2860730
  H        3.8478870     0.3529870    -1.0808760
  H        3.9959260    -1.4118430    -0.8588240
  H        3.8425270    -0.3337350     0.5522170
  H       -1.2204240     2.8028430    -0.4486720
units angstrom
no_reorient  #important for SAPT in psi4, default
symmetry c1  #important for SAPT in psi4, default
}

set PROPERTIES_ORIGIN ["COM"]
properties('MP2/aug-cc-pvtz', properties = ['dipole'])
--------------------------------------------------------------------------

    Molecular point group: c1
  Charge       = 0
  Multiplicity = 1
  Basis Set: AUG-CC-PVTZ
    Blend: AUG-CC-PVTZ
  Basis Set: (AUG-CC-PVTZ AUX)
    Blend: AUG-CC-PVTZ-JKFIT

    Orbital Energies [Eh]
    ---------------------

    Doubly Occupied:

       1A    -20.597516     2A    -20.513024     3A    -15.583825
       4A    -11.349941     5A    -11.320103     6A    -11.257037
       7A    -11.255914     8A    -11.250920     9A    -11.249364
      10A    -11.246121    11A    -11.240005    12A     -1.409746
      13A     -1.366947    14A     -1.225249    15A     -1.160134
      16A     -1.047942    17A     -1.017451    18A     -0.950750
      19A     -0.867372    20A     -0.844915    21A     -0.783500
      22A     -0.743097    23A     -0.724086    24A     -0.678644
      25A     -0.649725    26A     -0.636115    27A     -0.620316
      28A     -0.612322    29A     -0.595557    30A     -0.587711
      31A     -0.575247    32A     -0.545156    33A     -0.536148
      34A     -0.524611    35A     -0.511354    36A     -0.489522
      37A     -0.421432    38A     -0.388743    39A     -0.354140
      40A     -0.325903

  @DF-RHF Final Energy:  -512.55131373228392

   => Energetics <=

    Nuclear Repulsion Energy =            587.4334345283440371
    One-Electron Energy =               -1863.8542863926818427
    Two-Electron Energy =                 763.8695381320537763
    Total Energy =                       -512.5513137322839157
  Basis Set: (AUG-CC-PVTZ AUX)
    Blend: AUG-CC-PVTZ-RI
    Molecular point group: c1

    Geometry (in Angstrom), charge = 0, multiplicity = 1:

       Center              X                  Y                   Z               Mass
    ------------   -----------------  -----------------  -----------------  -----------------
         O           -0.481973329166     2.140635081880    -0.320516044283    15.994914619570
         O            1.760344670834     0.859778081880     1.139889955717    15.994914619570
         N            2.101065670834    -0.694827918120    -0.505232044283    14.003074004430
         C           -0.158321329166    -0.167990918120     0.110469955717    12.000000000000
         C           -1.033750329166     0.898606081880    -0.149495044283    12.000000000000
         C           -0.678693329166    -1.459932918120     0.244748955717    12.000000000000
         C            1.309019670834     0.080343081880     0.299989955717    12.000000000000
         C           -2.405949329166     0.661710081880    -0.266328044283    12.000000000000
         C           -2.050223329166    -1.697352918120     0.137630955717    12.000000000000
         C           -2.911941329166    -0.630608918120    -0.116198044283    12.000000000000
         C            3.543691670834    -0.528427918120    -0.496673044283    12.000000000000
         H            0.004560670834    -2.278356918120     0.461269955717     1.007825032230
         H           -3.080942329166     1.490953081880    -0.475894044283     1.007825032230
         H           -2.442025329166    -2.703649918120     0.258189955717     1.007825032230
         H           -3.933543029166    -0.790196318120    -0.198707844283     1.007825032230
         H            1.664162670834    -1.132860918120    -1.305781044283     1.007825032230
         H            3.864285670834     0.327540081880    -1.100584044283     1.007825032230
         H            4.012324670834    -1.437289918120    -0.878532044283     1.007825032230
         H            3.858925670834    -0.359181918120     0.532508955717     1.007825032230
         H           -1.204025329166     2.777396081880    -0.468380044283     1.007825032230

  Basis Set: AUG-CC-PVTZ
    Blend: AUG-CC-PVTZ
  Basis Set: (AUG-CC-PVTZ AUX)
    Blend: AUG-CC-PVTZ-JKFIT
	 Reference Energy          =    -512.5513137322839157 [Eh]
	 Singles Energy            =      -0.0000000000000000 [Eh]
	 Same-Spin Energy          =      -0.5369670640251439 [Eh]
	 Opposite-Spin Energy      =      -1.6457463178905951 [Eh]
	 Correlation Energy        =      -2.1827133819157392 [Eh]
	 Total Energy              =    -514.7340271141996482 [Eh]

	 ================> DF-SCS-MP2 Energies <==================
	-----------------------------------------------------------
	 SCS Same-Spin Scale       =       0.3333333333333333 [-]
	 SCS Opposite-Spin Scale   =       1.2000000000000000 [-]
	 SCS Same-Spin Energy      =      -0.1789890213417146 [Eh]
	 SCS Opposite-Spin Energy  =      -1.9748955814687141 [Eh]
	 SCS Correlation Energy    =      -2.1538846028104288 [Eh]
	 SCS Total Energy          =    -514.7051983350943374 [Eh]
	-----------------------------------------------------------

  Dipole Moment: [D]
     X:    -1.7251      Y:    -1.5835      Z:    -2.9750     Total:     3.7861

*** Psi4 exiting successfully. Buy a developer a beer!
