                               Psi4 1.4a3.dev225

  ==> Input File <==

--------------------------------------------------------------------------
#psi4
#
memory 32 gb

molecule  {
0 1
  O       -0.4983720     2.1660820    -0.3008080
  O        1.7439460     0.8852250     1.1595980
  N        2.0846670    -0.6693810    -0.4855240
  C       -0.1747200    -0.1425440     0.1301780
  C       -1.0501490     0.9240530    -0.1297870
  C       -0.6950920    -1.4344860     0.2644570
  C        1.2926210     0.1057900     0.3196980
  C       -2.4223480     0.6871570    -0.2466200
  C       -2.0666220    -1.6719060     0.1573390
  C       -2.9283400    -0.6051620    -0.0964900
  C        3.5272930    -0.5029810    -0.4769650
  H       -0.0118380    -2.2529100     0.4809780
  H       -3.0973410     1.5164000    -0.4561860
  H       -2.4584240    -2.6782030     0.2778980
  H       -3.9991860    -0.7724420    -0.1829770
  H        1.6564006    -1.0987551    -1.2702479
  H        3.8478870     0.3529870    -1.0808760
  H        3.9959260    -1.4118430    -0.8588240
  H        3.8425270    -0.3337350     0.5522170
  H       -1.2204240     2.8028430    -0.4486720
units angstrom
no_reorient  #important for SAPT in psi4, default
symmetry c1  #important for SAPT in psi4, default
}

set PROPERTIES_ORIGIN ["COM"]
properties('MP2/aug-cc-pvtz', properties = ['dipole'])
--------------------------------------------------------------------------

    Molecular point group: c1
  Charge       = 0
  Multiplicity = 1
  Basis Set: AUG-CC-PVTZ
    Blend: AUG-CC-PVTZ
  Basis Set: (AUG-CC-PVTZ AUX)
    Blend: AUG-CC-PVTZ-JKFIT

    Orbital Energies [Eh]
    ---------------------

    Doubly Occupied:

       1A    -20.597785     2A    -20.513171     3A    -15.582010
       4A    -11.350084     5A    -11.320473     6A    -11.257431
       7A    -11.256811     8A    -11.255999     9A    -11.249571
      10A    -11.246594    11A    -11.240446    12A     -1.410002
      13A     -1.367254    14A     -1.227736    15A     -1.160126
      16A     -1.046807    17A     -1.017735    18A     -0.950703
      19A     -0.865467    20A     -0.844792    21A     -0.786677
      22A     -0.742549    23A     -0.724430    24A     -0.675289
      25A     -0.648682    26A     -0.636242    27A     -0.619423
      28A     -0.612638    29A     -0.595796    30A     -0.586421
      31A     -0.575616    32A     -0.546107    33A     -0.535935
      34A     -0.522668    35A     -0.511233    36A     -0.489839
      37A     -0.421609    38A     -0.389164    39A     -0.354431
      40A     -0.326192

  @DF-RHF Final Energy:  -512.55252688659175

   => Energetics <=

    Nuclear Repulsion Energy =            587.2751435149206145
    One-Electron Energy =               -1863.5314641278630461
    Two-Electron Energy =                 763.7037937263507956
    Total Energy =                       -512.5525268865917496
  Basis Set: (AUG-CC-PVTZ AUX)
    Blend: AUG-CC-PVTZ-RI
    Molecular point group: c1

    Geometry (in Angstrom), charge = 0, multiplicity = 1:

       Center              X                  Y                   Z               Mass
    ------------   -----------------  -----------------  -----------------  -----------------
         O           -0.481702413273     2.140628635171    -0.320595088021    15.994914619570
         O            1.760615586727     0.859771635171     1.139810911979    15.994914619570
         N            2.101336586727    -0.694834364829    -0.505311088021    14.003074004430
         C           -0.158050413273    -0.167997364829     0.110390911979    12.000000000000
         C           -1.033479413273     0.898599635171    -0.149574088021    12.000000000000
         C           -0.678422413273    -1.459939364829     0.244669911979    12.000000000000
         C            1.309290586727     0.080336635171     0.299910911979    12.000000000000
         C           -2.405678413273     0.661703635171    -0.266407088021    12.000000000000
         C           -2.049952413273    -1.697359364829     0.137551911979    12.000000000000
         C           -2.911670413273    -0.630615364829    -0.116277088021    12.000000000000
         C            3.543962586727    -0.528434364829    -0.496752088021    12.000000000000
         H            0.004831586727    -2.278363364829     0.461190911979     1.007825032230
         H           -3.080671413273     1.490946635171    -0.475973088021     1.007825032230
         H           -2.441754413273    -2.703656364829     0.258110911979     1.007825032230
         H           -3.982516413273    -0.797895364829    -0.202764088021     1.007825032230
         H            1.673070186727    -1.124208464829    -1.290034988021     1.007825032230
         H            3.864556586727     0.327533635171    -1.100663088021     1.007825032230
         H            4.012595586727    -1.437296364829    -0.878611088021     1.007825032230
         H            3.859196586727    -0.359188364829     0.532429911979     1.007825032230
         H           -1.203754413273     2.777389635171    -0.468459088021     1.007825032230

  Basis Set: AUG-CC-PVTZ
    Blend: AUG-CC-PVTZ
  Basis Set: (AUG-CC-PVTZ AUX)
    Blend: AUG-CC-PVTZ-JKFIT
	 Reference Energy          =    -512.5525268865917496 [Eh]
	 Singles Energy            =      -0.0000000000000000 [Eh]
	 Same-Spin Energy          =      -0.5368937702216979 [Eh]
	 Opposite-Spin Energy      =      -1.6457087027479280 [Eh]
	 Correlation Energy        =      -2.1826024729696258 [Eh]
	 Total Energy              =    -514.7351293595613697 [Eh]

	 ================> DF-SCS-MP2 Energies <==================
	-----------------------------------------------------------
	 SCS Same-Spin Scale       =       0.3333333333333333 [-]
	 SCS Opposite-Spin Scale   =       1.2000000000000000 [-]
	 SCS Same-Spin Energy      =      -0.1789645900738993 [Eh]
	 SCS Opposite-Spin Energy  =      -1.9748504432975136 [Eh]
	 SCS Correlation Energy    =      -2.1538150333714130 [Eh]
	 SCS Total Energy          =    -514.7063419199631653 [Eh]
	-----------------------------------------------------------

  Dipole Moment: [D]
     X:    -1.7098      Y:    -1.5732      Z:    -2.9607     Total:     3.7635

*** Psi4 exiting successfully. Buy a developer a beer!
