                               Psi4 1.4a3.dev225

  ==> Input File <==

--------------------------------------------------------------------------
#psi4
#
memory 32 gb

molecule  {
0 1
  O       -0.4983720     2.1660820    -0.3008080
  O        1.7439460     0.8852250     1.1595980
  N        2.0846670    -0.6693810    -0.4855240
  C       -0.1747200    -0.1425440     0.1301780
  C       -1.0501490     0.9240530    -0.1297870
  C       -0.6950920    -1.4344860     0.2644570
  C        1.3121675     0.1167858     0.3279842
  C       -2.4223480     0.6871570    -0.2466200
  C       -2.0666220    -1.6719060     0.1573390
  C       -2.9283400    -0.6051620    -0.0964900
  C        3.5272930    -0.5029810    -0.4769650
  H       -0.0118380    -2.2529100     0.4809780
  H       -3.0973410     1.5164000    -0.4561860
  H       -2.4584240    -2.6782030     0.2778980
  H       -3.9991860    -0.7724420    -0.1829770
  H        1.6477640    -1.1074140    -1.2860730
  H        3.8478870     0.3529870    -1.0808760
  H        3.9959260    -1.4118430    -0.8588240
  H        3.8425270    -0.3337350     0.5522170
  H       -1.2204240     2.8028430    -0.4486720
units angstrom
no_reorient  #important for SAPT in psi4, default
symmetry c1  #important for SAPT in psi4, default
}

set PROPERTIES_ORIGIN ["COM"]
properties('MP2/aug-cc-pvtz', properties = ['dipole'])
--------------------------------------------------------------------------

    Molecular point group: c1
  Charge       = 0
  Multiplicity = 1
  Basis Set: AUG-CC-PVTZ
    Blend: AUG-CC-PVTZ
  Basis Set: (AUG-CC-PVTZ AUX)
    Blend: AUG-CC-PVTZ-JKFIT

    Orbital Energies [Eh]
    ---------------------

    Doubly Occupied:

       1A    -20.596977     2A    -20.516465     3A    -15.582938
       4A    -11.349670     5A    -11.318601     6A    -11.255712
       7A    -11.255706     8A    -11.255251     9A    -11.248663
      10A    -11.245455    11A    -11.239329    12A     -1.409403
      13A     -1.379620    14A     -1.227600    15A     -1.158263
      16A     -1.043384    17A     -1.016257    18A     -0.949133
      19A     -0.862768    20A     -0.841699    21A     -0.784170
      22A     -0.741239    23A     -0.722225    24A     -0.674363
      25A     -0.647082    26A     -0.639219    27A     -0.620558
      28A     -0.612047    29A     -0.595762    30A     -0.585199
      31A     -0.575661    32A     -0.546585    33A     -0.536961
      34A     -0.524762    35A     -0.512188    36A     -0.489546
      37A     -0.421601    38A     -0.391053    39A     -0.353075
      40A     -0.324955

  @DF-RHF Final Energy:  -512.55316996411307

   => Energetics <=

    Nuclear Repulsion Energy =            587.1327766530051804
    One-Electron Energy =               -1863.2695997795653966
    Two-Electron Energy =                 763.5836531624470354
    Total Energy =                       -512.5531699641130672
  Basis Set: (AUG-CC-PVTZ AUX)
    Blend: AUG-CC-PVTZ-RI
    Molecular point group: c1

    Geometry (in Angstrom), charge = 0, multiplicity = 1:

       Center              X                  Y                   Z               Mass
    ------------   -----------------  -----------------  -----------------  -----------------
         O           -0.483197506891     2.139812931287    -0.321147740137    15.994914619570
         O            1.759120493109     0.858955931287     1.139258259863    15.994914619570
         N            2.099841493109    -0.695650068713    -0.505863740137    14.003074004430
         C           -0.159545506891    -0.168813068713     0.109838259863    12.000000000000
         C           -1.034974506891     0.897783931287    -0.150126740137    12.000000000000
         C           -0.679917506891    -1.460755068713     0.244117259863    12.000000000000
         C            1.327341993109     0.090516731287     0.307644459863    12.000000000000
         C           -2.407173506891     0.660887931287    -0.266959740137    12.000000000000
         C           -2.051447506891    -1.698175068713     0.136999259863    12.000000000000
         C           -2.913165506891    -0.631431068713    -0.116829740137    12.000000000000
         C            3.542467493109    -0.529250068713    -0.497304740137    12.000000000000
         H            0.003336493109    -2.279179068713     0.460638259863     1.007825032230
         H           -3.082166506891     1.490130931287    -0.476525740137     1.007825032230
         H           -2.443249506891    -2.704472068713     0.257558259863     1.007825032230
         H           -3.984011506891    -0.798711068713    -0.203316740137     1.007825032230
         H            1.662938493109    -1.133683068713    -1.306412740137     1.007825032230
         H            3.863061493109     0.326717931287    -1.101215740137     1.007825032230
         H            4.011100493109    -1.438112068713    -0.879163740137     1.007825032230
         H            3.857701493109    -0.360004068713     0.531877259863     1.007825032230
         H           -1.205249506891     2.776573931287    -0.469011740137     1.007825032230

  Basis Set: AUG-CC-PVTZ
    Blend: AUG-CC-PVTZ
  Basis Set: (AUG-CC-PVTZ AUX)
    Blend: AUG-CC-PVTZ-JKFIT
	 Reference Energy          =    -512.5531699641130672 [Eh]
	 Singles Energy            =      -0.0000000000000000 [Eh]
	 Same-Spin Energy          =      -0.5365179741964853 [Eh]
	 Opposite-Spin Energy      =      -1.6449927409970440 [Eh]
	 Correlation Energy        =      -2.1815107151935291 [Eh]
	 Total Energy              =    -514.7346806793066207 [Eh]

	 ================> DF-SCS-MP2 Energies <==================
	-----------------------------------------------------------
	 SCS Same-Spin Scale       =       0.3333333333333333 [-]
	 SCS Opposite-Spin Scale   =       1.2000000000000000 [-]
	 SCS Same-Spin Energy      =      -0.1788393247321617 [Eh]
	 SCS Opposite-Spin Energy  =      -1.9739912891964526 [Eh]
	 SCS Correlation Energy    =      -2.1528306139286144 [Eh]
	 SCS Total Energy          =    -514.7060005780416532 [Eh]
	-----------------------------------------------------------

  Dipole Moment: [D]
     X:    -1.5905      Y:    -1.5195      Z:    -2.9057     Total:     3.6444

*** Psi4 exiting successfully. Buy a developer a beer!
