                               Psi4 1.4a3.dev225

  ==> Input File <==

--------------------------------------------------------------------------
#psi4
#
memory 32 gb

molecule  {
0 1
  O       -0.4983720     2.1660820    -0.3008080
  O        1.7439460     0.8852250     1.1595980
  N        2.0846670    -0.6693810    -0.4855240
  C       -0.1747200    -0.1425440     0.1301780
  C       -1.0501490     0.9240530    -0.1297870
  C       -0.6950920    -1.4344860     0.2644570
  C        1.2542578     0.0830934     0.3023924
  C       -2.4223480     0.6871570    -0.2466200
  C       -2.0666220    -1.6719060     0.1573390
  C       -2.9283400    -0.6051620    -0.0964900
  C        3.5272930    -0.5029810    -0.4769650
  H       -0.0118380    -2.2529100     0.4809780
  H       -3.0973410     1.5164000    -0.4561860
  H       -2.4584240    -2.6782030     0.2778980
  H       -3.9991860    -0.7724420    -0.1829770
  H        1.6477640    -1.1074140    -1.2860730
  H        3.8478870     0.3529870    -1.0808760
  H        3.9959260    -1.4118430    -0.8588240
  H        3.8425270    -0.3337350     0.5522170
  H       -1.2204240     2.8028430    -0.4486720
units angstrom
no_reorient  #important for SAPT in psi4, default
symmetry c1  #important for SAPT in psi4, default
}

set PROPERTIES_ORIGIN ["COM"]
properties('MP2/aug-cc-pvtz', properties = ['dipole'])
--------------------------------------------------------------------------

    Molecular point group: c1
  Charge       = 0
  Multiplicity = 1
  Basis Set: AUG-CC-PVTZ
    Blend: AUG-CC-PVTZ
  Basis Set: (AUG-CC-PVTZ AUX)
    Blend: AUG-CC-PVTZ-JKFIT

    Orbital Energies [Eh]
    ---------------------

    Doubly Occupied:

       1A    -20.599141     2A    -20.506418     3A    -15.586258
       4A    -11.350851     5A    -11.323895     6A    -11.260482
       7A    -11.259651     8A    -11.256692     9A    -11.250395
      10A    -11.248635    11A    -11.242438    12A     -1.411228
      13A     -1.343927    14A     -1.219708    15A     -1.163513
      16A     -1.053649    17A     -1.020373    18A     -0.952607
      19A     -0.870362    20A     -0.849179    21A     -0.781662
      22A     -0.744077    23A     -0.726424    24A     -0.677084
      25A     -0.650873    26A     -0.632816    27A     -0.618504
      28A     -0.611595    29A     -0.595820    30A     -0.587871
      31A     -0.573752    32A     -0.542234    33A     -0.534962
      34A     -0.520450    35A     -0.507845    36A     -0.488687
      37A     -0.418850    38A     -0.383926    39A     -0.356471
      40A     -0.328301

  @DF-RHF Final Energy:  -512.54471240910095

   => Energetics <=

    Nuclear Repulsion Energy =            587.2486947697971118
    One-Electron Energy =               -1863.4836043889019948
    Two-Electron Energy =                 763.6901972100039302
    Total Energy =                       -512.5447124091009528
  Basis Set: (AUG-CC-PVTZ AUX)
    Blend: AUG-CC-PVTZ-RI
    Molecular point group: c1

    Geometry (in Angstrom), charge = 0, multiplicity = 1:

       Center              X                  Y                   Z               Mass
    ------------   -----------------  -----------------  -----------------  -----------------
         O           -0.478597340810     2.142489350534    -0.319114807307    15.994914619570
         O            1.763720659190     0.861632350534     1.141291192693    15.994914619570
         N            2.104441659190    -0.692973649466    -0.503830807307    14.003074004430
         C           -0.154945340810    -0.166136649466     0.111871192693    12.000000000000
         C           -1.030374340810     0.900460350534    -0.148093807307    12.000000000000
         C           -0.675317340810    -1.458078649466     0.246150192693    12.000000000000
         C            1.274032459190     0.059500750534     0.284085592693    12.000000000000
         C           -2.402573340810     0.663564350534    -0.264926807307    12.000000000000
         C           -2.046847340810    -1.695498649466     0.139032192693    12.000000000000
         C           -2.908565340810    -0.628754649466    -0.114796807307    12.000000000000
         C            3.547067659190    -0.526573649466    -0.495271807307    12.000000000000
         H            0.007936659190    -2.276502649466     0.462671192693     1.007825032230
         H           -3.077566340810     1.492807350534    -0.474492807307     1.007825032230
         H           -2.438649340810    -2.701795649466     0.259591192693     1.007825032230
         H           -3.979411340810    -0.796034649466    -0.201283807307     1.007825032230
         H            1.667538659190    -1.131006649466    -1.304379807307     1.007825032230
         H            3.867661659190     0.329394350534    -1.099182807307     1.007825032230
         H            4.015700659190    -1.435435649466    -0.877130807307     1.007825032230
         H            3.862301659190    -0.357327649466     0.533910192693     1.007825032230
         H           -1.200649340810     2.779250350534    -0.466978807307     1.007825032230

  Basis Set: AUG-CC-PVTZ
    Blend: AUG-CC-PVTZ
  Basis Set: (AUG-CC-PVTZ AUX)
    Blend: AUG-CC-PVTZ-JKFIT
	 Reference Energy          =    -512.5447124091009528 [Eh]
	 Singles Energy            =      -0.0000000000000000 [Eh]
	 Same-Spin Energy          =      -0.5382889162673894 [Eh]
	 Opposite-Spin Energy      =      -1.6485049776355305 [Eh]
	 Correlation Energy        =      -2.1867938939029199 [Eh]
	 Total Energy              =    -514.7315063030039255 [Eh]

	 ================> DF-SCS-MP2 Energies <==================
	-----------------------------------------------------------
	 SCS Same-Spin Scale       =       0.3333333333333333 [-]
	 SCS Opposite-Spin Scale   =       1.2000000000000000 [-]
	 SCS Same-Spin Energy      =      -0.1794296387557965 [Eh]
	 SCS Opposite-Spin Energy  =      -1.9782059731626365 [Eh]
	 SCS Correlation Energy    =      -2.1576356119184328 [Eh]
	 SCS Total Energy          =    -514.7023480210193611 [Eh]
	-----------------------------------------------------------

  Dipole Moment: [D]
     X:    -1.9215      Y:    -1.6961      Z:    -3.1063     Total:     4.0271

*** Psi4 exiting successfully. Buy a developer a beer!
