                               Psi4 1.4a3.dev225

  ==> Input File <==

--------------------------------------------------------------------------
#psi4
#
memory 32 gb

molecule  {
0 1
  O       -0.4983720     2.1660820    -0.3008080
  O        1.7439460     0.8852250     1.1595980
  N        2.0846670    -0.6693810    -0.4855240
  C       -0.1747200    -0.1425440     0.1301780
  C       -1.0501490     0.9240530    -0.1297870
  C       -0.6990738    -1.4108240     0.2602238
  C        1.2926210     0.1057900     0.3196980
  C       -2.4223480     0.6871570    -0.2466200
  C       -2.0666220    -1.6719060     0.1573390
  C       -2.9283400    -0.6051620    -0.0964900
  C        3.5272930    -0.5029810    -0.4769650
  H       -0.0118380    -2.2529100     0.4809780
  H       -3.0973410     1.5164000    -0.4561860
  H       -2.4584240    -2.6782030     0.2778980
  H       -3.9991860    -0.7724420    -0.1829770
  H        1.6477640    -1.1074140    -1.2860730
  H        3.8478870     0.3529870    -1.0808760
  H        3.9959260    -1.4118430    -0.8588240
  H        3.8425270    -0.3337350     0.5522170
  H       -1.2204240     2.8028430    -0.4486720
units angstrom
no_reorient  #important for SAPT in psi4, default
symmetry c1  #important for SAPT in psi4, default
}

set PROPERTIES_ORIGIN ["COM"]
properties('MP2/aug-cc-pvtz', properties = ['dipole'])
--------------------------------------------------------------------------

    Molecular point group: c1
  Charge       = 0
  Multiplicity = 1
  Basis Set: AUG-CC-PVTZ
    Blend: AUG-CC-PVTZ
  Basis Set: (AUG-CC-PVTZ AUX)
    Blend: AUG-CC-PVTZ-JKFIT

    Orbital Energies [Eh]
    ---------------------

    Doubly Occupied:

       1A    -20.597896     2A    -20.513553     3A    -15.584137
       4A    -11.350558     5A    -11.320598     6A    -11.256665
       7A    -11.256432     8A    -11.256122     9A    -11.247734
      10A    -11.245673    11A    -11.239815    12A     -1.410112
      13A     -1.367440    14A     -1.225641    15A     -1.162243
      16A     -1.048605    17A     -1.016808    18A     -0.950659
      19A     -0.863841    20A     -0.845353    21A     -0.783923
      22A     -0.741515    23A     -0.723654    24A     -0.676014
      25A     -0.648392    26A     -0.636436    27A     -0.618138
      28A     -0.611028    29A     -0.596085    30A     -0.585519
      31A     -0.576583    32A     -0.545379    33A     -0.536586
      34A     -0.522043    35A     -0.509428    36A     -0.490847
      37A     -0.422014    38A     -0.388955    39A     -0.356507
      40A     -0.325562

  @DF-RHF Final Energy:  -512.55161868080700

   => Energetics <=

    Nuclear Repulsion Energy =            587.6047401741368503
    One-Electron Energy =               -1864.2037333305534048
    Two-Electron Energy =                 764.0473744756095584
    Total Energy =                       -512.5516186808069961
  Basis Set: (AUG-CC-PVTZ AUX)
    Blend: AUG-CC-PVTZ-RI
    Molecular point group: c1

    Geometry (in Angstrom), charge = 0, multiplicity = 1:

       Center              X                  Y                   Z               Mass
    ------------   -----------------  -----------------  -----------------  -----------------
         O           -0.481328492069     2.138806767836    -0.320153238020    15.994914619570
         O            1.760989507931     0.857949767836     1.140252761980    15.994914619570
         N            2.101710507931    -0.696656232164    -0.504869238020    14.003074004430
         C           -0.157676492069    -0.169819232164     0.110832761980    12.000000000000
         C           -1.033105492069     0.896777767836    -0.149132238020    12.000000000000
         C           -0.682030292069    -1.438099232164     0.240878561980    12.000000000000
         C            1.309664507931     0.078514767836     0.300352761980    12.000000000000
         C           -2.405304492069     0.659881767836    -0.265965238020    12.000000000000
         C           -2.049578492069    -1.699181232164     0.137993761980    12.000000000000
         C           -2.911296492069    -0.632437232164    -0.115835238020    12.000000000000
         C            3.544336507931    -0.530256232164    -0.496310238020    12.000000000000
         H            0.005205507931    -2.280185232164     0.461632761980     1.007825032230
         H           -3.080297492069     1.489124767836    -0.475531238020     1.007825032230
         H           -2.441380492069    -2.705478232164     0.258552761980     1.007825032230
         H           -3.982142492069    -0.799717232164    -0.202322238020     1.007825032230
         H            1.664807507931    -1.134689232164    -1.305418238020     1.007825032230
         H            3.864930507931     0.325711767836    -1.100221238020     1.007825032230
         H            4.012969507931    -1.439118232164    -0.878169238020     1.007825032230
         H            3.859570507931    -0.361010232164     0.532871761980     1.007825032230
         H           -1.203380492069     2.775567767836    -0.468017238020     1.007825032230

  Basis Set: AUG-CC-PVTZ
    Blend: AUG-CC-PVTZ
  Basis Set: (AUG-CC-PVTZ AUX)
    Blend: AUG-CC-PVTZ-JKFIT
	 Reference Energy          =    -512.5516186808069961 [Eh]
	 Singles Energy            =      -0.0000000000000000 [Eh]
	 Same-Spin Energy          =      -0.5370210446173681 [Eh]
	 Opposite-Spin Energy      =      -1.6459712351793880 [Eh]
	 Correlation Energy        =      -2.1829922797967560 [Eh]
	 Total Energy              =    -514.7346109606037317 [Eh]

	 ================> DF-SCS-MP2 Energies <==================
	-----------------------------------------------------------
	 SCS Same-Spin Scale       =       0.3333333333333333 [-]
	 SCS Opposite-Spin Scale   =       1.2000000000000000 [-]
	 SCS Same-Spin Energy      =      -0.1790070148724560 [Eh]
	 SCS Opposite-Spin Energy  =      -1.9751654822152656 [Eh]
	 SCS Correlation Energy    =      -2.1541724970877216 [Eh]
	 SCS Total Energy          =    -514.7057911778947528 [Eh]
	-----------------------------------------------------------

  Dipole Moment: [D]
     X:    -1.6944      Y:    -1.5746      Z:    -2.9758     Total:     3.7691

*** Psi4 exiting successfully. Buy a developer a beer!
