                               Psi4 1.4a3.dev225

  ==> Input File <==

--------------------------------------------------------------------------
#psi4
#
memory 32 gb

molecule  {
0 1
  O       -0.4983720     2.1660820    -0.3008080
  O        1.7439460     0.8852250     1.1595980
  N        2.0846670    -0.6693810    -0.4855240
  C       -0.1747200    -0.1425440     0.1301780
  C       -1.0501490     0.9240530    -0.1297870
  C       -0.6950920    -1.4344860     0.2644570
  C        1.2926210     0.1057900     0.3196980
  C       -2.4223480     0.6871570    -0.2466200
  C       -2.0666220    -1.6719060     0.1573390
  C       -2.9283400    -0.6051620    -0.0964900
  C        3.5272930    -0.5029810    -0.4769650
  H        0.0007229    -2.2679559     0.4849585
  H       -3.0973410     1.5164000    -0.4561860
  H       -2.4584240    -2.6782030     0.2778980
  H       -3.9991860    -0.7724420    -0.1829770
  H        1.6477640    -1.1074140    -1.2860730
  H        3.8478870     0.3529870    -1.0808760
  H        3.9959260    -1.4118430    -0.8588240
  H        3.8425270    -0.3337350     0.5522170
  H       -1.2204240     2.8028430    -0.4486720
units angstrom
no_reorient  #important for SAPT in psi4, default
symmetry c1  #important for SAPT in psi4, default
}

set PROPERTIES_ORIGIN ["COM"]
properties('MP2/aug-cc-pvtz', properties = ['dipole'])
--------------------------------------------------------------------------

    Molecular point group: c1
  Charge       = 0
  Multiplicity = 1
  Basis Set: AUG-CC-PVTZ
    Blend: AUG-CC-PVTZ
  Basis Set: (AUG-CC-PVTZ AUX)
    Blend: AUG-CC-PVTZ-JKFIT

    Orbital Energies [Eh]
    ---------------------

    Doubly Occupied:

       1A    -20.597806     2A    -20.513112     3A    -15.583842
       4A    -11.350043     5A    -11.320521     6A    -11.259577
       7A    -11.256866     8A    -11.255948     9A    -11.249682
      10A    -11.246609    11A    -11.240564    12A     -1.410017
      13A     -1.367030    14A     -1.225284    15A     -1.159981
      16A     -1.046564    17A     -1.017378    18A     -0.950201
      19A     -0.864404    20A     -0.844097    21A     -0.783141
      22A     -0.741079    23A     -0.723417    24A     -0.675100
      25A     -0.648373    26A     -0.636073    27A     -0.618375
      28A     -0.611408    29A     -0.595809    30A     -0.585758
      31A     -0.575325    32A     -0.545191    33A     -0.535556
      34A     -0.522339    35A     -0.510635    36A     -0.489865
      37A     -0.421493    38A     -0.388749    39A     -0.354419
      40A     -0.326234

  @DF-RHF Final Energy:  -512.55142052719452

   => Energetics <=

    Nuclear Repulsion Energy =            587.0629801569214123
    One-Electron Energy =               -1863.1330778654410096
    Two-Electron Energy =                 763.5186771813250743
    Total Energy =                       -512.5514205271945229
  Basis Set: (AUG-CC-PVTZ AUX)
    Blend: AUG-CC-PVTZ-RI
    Molecular point group: c1

    Geometry (in Angstrom), charge = 0, multiplicity = 1:

       Center              X                  Y                   Z               Mass
    ------------   -----------------  -----------------  -----------------  -----------------
         O           -0.481728594398     2.140786782692    -0.320516066299    15.994914619570
         O            1.760589405602     0.859929782692     1.139889933701    15.994914619570
         N            2.101310405602    -0.694676217308    -0.505232066299    14.003074004430
         C           -0.158076594398    -0.167839217308     0.110469933701    12.000000000000
         C           -1.033505594398     0.898757782692    -0.149495066299    12.000000000000
         C           -0.678448594398    -1.459781217308     0.244748933701    12.000000000000
         C            1.309264405602     0.080494782692     0.299989933701    12.000000000000
         C           -2.405704594398     0.661861782692    -0.266328066299    12.000000000000
         C           -2.049978594398    -1.697201217308     0.137630933701    12.000000000000
         C           -2.911696594398    -0.630457217308    -0.116198066299    12.000000000000
         C            3.543936405602    -0.528276217308    -0.496673066299    12.000000000000
         H            0.017366305602    -2.293251117308     0.465250433701     1.007825032230
         H           -3.080697594398     1.491104782692    -0.475894066299     1.007825032230
         H           -2.441780594398    -2.703498217308     0.258189933701     1.007825032230
         H           -3.982542594398    -0.797737217308    -0.202685066299     1.007825032230
         H            1.664407405602    -1.132709217308    -1.305781066299     1.007825032230
         H            3.864530405602     0.327691782692    -1.100584066299     1.007825032230
         H            4.012569405602    -1.437138217308    -0.878532066299     1.007825032230
         H            3.859170405602    -0.359030217308     0.532508933701     1.007825032230
         H           -1.203780594398     2.777547782692    -0.468380066299     1.007825032230

  Basis Set: AUG-CC-PVTZ
    Blend: AUG-CC-PVTZ
  Basis Set: (AUG-CC-PVTZ AUX)
    Blend: AUG-CC-PVTZ-JKFIT
	 Reference Energy          =    -512.5514205271945229 [Eh]
	 Singles Energy            =      -0.0000000000000000 [Eh]
	 Same-Spin Energy          =      -0.5371002537857057 [Eh]
	 Opposite-Spin Energy      =      -1.6462157044593422 [Eh]
	 Correlation Energy        =      -2.1833159582450481 [Eh]
	 Total Energy              =    -514.7347364854396119 [Eh]

	 ================> DF-SCS-MP2 Energies <==================
	-----------------------------------------------------------
	 SCS Same-Spin Scale       =       0.3333333333333333 [-]
	 SCS Opposite-Spin Scale   =       1.2000000000000000 [-]
	 SCS Same-Spin Energy      =      -0.1790334179285686 [Eh]
	 SCS Opposite-Spin Energy  =      -1.9754588453512105 [Eh]
	 SCS Correlation Energy    =      -2.1544922632797792 [Eh]
	 SCS Total Energy          =    -514.7059127904742581 [Eh]
	-----------------------------------------------------------

  Dipole Moment: [D]
     X:    -1.7122      Y:    -1.5768      Z:    -2.9747     Total:     3.7771

*** Psi4 exiting successfully. Buy a developer a beer!
