                               Psi4 1.4a3.dev225

  ==> Input File <==

--------------------------------------------------------------------------
#psi4
#
memory 32 gb

molecule  {
0 1
  O       -0.4983720     2.1660820    -0.3008080
  O        1.7439460     0.8852250     1.1595980
  N        2.0846670    -0.6693810    -0.4855240
  C       -0.1747200    -0.1425440     0.1301780
  C       -1.0934771     0.9434264    -0.1355650
  C       -0.6950920    -1.4344860     0.2644570
  C        1.2926210     0.1057900     0.3196980
  C       -2.4223480     0.6871570    -0.2466200
  C       -2.0666220    -1.6719060     0.1573390
  C       -2.9283400    -0.6051620    -0.0964900
  C        3.5272930    -0.5029810    -0.4769650
  H       -0.0118380    -2.2529100     0.4809780
  H       -3.0973410     1.5164000    -0.4561860
  H       -2.4584240    -2.6782030     0.2778980
  H       -3.9991860    -0.7724420    -0.1829770
  H        1.6477640    -1.1074140    -1.2860730
  H        3.8478870     0.3529870    -1.0808760
  H        3.9959260    -1.4118430    -0.8588240
  H        3.8425270    -0.3337350     0.5522170
  H       -1.2204240     2.8028430    -0.4486720
units angstrom
no_reorient  #important for SAPT in psi4, default
symmetry c1  #important for SAPT in psi4, default
}

set PROPERTIES_ORIGIN ["COM"]
properties('MP2/aug-cc-pvtz', properties = ['dipole'])
--------------------------------------------------------------------------

    Molecular point group: c1
  Charge       = 0
  Multiplicity = 1
  Basis Set: AUG-CC-PVTZ
    Blend: AUG-CC-PVTZ
  Basis Set: (AUG-CC-PVTZ AUX)
    Blend: AUG-CC-PVTZ-JKFIT

    Orbital Energies [Eh]
    ---------------------

    Doubly Occupied:

       1A    -20.599428     2A    -20.512788     3A    -15.583771
       4A    -11.350226     5A    -11.319802     6A    -11.257184
       7A    -11.256748     8A    -11.255863     9A    -11.253508
      10A    -11.242000    11A    -11.240497    12A     -1.411688
      13A     -1.366780    14A     -1.225074    15A     -1.159754
      16A     -1.045637    17A     -1.019993    18A     -0.949435
      19A     -0.865970    20A     -0.842681    21A     -0.783651
      22A     -0.739499    23A     -0.725708    24A     -0.676076
      25A     -0.643607    26A     -0.634122    27A     -0.619099
      28A     -0.613970    29A     -0.596728    30A     -0.587101
      31A     -0.576180    32A     -0.545054    33A     -0.537971
      34A     -0.523943    35A     -0.506811    36A     -0.490035
      37A     -0.421735    38A     -0.388590    39A     -0.356015
      40A     -0.325057

  @DF-RHF Final Energy:  -512.54871211283989

   => Energetics <=

    Nuclear Repulsion Energy =            586.7860010841724261
    One-Electron Energy =               -1862.5698714390528039
    Two-Electron Energy =                 763.2351582420405975
    Total Energy =                       -512.5487121128398940
  Basis Set: (AUG-CC-PVTZ AUX)
    Blend: AUG-CC-PVTZ-RI
    Molecular point group: c1

    Geometry (in Angstrom), charge = 0, multiplicity = 1:

       Center              X                  Y                   Z               Mass
    ------------   -----------------  -----------------  -----------------  -----------------
         O           -0.478202944628     2.139147440854    -0.320030523923    15.994914619570
         O            1.764115055372     0.858290440854     1.140375476077    15.994914619570
         N            2.104836055372    -0.696315559146    -0.504746523923    14.003074004430
         C           -0.154550944628    -0.169478559146     0.110955476077    12.000000000000
         C           -1.073308044628     0.916491840854    -0.154787523923    12.000000000000
         C           -0.674922944628    -1.461420559146     0.245234476077    12.000000000000
         C            1.312790055372     0.078855440854     0.300475476077    12.000000000000
         C           -2.402178944628     0.660222440854    -0.265842523923    12.000000000000
         C           -2.046452944628    -1.698840559146     0.138116476077    12.000000000000
         C           -2.908170944628    -0.632096559146    -0.115712523923    12.000000000000
         C            3.547462055372    -0.529915559146    -0.496187523923    12.000000000000
         H            0.008331055372    -2.279844559146     0.461755476077     1.007825032230
         H           -3.077171944628     1.489465440854    -0.475408523923     1.007825032230
         H           -2.438254944628    -2.705137559146     0.258675476077     1.007825032230
         H           -3.979016944628    -0.799376559146    -0.202199523923     1.007825032230
         H            1.667933055372    -1.134348559146    -1.305295523923     1.007825032230
         H            3.868056055372     0.326052440854    -1.100098523923     1.007825032230
         H            4.016095055372    -1.438777559146    -0.878046523923     1.007825032230
         H            3.862696055372    -0.360669559146     0.532994476077     1.007825032230
         H           -1.200254944628     2.775908440854    -0.467894523923     1.007825032230

  Basis Set: AUG-CC-PVTZ
    Blend: AUG-CC-PVTZ
  Basis Set: (AUG-CC-PVTZ AUX)
    Blend: AUG-CC-PVTZ-JKFIT
	 Reference Energy          =    -512.5487121128398940 [Eh]
	 Singles Energy            =      -0.0000000000000000 [Eh]
	 Same-Spin Energy          =      -0.5370765885473697 [Eh]
	 Opposite-Spin Energy      =      -1.6464576365794850 [Eh]
	 Correlation Energy        =      -2.1835342251268548 [Eh]
	 Total Energy              =    -514.7322463379667852 [Eh]

	 ================> DF-SCS-MP2 Energies <==================
	-----------------------------------------------------------
	 SCS Same-Spin Scale       =       0.3333333333333333 [-]
	 SCS Opposite-Spin Scale   =       1.2000000000000000 [-]
	 SCS Same-Spin Energy      =      -0.1790255295157899 [Eh]
	 SCS Opposite-Spin Energy  =      -1.9757491638953819 [Eh]
	 SCS Correlation Energy    =      -2.1547746934111718 [Eh]
	 SCS Total Energy          =    -514.7034868062510213 [Eh]
	-----------------------------------------------------------

  Dipole Moment: [D]
     X:    -1.7126      Y:    -1.5631      Z:    -2.9791     Total:     3.7751

*** Psi4 exiting successfully. Buy a developer a beer!
