                               Psi4 1.4a3.dev225

  ==> Input File <==

--------------------------------------------------------------------------
#psi4
#
memory 32 gb

molecule  {
0 1
  O       -0.4983720     2.1660820    -0.3008080
  O        1.7439460     0.8852250     1.1595980
  N        2.0846670    -0.6693810    -0.4855240
  C       -0.1747200    -0.1425440     0.1301780
  C       -1.0501490     0.9240530    -0.1297870
  C       -0.6950920    -1.4344860     0.2644570
  C        1.2926210     0.1057900     0.3196980
  C       -2.4223480     0.6871570    -0.2466200
  C       -2.0666220    -1.6719060     0.1573390
  C       -2.9283400    -0.6051620    -0.0964900
  C        3.5272930    -0.5029810    -0.4769650
  H       -0.0118380    -2.2529100     0.4809780
  H       -3.0973410     1.5164000    -0.4561860
  H       -2.4584240    -2.6782030     0.2778980
  H       -3.9991860    -0.7724420    -0.1829770
  H        1.6477640    -1.1074140    -1.2860730
  H        3.8478870     0.3529870    -1.0808760
  H        3.9959260    -1.4118430    -0.8588240
  H        3.8425270    -0.3337350     0.5522170
  H       -1.2055976     2.7897679    -0.4456358
units angstrom
no_reorient  #important for SAPT in psi4, default
symmetry c1  #important for SAPT in psi4, default
}

set PROPERTIES_ORIGIN ["COM"]
properties('MP2/aug-cc-pvtz', properties = ['dipole'])
--------------------------------------------------------------------------

    Molecular point group: c1
  Charge       = 0
  Multiplicity = 1
  Basis Set: AUG-CC-PVTZ
    Blend: AUG-CC-PVTZ
  Basis Set: (AUG-CC-PVTZ AUX)
    Blend: AUG-CC-PVTZ-JKFIT

    Orbital Energies [Eh]
    ---------------------

    Doubly Occupied:

       1A    -20.596066     2A    -20.513196     3A    -15.583991
       4A    -11.350126     5A    -11.320567     6A    -11.257420
       7A    -11.256852     8A    -11.256036     9A    -11.249624
      10A    -11.246726    11A    -11.240559    12A     -1.414174
      13A     -1.367217    14A     -1.225416    15A     -1.160420
      16A     -1.046900    17A     -1.018397    18A     -0.950414
      19A     -0.865674    20A     -0.845600    21A     -0.783271
      22A     -0.744449    23A     -0.724670    24A     -0.675545
      25A     -0.648718    26A     -0.636212    27A     -0.619613
      28A     -0.612700    29A     -0.596308    30A     -0.586742
      31A     -0.576007    32A     -0.545284    33A     -0.536028
      34A     -0.522926    35A     -0.511322    36A     -0.490013
      37A     -0.421592    38A     -0.388899    39A     -0.354432
      40A     -0.326392

  @DF-RHF Final Energy:  -512.55303345521645

   => Energetics <=

    Nuclear Repulsion Energy =            587.2957610997760867
    One-Electron Energy =               -1863.5645988298717839
    Two-Electron Energy =                 763.7158042748791331
    Total Energy =                       -512.5530334552164504
  Basis Set: (AUG-CC-PVTZ AUX)
    Blend: AUG-CC-PVTZ-RI
    Molecular point group: c1

    Geometry (in Angstrom), charge = 0, multiplicity = 1:

       Center              X                  Y                   Z               Mass
    ------------   -----------------  -----------------  -----------------  -----------------
         O           -0.481743708771     2.140773634421    -0.320509766364    15.994914619570
         O            1.760574291229     0.859916634421     1.139896233636    15.994914619570
         N            2.101295291229    -0.694689365579    -0.505225766364    14.003074004430
         C           -0.158091708771    -0.167852365579     0.110476233636    12.000000000000
         C           -1.033520708771     0.898744634421    -0.149488766364    12.000000000000
         C           -0.678463708771    -1.459794365579     0.244755233636    12.000000000000
         C            1.309249291229     0.080481634421     0.299996233636    12.000000000000
         C           -2.405719708771     0.661848634421    -0.266321766364    12.000000000000
         C           -2.049993708771    -1.697214365579     0.137637233636    12.000000000000
         C           -2.911711708771    -0.630470365579    -0.116191766364    12.000000000000
         C            3.543921291229    -0.528289365579    -0.496666766364    12.000000000000
         H            0.004790291229    -2.278218365579     0.461276233636     1.007825032230
         H           -3.080712708771     1.491091634421    -0.475887766364     1.007825032230
         H           -2.441795708771    -2.703511365579     0.258196233636     1.007825032230
         H           -3.982557708771    -0.797750365579    -0.202678766364     1.007825032230
         H            1.664392291229    -1.132722365579    -1.305774766364     1.007825032230
         H            3.864515291229     0.327678634421    -1.100577766364     1.007825032230
         H            4.012554291229    -1.437151365579    -0.878525766364     1.007825032230
         H            3.859155291229    -0.359043365579     0.532515233636     1.007825032230
         H           -1.188969308771     2.764459534421    -0.465337566364     1.007825032230

  Basis Set: AUG-CC-PVTZ
    Blend: AUG-CC-PVTZ
  Basis Set: (AUG-CC-PVTZ AUX)
    Blend: AUG-CC-PVTZ-JKFIT
	 Reference Energy          =    -512.5530334552164504 [Eh]
	 Singles Energy            =      -0.0000000000000000 [Eh]
	 Same-Spin Energy          =      -0.5367891740158615 [Eh]
	 Opposite-Spin Energy      =      -1.6454297402591764 [Eh]
	 Correlation Energy        =      -2.1822189142750377 [Eh]
	 Total Energy              =    -514.7352523694914908 [Eh]

	 ================> DF-SCS-MP2 Energies <==================
	-----------------------------------------------------------
	 SCS Same-Spin Scale       =       0.3333333333333333 [-]
	 SCS Opposite-Spin Scale   =       1.2000000000000000 [-]
	 SCS Same-Spin Energy      =      -0.1789297246719538 [Eh]
	 SCS Opposite-Spin Energy  =      -1.9745156883110115 [Eh]
	 SCS Correlation Energy    =      -2.1534454129829652 [Eh]
	 SCS Total Energy          =    -514.7064788681993832 [Eh]
	-----------------------------------------------------------

  Dipole Moment: [D]
     X:    -1.6999      Y:    -1.6015      Z:    -2.9706     Total:     3.7788

*** Psi4 exiting successfully. Buy a developer a beer!
