                               Psi4 1.4a3.dev225

  ==> Input File <==

--------------------------------------------------------------------------
#psi4
#
memory 32 gb

molecule  {
0 1
  N       -1.5932770    -0.7762670    -0.0000010
  N       -1.2433830     1.4240120     0.0000010
  N        0.9927230    -1.4534560     0.0000030
  C       -0.6561680     0.2207960     0.0000070
  C        0.7646460    -0.1168500     0.0000020
  C        1.7974510     0.8476430     0.0000020
  C       -2.8387770    -0.2049930    -0.0000090
  C       -2.5875250     1.1588080    -0.0000060
  C        3.1063280     0.3562510    -0.0000040
  C        1.5337640     2.3273650     0.0000030
  C       -4.1038310    -0.9929000     0.0000030
  C        3.3549510    -1.0153620    -0.0000030
  C        2.1687943    -1.8490476    -0.0000007
  H       -1.3380790    -1.7591850     0.0000060
  H       -3.3182890     1.9585790    -0.0000140
  H        3.9358980     1.0613790    -0.0000050
  H        0.9464400     2.6235720    -0.8719580
  H        0.9464450     2.6235710     0.8719680
  H        2.4827640     2.8719440     0.0000020
  H       -4.1845960    -1.6320300    -0.8856740
  H       -4.1845630    -1.6320460     0.8856710
  H       -4.9567250    -0.3101180     0.0000250
  H        4.3696920    -1.4037000    -0.0000080
  H        2.4020820    -2.9609650     0.0000010
units angstrom
no_reorient  #important for SAPT in psi4, default
symmetry c1  #important for SAPT in psi4, default
}

set PROPERTIES_ORIGIN ["COM"]
properties('MP2/aug-cc-pvtz', properties = ['dipole'])
--------------------------------------------------------------------------

    Molecular point group: c1
  Charge       = 0
  Multiplicity = 1
  Basis Set: AUG-CC-PVTZ
    Blend: AUG-CC-PVTZ
  Basis Set: (AUG-CC-PVTZ AUX)
    Blend: AUG-CC-PVTZ-JKFIT

    Orbital Energies [Eh]
    ---------------------

    Doubly Occupied:

       1A    -15.607684     2A    -15.566730     3A    -15.542806
       4A    -11.293208     5A    -11.287510     6A    -11.278656
       7A    -11.264706     8A    -11.255595     9A    -11.252387
      10A    -11.247394    11A    -11.237497    12A    -11.234595
      13A    -11.215421    14A     -1.336019    15A     -1.287351
      16A     -1.160200    17A     -1.105945    18A     -1.070076
      19A     -1.025335    20A     -0.962138    21A     -0.925487
      22A     -0.863655    23A     -0.834998    24A     -0.805654
      25A     -0.778162    26A     -0.727535    27A     -0.679903
      28A     -0.662410    29A     -0.628627    30A     -0.618681
      31A     -0.591946    32A     -0.582784    33A     -0.576035
      34A     -0.562911    35A     -0.559714    36A     -0.552163
      37A     -0.549537    38A     -0.545075    39A     -0.533768
      40A     -0.509715    41A     -0.429983    42A     -0.417618
      43A     -0.394040    44A     -0.390556    45A     -0.359252
      46A     -0.274865

  @DF-RHF Final Energy:  -548.61675361985544

   => Energetics <=

    Nuclear Repulsion Energy =            743.0824173517615918
    One-Electron Energy =               -2218.2256902979279403
    Two-Electron Energy =                 926.5265193263107903
    Total Energy =                       -548.6167536198554444
  Basis Set: (AUG-CC-PVTZ AUX)
    Blend: AUG-CC-PVTZ-RI
    Molecular point group: c1

    Geometry (in Angstrom), charge = 0, multiplicity = 1:

       Center              X                  Y                   Z               Mass
    ------------   -----------------  -----------------  -----------------  -----------------
         N           -1.603289970470    -0.770203120184    -0.000000929049    14.003074004430
         N           -1.253395970470     1.430075879816     0.000001070951    14.003074004430
         N            0.982710029530    -1.447392120184     0.000003070951    14.003074004430
         C           -0.666180970470     0.226859879816     0.000007070951    12.000000000000
         C            0.754633029530    -0.110786120184     0.000002070951    12.000000000000
         C            1.787438029530     0.853706879816     0.000002070951    12.000000000000
         C           -2.848789970470    -0.198929120184    -0.000008929049    12.000000000000
         C           -2.597537970470     1.164871879816    -0.000005929049    12.000000000000
         C            3.096315029530     0.362314879816    -0.000003929049    12.000000000000
         C            1.523751029530     2.333428879816     0.000003070951    12.000000000000
         C           -4.113843970470    -0.986836120184     0.000003070951    12.000000000000
         C            3.344938029530    -1.009298120184    -0.000002929049    12.000000000000
         C            2.158781329530    -1.842983720184    -0.000000629049    12.000000000000
         H           -1.348091970470    -1.753121120184     0.000006070951     1.007825032230
         H           -3.328301970470     1.964642879816    -0.000013929049     1.007825032230
         H            3.925885029530     1.067442879816    -0.000004929049     1.007825032230
         H            0.936427029530     2.629635879816    -0.871957929049     1.007825032230
         H            0.936432029530     2.629634879816     0.871968070951     1.007825032230
         H            2.472751029530     2.878007879816     0.000002070951     1.007825032230
         H           -4.194608970470    -1.625966120184    -0.885673929049     1.007825032230
         H           -4.194575970470    -1.625982120184     0.885671070951     1.007825032230
         H           -4.966737970470    -0.304054120184     0.000025070951     1.007825032230
         H            4.359679029530    -1.397636120184    -0.000007929049     1.007825032230
         H            2.392069029530    -2.954901120184     0.000001070951     1.007825032230

  Basis Set: AUG-CC-PVTZ
    Blend: AUG-CC-PVTZ
  Basis Set: (AUG-CC-PVTZ AUX)
    Blend: AUG-CC-PVTZ-JKFIT
	 Reference Energy          =    -548.6167536198554444 [Eh]
	 Singles Energy            =      -0.0000000000000000 [Eh]
	 Same-Spin Energy          =      -0.6106915498541222 [Eh]
	 Opposite-Spin Energy      =      -1.8770216814175495 [Eh]
	 Correlation Energy        =      -2.4877132312716719 [Eh]
	 Total Energy              =    -551.1044668511270856 [Eh]

	 ================> DF-SCS-MP2 Energies <==================
	-----------------------------------------------------------
	 SCS Same-Spin Scale       =       0.3333333333333333 [-]
	 SCS Opposite-Spin Scale   =       1.2000000000000000 [-]
	 SCS Same-Spin Energy      =      -0.2035638499513741 [Eh]
	 SCS Opposite-Spin Energy  =      -2.2524260177010595 [Eh]
	 SCS Correlation Energy    =      -2.4559898676524337 [Eh]
	 SCS Total Energy          =    -551.0727434875078643 [Eh]
	-----------------------------------------------------------

  Dipole Moment: [D]
     X:     0.0571      Y:    -1.7607      Z:     0.0000     Total:     1.7616

*** Psi4 exiting successfully. Buy a developer a beer!
