                               Psi4 1.4a3.dev225

  ==> Input File <==

--------------------------------------------------------------------------
#psi4
#
memory 32 gb

molecule  {
0 1
  N       -1.5932770    -0.7762670    -0.0000010
  N       -1.2433830     1.4240120     0.0000010
  N        0.9927230    -1.4534560     0.0000030
  C       -0.6561680     0.2207960     0.0000070
  C        0.7646460    -0.1168500     0.0000020
  C        1.7974510     0.8476430     0.0000020
  C       -2.8387770    -0.2049930    -0.0000090
  C       -2.5875250     1.1588080    -0.0000060
  C        3.1063280     0.3562510    -0.0000040
  C        1.5337640     2.3273650     0.0000030
  C       -4.1038310    -0.9929000     0.0000030
  C        3.3549510    -1.0153620    -0.0000030
  C        2.3027510    -1.8498594    -0.0000011
  H       -1.3380790    -1.7591850     0.0000060
  H       -3.3182890     1.9585790    -0.0000140
  H        3.9358980     1.0613790    -0.0000050
  H        0.9464400     2.6235720    -0.8719580
  H        0.9464450     2.6235710     0.8719680
  H        2.4827640     2.8719440     0.0000020
  H       -4.1845960    -1.6320300    -0.8856740
  H       -4.1845630    -1.6320460     0.8856710
  H       -4.9567250    -0.3101180     0.0000250
  H        4.3696920    -1.4037000    -0.0000080
  H        2.4020820    -2.9609650     0.0000010
units angstrom
no_reorient  #important for SAPT in psi4, default
symmetry c1  #important for SAPT in psi4, default
}

set PROPERTIES_ORIGIN ["COM"]
properties('MP2/aug-cc-pvtz', properties = ['dipole'])
--------------------------------------------------------------------------

    Molecular point group: c1
  Charge       = 0
  Multiplicity = 1
  Basis Set: AUG-CC-PVTZ
    Blend: AUG-CC-PVTZ
  Basis Set: (AUG-CC-PVTZ AUX)
    Blend: AUG-CC-PVTZ-JKFIT

    Orbital Energies [Eh]
    ---------------------

    Doubly Occupied:

       1A    -15.608277     2A    -15.573525     3A    -15.545256
       4A    -11.293748     5A    -11.290725     6A    -11.273888
       7A    -11.266284     8A    -11.256923     9A    -11.252329
      10A    -11.238206    11A    -11.237476    12A    -11.235274
      13A    -11.215559    14A     -1.335758    15A     -1.253928
      16A     -1.161323    17A     -1.098213    18A     -1.076294
      19A     -1.032096    20A     -0.955250    21A     -0.930928
      22A     -0.868151    23A     -0.834780    24A     -0.805355
      25A     -0.776896    26A     -0.726661    27A     -0.674338
      28A     -0.664357    29A     -0.628621    30A     -0.618402
      31A     -0.589612    32A     -0.579896    33A     -0.573543
      34A     -0.565384    35A     -0.561475    36A     -0.552903
      37A     -0.548123    38A     -0.545025    39A     -0.522704
      40A     -0.502812    41A     -0.436182    42A     -0.426949
      43A     -0.395516    44A     -0.388253    45A     -0.353884
      46A     -0.282144

  @DF-RHF Final Energy:  -548.62297670858004

   => Energetics <=

    Nuclear Repulsion Energy =            741.6383440380167258
    One-Electron Energy =               -2215.4161867179886940
    Two-Electron Energy =                 925.1548659713918141
    Total Energy =                       -548.6229767085800404
  Basis Set: (AUG-CC-PVTZ AUX)
    Blend: AUG-CC-PVTZ-RI
    Molecular point group: c1

    Geometry (in Angstrom), charge = 0, multiplicity = 1:

       Center              X                  Y                   Z               Mass
    ------------   -----------------  -----------------  -----------------  -----------------
         N           -1.612576649105    -0.770146841359    -0.000000901319    14.003074004430
         N           -1.262682649105     1.430132158641     0.000001098681    14.003074004430
         N            0.973423350895    -1.447335841359     0.000003098681    14.003074004430
         C           -0.675467649105     0.226916158641     0.000007098681    12.000000000000
         C            0.745346350895    -0.110729841359     0.000002098681    12.000000000000
         C            1.778151350895     0.853763158641     0.000002098681    12.000000000000
         C           -2.858076649105    -0.198872841359    -0.000008901319    12.000000000000
         C           -2.606824649105     1.164928158641    -0.000005901319    12.000000000000
         C            3.087028350895     0.362371158641    -0.000003901319    12.000000000000
         C            1.514464350895     2.333485158641     0.000003098681    12.000000000000
         C           -4.123130649105    -0.986779841359     0.000003098681    12.000000000000
         C            3.335651350895    -1.009241841359    -0.000002901319    12.000000000000
         C            2.283451350895    -1.843739241359    -0.000001001319    12.000000000000
         H           -1.357378649105    -1.753064841359     0.000006098681     1.007825032230
         H           -3.337588649105     1.964699158641    -0.000013901319     1.007825032230
         H            3.916598350895     1.067499158641    -0.000004901319     1.007825032230
         H            0.927140350895     2.629692158641    -0.871957901319     1.007825032230
         H            0.927145350895     2.629691158641     0.871968098681     1.007825032230
         H            2.463464350895     2.878064158641     0.000002098681     1.007825032230
         H           -4.203895649105    -1.625909841359    -0.885673901319     1.007825032230
         H           -4.203862649105    -1.625925841359     0.885671098681     1.007825032230
         H           -4.976024649105    -0.303997841359     0.000025098681     1.007825032230
         H            4.350392350895    -1.397579841359    -0.000007901319     1.007825032230
         H            2.382782350895    -2.954844841359     0.000001098681     1.007825032230

  Basis Set: AUG-CC-PVTZ
    Blend: AUG-CC-PVTZ
  Basis Set: (AUG-CC-PVTZ AUX)
    Blend: AUG-CC-PVTZ-JKFIT
	 Reference Energy          =    -548.6229767085800404 [Eh]
	 Singles Energy            =      -0.0000000000000000 [Eh]
	 Same-Spin Energy          =      -0.6117192002152476 [Eh]
	 Opposite-Spin Energy      =      -1.8791430102204099 [Eh]
	 Correlation Energy        =      -2.4908622104356573 [Eh]
	 Total Energy              =    -551.1138389190157341 [Eh]

	 ================> DF-SCS-MP2 Energies <==================
	-----------------------------------------------------------
	 SCS Same-Spin Scale       =       0.3333333333333333 [-]
	 SCS Opposite-Spin Scale   =       1.2000000000000000 [-]
	 SCS Same-Spin Energy      =      -0.2039064000717492 [Eh]
	 SCS Opposite-Spin Energy  =      -2.2549716122644918 [Eh]
	 SCS Correlation Energy    =      -2.4588780123362408 [Eh]
	 SCS Total Energy          =    -551.0818547209162261 [Eh]
	-----------------------------------------------------------

  Dipole Moment: [D]
     X:     0.1430      Y:    -1.6753      Z:     0.0000     Total:     1.6814

*** Psi4 exiting successfully. Buy a developer a beer!
