                               Psi4 1.4a3.dev225

  ==> Input File <==

--------------------------------------------------------------------------
#psi4
#
memory 32 gb

molecule  {
0 1
  N       -1.5932770    -0.7762670    -0.0000010
  N       -1.2433830     1.4240120     0.0000010
  N        0.9927230    -1.4534560     0.0000030
  C       -0.6561680     0.2207960     0.0000070
  C        0.7646460    -0.1168500     0.0000020
  C        1.7974510     0.8476430     0.0000020
  C       -2.8387770    -0.2049930    -0.0000090
  C       -2.5875250     1.1588080    -0.0000060
  C        3.1063280     0.3562510    -0.0000040
  C        1.5337640     2.3273650     0.0000030
  C       -4.1038310    -0.9929000     0.0000030
  C        3.3549510    -1.0153620    -0.0000030
  C        2.3583577    -1.9128104    -0.0000013
  H       -1.3380790    -1.7591850     0.0000060
  H       -3.3182890     1.9585790    -0.0000140
  H        3.9358980     1.0613790    -0.0000050
  H        0.9464400     2.6235720    -0.8719580
  H        0.9464450     2.6235710     0.8719680
  H        2.4827640     2.8719440     0.0000020
  H       -4.1845960    -1.6320300    -0.8856740
  H       -4.1845630    -1.6320460     0.8856710
  H       -4.9567250    -0.3101180     0.0000250
  H        4.3696920    -1.4037000    -0.0000080
  H        2.4020820    -2.9609650     0.0000010
units angstrom
no_reorient  #important for SAPT in psi4, default
symmetry c1  #important for SAPT in psi4, default
}

set PROPERTIES_ORIGIN ["COM"]
properties('MP2/aug-cc-pvtz', properties = ['dipole'])
--------------------------------------------------------------------------

    Molecular point group: c1
  Charge       = 0
  Multiplicity = 1
  Basis Set: AUG-CC-PVTZ
    Blend: AUG-CC-PVTZ
  Basis Set: (AUG-CC-PVTZ AUX)
    Blend: AUG-CC-PVTZ-JKFIT

    Orbital Energies [Eh]
    ---------------------

    Doubly Occupied:

       1A    -15.607474     2A    -15.576124     3A    -15.545159
       4A    -11.293624     5A    -11.291027     6A    -11.274313
       7A    -11.265889     8A    -11.256522     9A    -11.253938
      10A    -11.239311    11A    -11.237906    12A    -11.234799
      13A    -11.216001    14A     -1.334974    15A     -1.237510
      16A     -1.160904    17A     -1.093959    18A     -1.075110
      19A     -1.032178    20A     -0.952510    21A     -0.933944
      22A     -0.866172    23A     -0.835517    24A     -0.803886
      25A     -0.779852    26A     -0.728816    27A     -0.673528
      28A     -0.660133    29A     -0.628632    30A     -0.617621
      31A     -0.596968    32A     -0.578352    33A     -0.577698
      34A     -0.565665    35A     -0.561707    36A     -0.552869
      37A     -0.546462    38A     -0.544056    39A     -0.515399
      40A     -0.504580    41A     -0.434566    42A     -0.423623
      43A     -0.395533    44A     -0.388362    45A     -0.348395
      46A     -0.283377

  @DF-RHF Final Energy:  -548.61294184190251

   => Energetics <=

    Nuclear Repulsion Energy =            739.8930357259969242
    One-Electron Energy =               -2211.9620689069179207
    Two-Electron Energy =                 923.4560913390184851
    Total Energy =                       -548.6129418419025114
  Basis Set: (AUG-CC-PVTZ AUX)
    Blend: AUG-CC-PVTZ-RI
    Molecular point group: c1

    Geometry (in Angstrom), charge = 0, multiplicity = 1:

       Center              X                  Y                   Z               Mass
    ------------   -----------------  -----------------  -----------------  -----------------
         N           -1.616431637717    -0.765782702001    -0.000000887454    14.003074004430
         N           -1.266537637717     1.434496297999     0.000001112546    14.003074004430
         N            0.969568362283    -1.442971702001     0.000003112546    14.003074004430
         C           -0.679322637717     0.231280297999     0.000007112546    12.000000000000
         C            0.741491362283    -0.106365702001     0.000002112546    12.000000000000
         C            1.774296362283     0.858127297999     0.000002112546    12.000000000000
         C           -2.861931637717    -0.194508702001    -0.000008887454    12.000000000000
         C           -2.610679637717     1.169292297999    -0.000005887454    12.000000000000
         C            3.083173362283     0.366735297999    -0.000003887454    12.000000000000
         C            1.510609362283     2.337849297999     0.000003112546    12.000000000000
         C           -4.126985637717    -0.982415702001     0.000003112546    12.000000000000
         C            3.331796362283    -1.004877702001    -0.000002887454    12.000000000000
         C            2.335203062283    -1.902326102001    -0.000001187454    12.000000000000
         H           -1.361233637717    -1.748700702001     0.000006112546     1.007825032230
         H           -3.341443637717     1.969063297999    -0.000013887454     1.007825032230
         H            3.912743362283     1.071863297999    -0.000004887454     1.007825032230
         H            0.923285362283     2.634056297999    -0.871957887454     1.007825032230
         H            0.923290362283     2.634055297999     0.871968112546     1.007825032230
         H            2.459609362283     2.882428297999     0.000002112546     1.007825032230
         H           -4.207750637717    -1.621545702001    -0.885673887454     1.007825032230
         H           -4.207717637717    -1.621561702001     0.885671112546     1.007825032230
         H           -4.979879637717    -0.299633702001     0.000025112546     1.007825032230
         H            4.346537362283    -1.393215702001    -0.000007887454     1.007825032230
         H            2.378927362283    -2.950480702001     0.000001112546     1.007825032230

  Basis Set: AUG-CC-PVTZ
    Blend: AUG-CC-PVTZ
  Basis Set: (AUG-CC-PVTZ AUX)
    Blend: AUG-CC-PVTZ-JKFIT
	 Reference Energy          =    -548.6129418419025114 [Eh]
	 Singles Energy            =      -0.0000000000000000 [Eh]
	 Same-Spin Energy          =      -0.6119862786781300 [Eh]
	 Opposite-Spin Energy      =      -1.8810134458380940 [Eh]
	 Correlation Energy        =      -2.4929997245162241 [Eh]
	 Total Energy              =    -551.1059415664187782 [Eh]

	 ================> DF-SCS-MP2 Energies <==================
	-----------------------------------------------------------
	 SCS Same-Spin Scale       =       0.3333333333333333 [-]
	 SCS Opposite-Spin Scale   =       1.2000000000000000 [-]
	 SCS Same-Spin Energy      =      -0.2039954262260433 [Eh]
	 SCS Opposite-Spin Energy  =      -2.2572161350057129 [Eh]
	 SCS Correlation Energy    =      -2.4612115612317562 [Eh]
	 SCS Total Energy          =    -551.0741534031342326 [Eh]
	-----------------------------------------------------------

  Dipole Moment: [D]
     X:     0.1858      Y:    -1.7375      Z:     0.0000     Total:     1.7474

*** Psi4 exiting successfully. Buy a developer a beer!
