                               Psi4 1.4a3.dev225

  ==> Input File <==

--------------------------------------------------------------------------
#psi4
#
memory 32 gb

molecule  {
0 1
  N       -1.5932770    -0.7762670    -0.0000010
  N       -1.2433830     1.4240120     0.0000010
  N        0.9927230    -1.4534560     0.0000030
  C       -0.6561680     0.2207960     0.0000070
  C        0.7478252    -0.0182748     0.0000019
  C        1.7974510     0.8476430     0.0000020
  C       -2.8387770    -0.2049930    -0.0000090
  C       -2.5875250     1.1588080    -0.0000060
  C        3.1063280     0.3562510    -0.0000040
  C        1.5337640     2.3273650     0.0000030
  C       -4.1038310    -0.9929000     0.0000030
  C        3.3549510    -1.0153620    -0.0000030
  C        2.2635760    -1.8809290    -0.0000010
  H       -1.3380790    -1.7591850     0.0000060
  H       -3.3182890     1.9585790    -0.0000140
  H        3.9358980     1.0613790    -0.0000050
  H        0.9464400     2.6235720    -0.8719580
  H        0.9464450     2.6235710     0.8719680
  H        2.4827640     2.8719440     0.0000020
  H       -4.1845960    -1.6320300    -0.8856740
  H       -4.1845630    -1.6320460     0.8856710
  H       -4.9567250    -0.3101180     0.0000250
  H        4.3696920    -1.4037000    -0.0000080
  H        2.4020820    -2.9609650     0.0000010
units angstrom
no_reorient  #important for SAPT in psi4, default
symmetry c1  #important for SAPT in psi4, default
}

set PROPERTIES_ORIGIN ["COM"]
properties('MP2/aug-cc-pvtz', properties = ['dipole'])
--------------------------------------------------------------------------

    Molecular point group: c1
  Charge       = 0
  Multiplicity = 1
  Basis Set: AUG-CC-PVTZ
    Blend: AUG-CC-PVTZ
  Basis Set: (AUG-CC-PVTZ AUX)
    Blend: AUG-CC-PVTZ-JKFIT

    Orbital Energies [Eh]
    ---------------------

    Doubly Occupied:

       1A    -15.609713     2A    -15.575230     3A    -15.543821
       4A    -11.292909     5A    -11.285893     6A    -11.277904
       7A    -11.267053     8A    -11.259191     9A    -11.247322
      10A    -11.243584    11A    -11.238647    12A    -11.235060
      13A    -11.212999    14A     -1.335948    15A     -1.237049
      16A     -1.162038    17A     -1.098767    18A     -1.075718
      19A     -1.029540    20A     -0.958585    21A     -0.927763
      22A     -0.870684    23A     -0.834224    24A     -0.806206
      25A     -0.774059    26A     -0.731046    27A     -0.669661
      28A     -0.665329    29A     -0.630118    30A     -0.619065
      31A     -0.595600    32A     -0.579394    33A     -0.575985
      34A     -0.565048    35A     -0.561097    36A     -0.552715
      37A     -0.548359    38A     -0.542033    39A     -0.514388
      40A     -0.505181    41A     -0.431433    42A     -0.422977
      43A     -0.395817    44A     -0.378325    45A     -0.365102
      46A     -0.277208

  @DF-RHF Final Energy:  -548.61210827125581

   => Energetics <=

    Nuclear Repulsion Energy =            741.3166954837591902
    One-Electron Energy =               -2214.8060356536097970
    Two-Electron Energy =                 924.8772318985946868
    Total Energy =                       -548.6121082712558064
  Basis Set: (AUG-CC-PVTZ AUX)
    Blend: AUG-CC-PVTZ-RI
    Molecular point group: c1

    Geometry (in Angstrom), charge = 0, multiplicity = 1:

       Center              X                  Y                   Z               Mass
    ------------   -----------------  -----------------  -----------------  -----------------
         N           -1.608694685758    -0.774826732796    -0.000000901319    14.003074004430
         N           -1.258800685758     1.425452267204     0.000001098681    14.003074004430
         N            0.977305314242    -1.452015732796     0.000003098681    14.003074004430
         C           -0.671585685758     0.222236267204     0.000007098681    12.000000000000
         C            0.732407514242    -0.016834532796     0.000001998681    12.000000000000
         C            1.782033314242     0.849083267204     0.000002098681    12.000000000000
         C           -2.854194685758    -0.203552732796    -0.000008901319    12.000000000000
         C           -2.602942685758     1.160248267204    -0.000005901319    12.000000000000
         C            3.090910314242     0.357691267204    -0.000003901319    12.000000000000
         C            1.518346314242     2.328805267204     0.000003098681    12.000000000000
         C           -4.119248685758    -0.991459732796     0.000003098681    12.000000000000
         C            3.339533314242    -1.013921732796    -0.000002901319    12.000000000000
         C            2.248158314242    -1.879488732796    -0.000000901319    12.000000000000
         H           -1.353496685758    -1.757744732796     0.000006098681     1.007825032230
         H           -3.333706685758     1.960019267204    -0.000013901319     1.007825032230
         H            3.920480314242     1.062819267204    -0.000004901319     1.007825032230
         H            0.931022314242     2.625012267204    -0.871957901319     1.007825032230
         H            0.931027314242     2.625011267204     0.871968098681     1.007825032230
         H            2.467346314242     2.873384267204     0.000002098681     1.007825032230
         H           -4.200013685758    -1.630589732796    -0.885673901319     1.007825032230
         H           -4.199980685758    -1.630605732796     0.885671098681     1.007825032230
         H           -4.972142685758    -0.308677732796     0.000025098681     1.007825032230
         H            4.354274314242    -1.402259732796    -0.000007901319     1.007825032230
         H            2.386664314242    -2.959524732796     0.000001098681     1.007825032230

  Basis Set: AUG-CC-PVTZ
    Blend: AUG-CC-PVTZ
  Basis Set: (AUG-CC-PVTZ AUX)
    Blend: AUG-CC-PVTZ-JKFIT
	 Reference Energy          =    -548.6121082712558064 [Eh]
	 Singles Energy            =      -0.0000000000000000 [Eh]
	 Same-Spin Energy          =      -0.6127852682700962 [Eh]
	 Opposite-Spin Energy      =      -1.8817057995353450 [Eh]
	 Correlation Energy        =      -2.4944910678054413 [Eh]
	 Total Energy              =    -551.1065993390612903 [Eh]

	 ================> DF-SCS-MP2 Energies <==================
	-----------------------------------------------------------
	 SCS Same-Spin Scale       =       0.3333333333333333 [-]
	 SCS Opposite-Spin Scale   =       1.2000000000000000 [-]
	 SCS Same-Spin Energy      =      -0.2042617560900321 [Eh]
	 SCS Opposite-Spin Energy  =      -2.2580469594424137 [Eh]
	 SCS Correlation Energy    =      -2.4623087155324459 [Eh]
	 SCS Total Energy          =    -551.0744169867882647 [Eh]
	-----------------------------------------------------------

  Dipole Moment: [D]
     X:     0.0103      Y:    -1.7733      Z:     0.0000     Total:     1.7733

*** Psi4 exiting successfully. Buy a developer a beer!
