                               Psi4 1.4a3.dev225

  ==> Input File <==

--------------------------------------------------------------------------
#psi4
#
memory 32 gb

molecule  {
0 1
  N       -1.5932770    -0.7762670    -0.0000010
  N       -1.2433830     1.4240120     0.0000010
  N        0.9927230    -1.4534560     0.0000030
  C       -0.6561680     0.2207960     0.0000070
  C        0.7646460    -0.1168500     0.0000020
  C        1.7974510     0.8476430     0.0000020
  C       -2.8387770    -0.2049930    -0.0000090
  C       -2.5875250     1.1588080    -0.0000060
  C        3.1063280     0.3562510    -0.0000040
  C        1.5337640     2.3273650     0.0000030
  C       -4.1038310    -0.9929000     0.0000030
  C        3.3549510    -1.0153620    -0.0000030
  C        2.2635760    -1.8809290    -0.0000010
  H       -1.3380790    -1.7591850     0.0000060
  H       -3.3182890     1.9585790    -0.0000140
  H        3.9358980     1.0613790    -0.0000050
  H        0.9464400     2.6235720    -0.8719580
  H        0.9464450     2.6235710     0.8719680
  H        2.4827640     2.8719440     0.0000020
  H       -4.1845960    -1.6320300    -0.8856740
  H       -4.1845630    -1.6320460     0.8856710
  H       -4.9567250    -0.3101180     0.0000250
  H        4.3696920    -1.4037000    -0.0000080
  H        2.4148020    -3.0601527     0.0000012
units angstrom
no_reorient  #important for SAPT in psi4, default
symmetry c1  #important for SAPT in psi4, default
}

set PROPERTIES_ORIGIN ["COM"]
properties('MP2/aug-cc-pvtz', properties = ['dipole'])
--------------------------------------------------------------------------

    Molecular point group: c1
  Charge       = 0
  Multiplicity = 1
  Basis Set: AUG-CC-PVTZ
    Blend: AUG-CC-PVTZ
  Basis Set: (AUG-CC-PVTZ AUX)
    Blend: AUG-CC-PVTZ-JKFIT

    Orbital Energies [Eh]
    ---------------------

    Doubly Occupied:

       1A    -15.607878     2A    -15.573749     3A    -15.544436
       4A    -11.293752     5A    -11.290297     6A    -11.288342
       7A    -11.265624     8A    -11.257067     9A    -11.253088
      10A    -11.244407    11A    -11.237878    12A    -11.234955
      13A    -11.215822    14A     -1.335486    15A     -1.258597
      16A     -1.160870    17A     -1.099137    18A     -1.072405
      19A     -1.029086    20A     -0.956735    21A     -0.927733
      22A     -0.865165    23A     -0.834184    24A     -0.805078
      25A     -0.775533    26A     -0.724193    27A     -0.672861
      28A     -0.660958    29A     -0.627992    30A     -0.618226
      31A     -0.588696    32A     -0.580109    33A     -0.572092
      34A     -0.564189    35A     -0.560283    36A     -0.552705
      37A     -0.548733    38A     -0.545124    39A     -0.523481
      40A     -0.505271    41A     -0.432990    42A     -0.423878
      43A     -0.394772    44A     -0.387141    45A     -0.355609
      46A     -0.279556

  @DF-RHF Final Energy:  -548.61950189774939

   => Energetics <=

    Nuclear Repulsion Energy =            740.8769804912615200
    One-Electron Energy =               -2213.9006380942714713
    Two-Electron Energy =                 924.4041557052605640
    Total Energy =                       -548.6195018977493874
  Basis Set: (AUG-CC-PVTZ AUX)
    Blend: AUG-CC-PVTZ-RI
    Molecular point group: c1

    Geometry (in Angstrom), charge = 0, multiplicity = 1:

       Center              X                  Y                   Z               Mass
    ------------   -----------------  -----------------  -----------------  -----------------
         N           -1.609934864652    -0.767415403509    -0.000000909416    14.003074004430
         N           -1.260040864652     1.432863596491     0.000001090584    14.003074004430
         N            0.976065135348    -1.444604403509     0.000003090584    14.003074004430
         C           -0.672825864652     0.229647596491     0.000007090584    12.000000000000
         C            0.747988135348    -0.107998403509     0.000002090584    12.000000000000
         C            1.780793135348     0.856494596491     0.000002090584    12.000000000000
         C           -2.855434864652    -0.196141403509    -0.000008909416    12.000000000000
         C           -2.604182864652     1.167659596491    -0.000005909416    12.000000000000
         C            3.089670135348     0.365102596491    -0.000003909416    12.000000000000
         C            1.517106135348     2.336216596491     0.000003090584    12.000000000000
         C           -4.120488864652    -0.984048403509     0.000003090584    12.000000000000
         C            3.338293135348    -1.006510403509    -0.000002909416    12.000000000000
         C            2.246918135348    -1.872077403509    -0.000000909416    12.000000000000
         H           -1.354736864652    -1.750333403509     0.000006090584     1.007825032230
         H           -3.334946864652     1.967430596491    -0.000013909416     1.007825032230
         H            3.919240135348     1.070230596491    -0.000004909416     1.007825032230
         H            0.929782135348     2.632423596491    -0.871957909416     1.007825032230
         H            0.929787135348     2.632422596491     0.871968090584     1.007825032230
         H            2.466106135348     2.880795596491     0.000002090584     1.007825032230
         H           -4.201253864652    -1.623178403509    -0.885673909416     1.007825032230
         H           -4.201220864652    -1.623194403509     0.885671090584     1.007825032230
         H           -4.973382864652    -0.301266403509     0.000025090584     1.007825032230
         H            4.353034135348    -1.394848403509    -0.000007909416     1.007825032230
         H            2.398144135348    -3.051301103509     0.000001290584     1.007825032230

  Basis Set: AUG-CC-PVTZ
    Blend: AUG-CC-PVTZ
  Basis Set: (AUG-CC-PVTZ AUX)
    Blend: AUG-CC-PVTZ-JKFIT
	 Reference Energy          =    -548.6195018977493874 [Eh]
	 Singles Energy            =      -0.0000000000000000 [Eh]
	 Same-Spin Energy          =      -0.6119044710111993 [Eh]
	 Opposite-Spin Energy      =      -1.8796046874942014 [Eh]
	 Correlation Energy        =      -2.4915091585054006 [Eh]
	 Total Energy              =    -551.1110110562548243 [Eh]

	 ================> DF-SCS-MP2 Energies <==================
	-----------------------------------------------------------
	 SCS Same-Spin Scale       =       0.3333333333333333 [-]
	 SCS Opposite-Spin Scale   =       1.2000000000000000 [-]
	 SCS Same-Spin Energy      =      -0.2039681570037331 [Eh]
	 SCS Opposite-Spin Energy  =      -2.2555256249930418 [Eh]
	 SCS Correlation Energy    =      -2.4594937819967750 [Eh]
	 SCS Total Energy          =    -551.0789956797461855 [Eh]
	-----------------------------------------------------------

  Dipole Moment: [D]
     X:     0.1193      Y:    -1.6972      Z:     0.0000     Total:     1.7014

*** Psi4 exiting successfully. Buy a developer a beer!
