                               Psi4 1.4a3.dev225

  ==> Input File <==

--------------------------------------------------------------------------
#psi4
#
memory 32 gb

molecule  {
0 1
  N       -1.5932770    -0.7762670    -0.0000010
  N       -1.2433830     1.4240120     0.0000010
  N        0.9927230    -1.4534560     0.0000030
  C       -0.6561680     0.2207960     0.0000070
  C        0.7646460    -0.1168500     0.0000020
  C        1.7974510     0.8476430     0.0000020
  C       -2.8387770    -0.2049930    -0.0000090
  C       -2.5875250     1.1588080    -0.0000060
  C        3.1063280     0.3562510    -0.0000040
  C        1.5337640     2.3273650     0.0000030
  C       -4.1038310    -0.9929000     0.0000030
  C        3.3549510    -1.0153620    -0.0000030
  C        2.2635760    -1.8809290    -0.0000010
  H       -1.3380790    -1.7591850     0.0000060
  H       -3.3182890     1.9585790    -0.0000140
  H        3.9358980     1.0613790    -0.0000050
  H        0.9464400     2.6235720    -0.8719580
  H        0.9464450     2.6235710     0.8719680
  H        2.4827640     2.8719440     0.0000020
  H       -4.1845960    -1.6320300    -0.8856740
  H       -4.1845630    -1.6320460     0.8856710
  H       -4.9567250    -0.3101180     0.0000250
  H        4.3696920    -1.4037000    -0.0000080
  H        2.4084420    -3.0105589     0.0000011
units angstrom
no_reorient  #important for SAPT in psi4, default
symmetry c1  #important for SAPT in psi4, default
}

set PROPERTIES_ORIGIN ["COM"]
properties('MP2/aug-cc-pvtz', properties = ['dipole'])
--------------------------------------------------------------------------

    Molecular point group: c1
  Charge       = 0
  Multiplicity = 1
  Basis Set: AUG-CC-PVTZ
    Blend: AUG-CC-PVTZ
  Basis Set: (AUG-CC-PVTZ AUX)
    Blend: AUG-CC-PVTZ-JKFIT

    Orbital Energies [Eh]
    ---------------------

    Doubly Occupied:

       1A    -15.607702     2A    -15.573149     3A    -15.544239
       4A    -11.293539     5A    -11.289806     6A    -11.282842
       7A    -11.265463     8A    -11.256662     9A    -11.252852
      10A    -11.243803    11A    -11.237782    12A    -11.234806
      13A    -11.215643    14A     -1.335302    15A     -1.258291
      16A     -1.160696    17A     -1.098822    18A     -1.072627
      19A     -1.029054    20A     -0.956765    21A     -0.928440
      22A     -0.865073    23A     -0.834890    24A     -0.804901
      25A     -0.776984    26A     -0.725565    27A     -0.674422
      28A     -0.660896    29A     -0.628389    30A     -0.618056
      31A     -0.591124    32A     -0.579891    33A     -0.573776
      34A     -0.564602    35A     -0.561009    36A     -0.552559
      37A     -0.548574    38A     -0.544985    39A     -0.523120
      40A     -0.506563    41A     -0.433181    42A     -0.424079
      43A     -0.394593    44A     -0.386795    45A     -0.355328
      46A     -0.279365

  @DF-RHF Final Energy:  -548.62444363802433

   => Energetics <=

    Nuclear Repulsion Energy =            741.1267073992306678
    One-Electron Energy =               -2214.4082982993568294
    Two-Electron Energy =                 924.6571472621017165
    Total Energy =                       -548.6244436380243314
  Basis Set: (AUG-CC-PVTZ AUX)
    Blend: AUG-CC-PVTZ-RI
    Molecular point group: c1

    Geometry (in Angstrom), charge = 0, multiplicity = 1:

       Center              X                  Y                   Z               Mass
    ------------   -----------------  -----------------  -----------------  -----------------
         N           -1.609897834372    -0.767704157009    -0.000000908834    14.003074004430
         N           -1.260003834372     1.432574842991     0.000001091166    14.003074004430
         N            0.976102165628    -1.444893157009     0.000003091166    14.003074004430
         C           -0.672788834372     0.229358842991     0.000007091166    12.000000000000
         C            0.748025165628    -0.108287157009     0.000002091166    12.000000000000
         C            1.780830165628     0.856205842991     0.000002091166    12.000000000000
         C           -2.855397834372    -0.196430157009    -0.000008908834    12.000000000000
         C           -2.604145834372     1.167370842991    -0.000005908834    12.000000000000
         C            3.089707165628     0.364813842991    -0.000003908834    12.000000000000
         C            1.517143165628     2.335927842991     0.000003091166    12.000000000000
         C           -4.120451834372    -0.984337157009     0.000003091166    12.000000000000
         C            3.338330165628    -1.006799157009    -0.000002908834    12.000000000000
         C            2.246955165628    -1.872366157009    -0.000000908834    12.000000000000
         H           -1.354699834372    -1.750622157009     0.000006091166     1.007825032230
         H           -3.334909834372     1.967141842991    -0.000013908834     1.007825032230
         H            3.919277165628     1.069941842991    -0.000004908834     1.007825032230
         H            0.929819165628     2.632134842991    -0.871957908834     1.007825032230
         H            0.929824165628     2.632133842991     0.871968091166     1.007825032230
         H            2.466143165628     2.880506842991     0.000002091166     1.007825032230
         H           -4.201216834372    -1.623467157009    -0.885673908834     1.007825032230
         H           -4.201183834372    -1.623483157009     0.885671091166     1.007825032230
         H           -4.973345834372    -0.301555157009     0.000025091166     1.007825032230
         H            4.353071165628    -1.395137157009    -0.000007908834     1.007825032230
         H            2.391821165628    -3.001996057009     0.000001191166     1.007825032230

  Basis Set: AUG-CC-PVTZ
    Blend: AUG-CC-PVTZ
  Basis Set: (AUG-CC-PVTZ AUX)
    Blend: AUG-CC-PVTZ-JKFIT
	 Reference Energy          =    -548.6244436380243314 [Eh]
	 Singles Energy            =      -0.0000000000000000 [Eh]
	 Same-Spin Energy          =      -0.6117519656884575 [Eh]
	 Opposite-Spin Energy      =      -1.8790504696724171 [Eh]
	 Correlation Energy        =      -2.4908024353608744 [Eh]
	 Total Energy              =    -551.1152460733851512 [Eh]

	 ================> DF-SCS-MP2 Energies <==================
	-----------------------------------------------------------
	 SCS Same-Spin Scale       =       0.3333333333333333 [-]
	 SCS Opposite-Spin Scale   =       1.2000000000000000 [-]
	 SCS Same-Spin Energy      =      -0.2039173218961525 [Eh]
	 SCS Opposite-Spin Energy  =      -2.2548605636069006 [Eh]
	 SCS Correlation Energy    =      -2.4587778855030531 [Eh]
	 SCS Total Energy          =    -551.0832215235274134 [Eh]
	-----------------------------------------------------------

  Dipole Moment: [D]
     X:     0.1389      Y:    -1.7286      Z:     0.0000     Total:     1.7341

*** Psi4 exiting successfully. Buy a developer a beer!
