                               Psi4 1.4a3.dev225

  ==> Input File <==

--------------------------------------------------------------------------
#psi4
#
memory 32 gb

molecule  {
0 1
  N       -1.5932770    -0.7762670    -0.0000010
  N       -1.2433830     1.4240120     0.0000010
  N        0.9927230    -1.4534560     0.0000030
  C       -0.6561680     0.2207960     0.0000070
  C        0.7646460    -0.1168500     0.0000020
  C        1.7974510     0.8476430     0.0000020
  C       -2.8387770    -0.2049930    -0.0000090
  C       -2.5875250     1.1588080    -0.0000060
  C        3.1063280     0.3562510    -0.0000040
  C        1.5337640     2.3273650     0.0000030
  C       -4.1038310    -0.9929000     0.0000030
  C        3.3549510    -1.0153620    -0.0000030
  C        2.1852260    -1.9430682    -0.0000009
  H       -1.3380790    -1.7591850     0.0000060
  H       -3.3182890     1.9585790    -0.0000140
  H        3.9358980     1.0613790    -0.0000050
  H        0.9464400     2.6235720    -0.8719580
  H        0.9464450     2.6235710     0.8719680
  H        2.4827640     2.8719440     0.0000020
  H       -4.1845960    -1.6320300    -0.8856740
  H       -4.1845630    -1.6320460     0.8856710
  H       -4.9567250    -0.3101180     0.0000250
  H        4.3696920    -1.4037000    -0.0000080
  H        2.4020820    -2.9609650     0.0000010
units angstrom
no_reorient  #important for SAPT in psi4, default
symmetry c1  #important for SAPT in psi4, default
}

set PROPERTIES_ORIGIN ["COM"]
properties('MP2/aug-cc-pvtz', properties = ['dipole'])
--------------------------------------------------------------------------

    Molecular point group: c1
  Charge       = 0
  Multiplicity = 1
  Basis Set: AUG-CC-PVTZ
    Blend: AUG-CC-PVTZ
  Basis Set: (AUG-CC-PVTZ AUX)
    Blend: AUG-CC-PVTZ-JKFIT

    Orbital Energies [Eh]
    ---------------------

    Doubly Occupied:

       1A    -15.606069     2A    -15.570780     3A    -15.541609
       4A    -11.292567     5A    -11.286685     6A    -11.282304
       7A    -11.263365     8A    -11.254937     9A    -11.253612
      10A    -11.252111    11A    -11.236674    12A    -11.233462
      13A    -11.215519    14A     -1.333954    15A     -1.267506
      16A     -1.158966    17A     -1.101700    18A     -1.067099
      19A     -1.023137    20A     -0.960447    21A     -0.926871
      22A     -0.859122    23A     -0.838057    24A     -0.803281
      25A     -0.782289    26A     -0.727166    27A     -0.685838
      28A     -0.654037    29A     -0.630574    30A     -0.616972
      31A     -0.602177    32A     -0.579597    33A     -0.575967
      34A     -0.563635    35A     -0.560357    36A     -0.551581
      37A     -0.547308    38A     -0.544166    39A     -0.524607
      40A     -0.513074    41A     -0.429402    42A     -0.414357
      43A     -0.392900    44A     -0.387283    45A     -0.355425
      46A     -0.273530

  @DF-RHF Final Energy:  -548.61692071442292

   => Energetics <=

    Nuclear Repulsion Energy =            740.9808336012889640
    One-Electron Energy =               -2214.1113579911389024
    Two-Electron Energy =                 924.5136036754271345
    Total Energy =                       -548.6169207144229176
  Basis Set: (AUG-CC-PVTZ AUX)
    Blend: AUG-CC-PVTZ-RI
    Molecular point group: c1

    Geometry (in Angstrom), charge = 0, multiplicity = 1:

       Center              X                  Y                   Z               Mass
    ------------   -----------------  -----------------  -----------------  -----------------
         N           -1.604429114069    -0.763685050559    -0.000000915184    14.003074004430
         N           -1.254535114069     1.436593949441     0.000001084816    14.003074004430
         N            0.981570885931    -1.440874050559     0.000003084816    14.003074004430
         C           -0.667320114069     0.233377949441     0.000007084816    12.000000000000
         C            0.753493885931    -0.104268050559     0.000002084816    12.000000000000
         C            1.786298885931     0.860224949441     0.000002084816    12.000000000000
         C           -2.849929114069    -0.192411050559    -0.000008915184    12.000000000000
         C           -2.598677114069     1.171389949441    -0.000005915184    12.000000000000
         C            3.095175885931     0.368832949441    -0.000003915184    12.000000000000
         C            1.522611885931     2.339946949441     0.000003084816    12.000000000000
         C           -4.114983114069    -0.980318050559     0.000003084816    12.000000000000
         C            3.343798885931    -1.002780050559    -0.000002915184    12.000000000000
         C            2.174073885931    -1.930486250559    -0.000000815184    12.000000000000
         H           -1.349231114069    -1.746603050559     0.000006084816     1.007825032230
         H           -3.329441114069     1.971160949441    -0.000013915184     1.007825032230
         H            3.924745885931     1.073960949441    -0.000004915184     1.007825032230
         H            0.935287885931     2.636153949441    -0.871957915184     1.007825032230
         H            0.935292885931     2.636152949441     0.871968084816     1.007825032230
         H            2.471611885931     2.884525949441     0.000002084816     1.007825032230
         H           -4.195748114069    -1.619448050559    -0.885673915184     1.007825032230
         H           -4.195715114069    -1.619464050559     0.885671084816     1.007825032230
         H           -4.967877114069    -0.297536050559     0.000025084816     1.007825032230
         H            4.358539885931    -1.391118050559    -0.000007915184     1.007825032230
         H            2.390929885931    -2.948383050559     0.000001084816     1.007825032230

  Basis Set: AUG-CC-PVTZ
    Blend: AUG-CC-PVTZ
  Basis Set: (AUG-CC-PVTZ AUX)
    Blend: AUG-CC-PVTZ-JKFIT
	 Reference Energy          =    -548.6169207144229176 [Eh]
	 Singles Energy            =      -0.0000000000000000 [Eh]
	 Same-Spin Energy          =      -0.6111066387401207 [Eh]
	 Opposite-Spin Energy      =      -1.8782280933095756 [Eh]
	 Correlation Energy        =      -2.4893347320496964 [Eh]
	 Total Energy              =    -551.1062554464725736 [Eh]

	 ================> DF-SCS-MP2 Energies <==================
	-----------------------------------------------------------
	 SCS Same-Spin Scale       =       0.3333333333333333 [-]
	 SCS Opposite-Spin Scale   =       1.2000000000000000 [-]
	 SCS Same-Spin Energy      =      -0.2037022129133736 [Eh]
	 SCS Opposite-Spin Energy  =      -2.2538737119714907 [Eh]
	 SCS Correlation Energy    =      -2.4575759248848641 [Eh]
	 SCS Total Energy          =    -551.0744966393077675 [Eh]
	-----------------------------------------------------------

  Dipole Moment: [D]
     X:     0.1290      Y:    -1.9245      Z:     0.0000     Total:     1.9288

*** Psi4 exiting successfully. Buy a developer a beer!
