                               Psi4 1.4a3.dev225

  ==> Input File <==

--------------------------------------------------------------------------
#psi4
#
memory 32 gb

molecule  {
0 1
  N       -1.5932770    -0.7762670    -0.0000010
  N       -1.2433830     1.4240120     0.0000010
  N        0.9927230    -1.4534560     0.0000030
  C       -0.7246539     0.1479285     0.0000064
  C        0.7646460    -0.1168500     0.0000020
  C        1.7974510     0.8476430     0.0000020
  C       -2.8387770    -0.2049930    -0.0000090
  C       -2.5875250     1.1588080    -0.0000060
  C        3.1063280     0.3562510    -0.0000040
  C        1.5337640     2.3273650     0.0000030
  C       -4.1038310    -0.9929000     0.0000030
  C        3.3549510    -1.0153620    -0.0000030
  C        2.2635760    -1.8809290    -0.0000010
  H       -1.3380790    -1.7591850     0.0000060
  H       -3.3182890     1.9585790    -0.0000140
  H        3.9358980     1.0613790    -0.0000050
  H        0.9464400     2.6235720    -0.8719580
  H        0.9464450     2.6235710     0.8719680
  H        2.4827640     2.8719440     0.0000020
  H       -4.1845960    -1.6320300    -0.8856740
  H       -4.1845630    -1.6320460     0.8856710
  H       -4.9567250    -0.3101180     0.0000250
  H        4.3696920    -1.4037000    -0.0000080
  H        2.4020820    -2.9609650     0.0000010
units angstrom
no_reorient  #important for SAPT in psi4, default
symmetry c1  #important for SAPT in psi4, default
}

set PROPERTIES_ORIGIN ["COM"]
properties('MP2/aug-cc-pvtz', properties = ['dipole'])
--------------------------------------------------------------------------

    Molecular point group: c1
  Charge       = 0
  Multiplicity = 1
  Basis Set: AUG-CC-PVTZ
    Blend: AUG-CC-PVTZ
  Basis Set: (AUG-CC-PVTZ AUX)
    Blend: AUG-CC-PVTZ-JKFIT

    Orbital Energies [Eh]
    ---------------------

    Doubly Occupied:

       1A    -15.615602     2A    -15.572566     3A    -15.537949
       4A    -11.292683     5A    -11.292018     6A    -11.276704
       7A    -11.257259     8A    -11.256930     9A    -11.253921
      10A    -11.243557    11A    -11.236888    12A    -11.235521
      13A    -11.214000    14A     -1.360588    15A     -1.258259
      16A     -1.161532    17A     -1.098565    18A     -1.070333
      19A     -1.032243    20A     -0.952622    21A     -0.925212
      22A     -0.858942    23A     -0.835914    24A     -0.817746
      25A     -0.790957    26A     -0.731450    27A     -0.674812
      28A     -0.661794    29A     -0.628341    30A     -0.621778
      31A     -0.593850    32A     -0.577553    33A     -0.576318
      34A     -0.567835    35A     -0.556465    36A     -0.555108
      37A     -0.547673    38A     -0.539379    39A     -0.523201
      40A     -0.500070    41A     -0.433549    42A     -0.426747
      43A     -0.394128    44A     -0.385883    45A     -0.352157
      46A     -0.280811

  @DF-RHF Final Energy:  -548.61486105744780

   => Energetics <=

    Nuclear Repulsion Energy =            741.7451954861403465
    One-Electron Energy =               -2215.5652818773046420
    Two-Electron Energy =                 925.2052253337164984
    Total Energy =                       -548.6148610574477971
  Basis Set: (AUG-CC-PVTZ AUX)
    Blend: AUG-CC-PVTZ-RI
    Molecular point group: c1

    Geometry (in Angstrom), charge = 0, multiplicity = 1:

       Center              X                  Y                   Z               Mass
    ------------   -----------------  -----------------  -----------------  -----------------
         N           -1.605112952404    -0.762941300718    -0.000000866656    14.003074004430
         N           -1.255218952404     1.437337699282     0.000001133344    14.003074004430
         N            0.980887047596    -1.440130300718     0.000003133344    14.003074004430
         C           -0.736489852404     0.161254199282     0.000006533344    12.000000000000
         C            0.752810047596    -0.103524300718     0.000002133344    12.000000000000
         C            1.785615047596     0.860968699282     0.000002133344    12.000000000000
         C           -2.850612952404    -0.191667300718    -0.000008866656    12.000000000000
         C           -2.599360952404     1.172133699282    -0.000005866656    12.000000000000
         C            3.094492047596     0.369576699282    -0.000003866656    12.000000000000
         C            1.521928047596     2.340690699282     0.000003133344    12.000000000000
         C           -4.115666952404    -0.979574300718     0.000003133344    12.000000000000
         C            3.343115047596    -1.002036300718    -0.000002866656    12.000000000000
         C            2.251740047596    -1.867603300718    -0.000000866656    12.000000000000
         H           -1.349914952404    -1.745859300718     0.000006133344     1.007825032230
         H           -3.330124952404     1.971904699282    -0.000013866656     1.007825032230
         H            3.924062047596     1.074704699282    -0.000004866656     1.007825032230
         H            0.934604047596     2.636897699282    -0.871957866656     1.007825032230
         H            0.934609047596     2.636896699282     0.871968133344     1.007825032230
         H            2.470928047596     2.885269699282     0.000002133344     1.007825032230
         H           -4.196431952404    -1.618704300718    -0.885673866656     1.007825032230
         H           -4.196398952404    -1.618720300718     0.885671133344     1.007825032230
         H           -4.968560952404    -0.296792300718     0.000025133344     1.007825032230
         H            4.357856047596    -1.390374300718    -0.000007866656     1.007825032230
         H            2.390246047596    -2.947639300718     0.000001133344     1.007825032230

  Basis Set: AUG-CC-PVTZ
    Blend: AUG-CC-PVTZ
  Basis Set: (AUG-CC-PVTZ AUX)
    Blend: AUG-CC-PVTZ-JKFIT
	 Reference Energy          =    -548.6148610574477971 [Eh]
	 Singles Energy            =      -0.0000000000000000 [Eh]
	 Same-Spin Energy          =      -0.6111414746357769 [Eh]
	 Opposite-Spin Energy      =      -1.8776897144681166 [Eh]
	 Correlation Energy        =      -2.4888311891038937 [Eh]
	 Total Energy              =    -551.1036922465516454 [Eh]

	 ================> DF-SCS-MP2 Energies <==================
	-----------------------------------------------------------
	 SCS Same-Spin Scale       =       0.3333333333333333 [-]
	 SCS Opposite-Spin Scale   =       1.2000000000000000 [-]
	 SCS Same-Spin Energy      =      -0.2037138248785923 [Eh]
	 SCS Opposite-Spin Energy  =      -2.2532276573617400 [Eh]
	 SCS Correlation Energy    =      -2.4569414822403322 [Eh]
	 SCS Total Energy          =    -551.0718025396881785 [Eh]
	-----------------------------------------------------------

  Dipole Moment: [D]
     X:     0.1722      Y:    -1.9141      Z:     0.0000     Total:     1.9218

*** Psi4 exiting successfully. Buy a developer a beer!
