                               Psi4 1.4a3.dev225

  ==> Input File <==

--------------------------------------------------------------------------
#psi4
#
memory 32 gb

molecule  {
0 1
  N       -1.5932770    -0.7762670    -0.0000010
  N       -1.2433830     1.4240120     0.0000010
  N        0.9927230    -1.4534560     0.0000030
  C       -0.6561680     0.2207960     0.0000070
  C        0.7989355    -0.1523068     0.0000018
  C        1.7974510     0.8476430     0.0000020
  C       -2.8387770    -0.2049930    -0.0000090
  C       -2.5875250     1.1588080    -0.0000060
  C        3.1063280     0.3562510    -0.0000040
  C        1.5337640     2.3273650     0.0000030
  C       -4.1038310    -0.9929000     0.0000030
  C        3.3549510    -1.0153620    -0.0000030
  C        2.2635760    -1.8809290    -0.0000010
  H       -1.3380790    -1.7591850     0.0000060
  H       -3.3182890     1.9585790    -0.0000140
  H        3.9358980     1.0613790    -0.0000050
  H        0.9464400     2.6235720    -0.8719580
  H        0.9464450     2.6235710     0.8719680
  H        2.4827640     2.8719440     0.0000020
  H       -4.1845960    -1.6320300    -0.8856740
  H       -4.1845630    -1.6320460     0.8856710
  H       -4.9567250    -0.3101180     0.0000250
  H        4.3696920    -1.4037000    -0.0000080
  H        2.4020820    -2.9609650     0.0000010
units angstrom
no_reorient  #important for SAPT in psi4, default
symmetry c1  #important for SAPT in psi4, default
}

set PROPERTIES_ORIGIN ["COM"]
properties('MP2/aug-cc-pvtz', properties = ['dipole'])
--------------------------------------------------------------------------

    Molecular point group: c1
  Charge       = 0
  Multiplicity = 1
  Basis Set: AUG-CC-PVTZ
    Blend: AUG-CC-PVTZ
  Basis Set: (AUG-CC-PVTZ AUX)
    Blend: AUG-CC-PVTZ-JKFIT

    Orbital Energies [Eh]
    ---------------------

    Doubly Occupied:

       1A    -15.605870     2A    -15.571897     3A    -15.542191
       4A    -11.293718     5A    -11.290106     6A    -11.277859
       7A    -11.262990     8A    -11.256405     9A    -11.252940
      10A    -11.243852    11A    -11.236407    12A    -11.233123
      13A    -11.217138    14A     -1.333308    15A     -1.271126
      16A     -1.158624    17A     -1.101911    18A     -1.069701
      19A     -1.028794    20A     -0.955013    21A     -0.929388
      22A     -0.862052    23A     -0.840198    24A     -0.803299
      25A     -0.779178    26A     -0.724074    27A     -0.679574
      28A     -0.660336    29A     -0.626643    30A     -0.616238
      31A     -0.593136    32A     -0.581027    33A     -0.575725
      34A     -0.563416    35A     -0.560102    36A     -0.551644
      37A     -0.550908    38A     -0.542988    39A     -0.528082
      40A     -0.506290    41A     -0.435539    42A     -0.423304
      43A     -0.393075    44A     -0.389614    45A     -0.352285
      46A     -0.281236

  @DF-RHF Final Energy:  -548.62656313876550

   => Energetics <=

    Nuclear Repulsion Energy =            741.4373097881091326
    One-Electron Energy =               -2215.0230966207309393
    Two-Electron Energy =                 924.9592236938563019
    Total Energy =                       -548.6265631387655048
  Basis Set: (AUG-CC-PVTZ AUX)
    Blend: AUG-CC-PVTZ-RI
    Molecular point group: c1

    Geometry (in Angstrom), charge = 0, multiplicity = 1:

       Center              X                  Y                   Z               Mass
    ------------   -----------------  -----------------  -----------------  -----------------
         N           -1.612237957062    -0.765534833915    -0.000000894386    14.003074004430
         N           -1.262343957062     1.434744166085     0.000001105614    14.003074004430
         N            0.973762042938    -1.442723833915     0.000003105614    14.003074004430
         C           -0.675128957062     0.231528166085     0.000007105614    12.000000000000
         C            0.779974542938    -0.141574633915     0.000001905614    12.000000000000
         C            1.778490042938     0.858375166085     0.000002105614    12.000000000000
         C           -2.857737957062    -0.194260833915    -0.000008894386    12.000000000000
         C           -2.606485957062     1.169540166085    -0.000005894386    12.000000000000
         C            3.087367042938     0.366983166085    -0.000003894386    12.000000000000
         C            1.514803042938     2.338097166085     0.000003105614    12.000000000000
         C           -4.122791957062    -0.982167833915     0.000003105614    12.000000000000
         C            3.335990042938    -1.004629833915    -0.000002894386    12.000000000000
         C            2.244615042938    -1.870196833915    -0.000000894386    12.000000000000
         H           -1.357039957062    -1.748452833915     0.000006105614     1.007825032230
         H           -3.337249957062     1.969311166085    -0.000013894386     1.007825032230
         H            3.916937042938     1.072111166085    -0.000004894386     1.007825032230
         H            0.927479042938     2.634304166085    -0.871957894386     1.007825032230
         H            0.927484042938     2.634303166085     0.871968105614     1.007825032230
         H            2.463803042938     2.882676166085     0.000002105614     1.007825032230
         H           -4.203556957062    -1.621297833915    -0.885673894386     1.007825032230
         H           -4.203523957062    -1.621313833915     0.885671105614     1.007825032230
         H           -4.975685957062    -0.299385833915     0.000025105614     1.007825032230
         H            4.350731042938    -1.392967833915    -0.000007894386     1.007825032230
         H            2.383121042938    -2.950232833915     0.000001105614     1.007825032230

  Basis Set: AUG-CC-PVTZ
    Blend: AUG-CC-PVTZ
  Basis Set: (AUG-CC-PVTZ AUX)
    Blend: AUG-CC-PVTZ-JKFIT
	 Reference Energy          =    -548.6265631387655048 [Eh]
	 Singles Energy            =      -0.0000000000000000 [Eh]
	 Same-Spin Energy          =      -0.6107280350970374 [Eh]
	 Opposite-Spin Energy      =      -1.8772099287246962 [Eh]
	 Correlation Energy        =      -2.4879379638217336 [Eh]
	 Total Energy              =    -551.1145011025872691 [Eh]

	 ================> DF-SCS-MP2 Energies <==================
	-----------------------------------------------------------
	 SCS Same-Spin Scale       =       0.3333333333333333 [-]
	 SCS Opposite-Spin Scale   =       1.2000000000000000 [-]
	 SCS Same-Spin Energy      =      -0.2035760116990125 [Eh]
	 SCS Opposite-Spin Energy  =      -2.2526519144696353 [Eh]
	 SCS Correlation Energy    =      -2.4562279261686477 [Eh]
	 SCS Total Energy          =    -551.0827910649340993 [Eh]
	-----------------------------------------------------------

  Dipole Moment: [D]
     X:     0.3640      Y:    -1.7820      Z:     0.0000     Total:     1.8188

*** Psi4 exiting successfully. Buy a developer a beer!
