                               Psi4 1.4a3.dev225

  ==> Input File <==

--------------------------------------------------------------------------
#psi4
#
memory 32 gb

molecule  {
0 1
  N       -1.5932770    -0.7762670    -0.0000010
  N       -1.2433830     1.4240120     0.0000010
  N        0.9927230    -1.4534560     0.0000030
  C       -0.6561680     0.2207960     0.0000070
  C        0.7646460    -0.1168500     0.0000020
  C        1.7974510     0.8476430     0.0000020
  C       -2.8387770    -0.2049930    -0.0000090
  C       -2.5875250     1.1588080    -0.0000060
  C        3.1063280     0.3562510    -0.0000040
  C        1.5337640     2.3273650     0.0000030
  C       -4.1038310    -0.9929000     0.0000030
  C        3.3549510    -1.0153620    -0.0000030
  C        2.2635760    -1.8809290    -0.0000010
  H       -1.3380790    -1.7591850     0.0000060
  H       -3.3182890     1.9585790    -0.0000140
  H        3.9358980     1.0613790    -0.0000050
  H        0.9464400     2.6235720    -0.8719580
  H        0.9464450     2.6235710     0.8719680
  H        2.4827640     2.8719440     0.0000020
  H       -4.1199117    -1.6662529    -0.8635774
  H       -4.1845630    -1.6320460     0.8856710
  H       -4.9567250    -0.3101180     0.0000250
  H        4.3696920    -1.4037000    -0.0000080
  H        2.4020820    -2.9609650     0.0000010
units angstrom
no_reorient  #important for SAPT in psi4, default
symmetry c1  #important for SAPT in psi4, default
}

set PROPERTIES_ORIGIN ["COM"]
properties('MP2/aug-cc-pvtz', properties = ['dipole'])
--------------------------------------------------------------------------

    Molecular point group: c1
  Charge       = 0
  Multiplicity = 1
  Basis Set: AUG-CC-PVTZ
    Blend: AUG-CC-PVTZ
  Basis Set: (AUG-CC-PVTZ AUX)
    Blend: AUG-CC-PVTZ-JKFIT

    Orbital Energies [Eh]
    ---------------------

    Doubly Occupied:

       1A    -15.607485     2A    -15.572587     3A    -15.543960
       4A    -11.293234     5A    -11.289329     6A    -11.277092
       7A    -11.265110     8A    -11.256262     9A    -11.252606
      10A    -11.243222    11A    -11.238115    12A    -11.234306
      13A    -11.215439    14A     -1.335092    15A     -1.258047
      16A     -1.160522    17A     -1.098521    18A     -1.073032
      19A     -1.029381    20A     -0.956899    21A     -0.929344
      22A     -0.865036    23A     -0.835829    24A     -0.804735
      25A     -0.778624    26A     -0.726740    27A     -0.676341
      28A     -0.660615    29A     -0.629627    30A     -0.617505
      31A     -0.594964    32A     -0.579139    33A     -0.574699
      34A     -0.565051    35A     -0.561640    36A     -0.552766
      37A     -0.547944    38A     -0.546269    39A     -0.522541
      40A     -0.507534    41A     -0.433293    42A     -0.424180
      43A     -0.394308    44A     -0.386415    45A     -0.354979
      46A     -0.278839

  @DF-RHF Final Energy:  -548.62648243925003

   => Energetics <=

    Nuclear Repulsion Energy =            741.4842353391452434
    One-Electron Energy =               -2215.1230388798830973
    Two-Electron Energy =                 925.0123211014878279
    Total Energy =                       -548.6264824392500259
  Basis Set: (AUG-CC-PVTZ AUX)
    Blend: AUG-CC-PVTZ-RI
    Molecular point group: c1

    Geometry (in Angstrom), charge = 0, multiplicity = 1:

       Center              X                  Y                   Z               Mass
    ------------   -----------------  -----------------  -----------------  -----------------
         N           -1.610237420083    -0.767793652673    -0.000129562854    14.003074004430
         N           -1.260343420083     1.432485347327    -0.000127562854    14.003074004430
         N            0.975762579917    -1.444982652673    -0.000125562854    14.003074004430
         C           -0.673128420083     0.229269347327    -0.000121562854    12.000000000000
         C            0.747685579917    -0.108376652673    -0.000126562854    12.000000000000
         C            1.780490579917     0.856116347327    -0.000126562854    12.000000000000
         C           -2.855737420083    -0.196519652673    -0.000137562854    12.000000000000
         C           -2.604485420083     1.167281347327    -0.000134562854    12.000000000000
         C            3.089367579917     0.364724347327    -0.000132562854    12.000000000000
         C            1.516803579917     2.335838347327    -0.000125562854    12.000000000000
         C           -4.120791420083    -0.984426652673    -0.000125562854    12.000000000000
         C            3.337990579917    -1.006888652673    -0.000131562854    12.000000000000
         C            2.246615579917    -1.872455652673    -0.000129562854    12.000000000000
         H           -1.355039420083    -1.750711652673    -0.000122562854     1.007825032230
         H           -3.335249420083     1.967052347327    -0.000142562854     1.007825032230
         H            3.918937579917     1.069852347327    -0.000133562854     1.007825032230
         H            0.929479579917     2.632045347327    -0.872086562854     1.007825032230
         H            0.929484579917     2.632044347327     0.871839437146     1.007825032230
         H            2.465803579917     2.880417347327    -0.000126562854     1.007825032230
         H           -4.136872120083    -1.657779552673    -0.863705962854     1.007825032230
         H           -4.201523420083    -1.623572652673     0.885542437146     1.007825032230
         H           -4.973685420083    -0.301644652673    -0.000103562854     1.007825032230
         H            4.352731579917    -1.395226652673    -0.000136562854     1.007825032230
         H            2.385121579917    -2.952491652673    -0.000127562854     1.007825032230

  Basis Set: AUG-CC-PVTZ
    Blend: AUG-CC-PVTZ
  Basis Set: (AUG-CC-PVTZ AUX)
    Blend: AUG-CC-PVTZ-JKFIT
	 Reference Energy          =    -548.6264824392500259 [Eh]
	 Singles Energy            =      -0.0000000000000000 [Eh]
	 Same-Spin Energy          =      -0.6116310382903281 [Eh]
	 Opposite-Spin Energy      =      -1.8786096054147763 [Eh]
	 Correlation Energy        =      -2.4902406437051043 [Eh]
	 Total Energy              =    -551.1167230829551045 [Eh]

	 ================> DF-SCS-MP2 Energies <==================
	-----------------------------------------------------------
	 SCS Same-Spin Scale       =       0.3333333333333333 [-]
	 SCS Opposite-Spin Scale   =       1.2000000000000000 [-]
	 SCS Same-Spin Energy      =      -0.2038770127634427 [Eh]
	 SCS Opposite-Spin Energy  =      -2.2543315264977313 [Eh]
	 SCS Correlation Energy    =      -2.4582085392611739 [Eh]
	 SCS Total Energy          =    -551.0846909785111620 [Eh]
	-----------------------------------------------------------

  Dipole Moment: [D]
     X:     0.1581      Y:    -1.7687      Z:     0.0152     Total:     1.7758

*** Psi4 exiting successfully. Buy a developer a beer!
