                               Psi4 1.4a3.dev225

  ==> Input File <==

--------------------------------------------------------------------------
#psi4
#
memory 32 gb

molecule  {
0 1
  N       -1.5932770    -0.7762670    -0.0000010
  N       -1.2433830     1.4240120     0.0000010
  N        0.9927230    -1.4534560     0.0000030
  C       -0.6561680     0.2207960     0.0000070
  C        0.7646460    -0.1168500     0.0000020
  C        1.7974510     0.8476430     0.0000020
  C       -2.8387770    -0.2049930    -0.0000090
  C       -2.5875250     1.1588080    -0.0000060
  C        3.1063280     0.3562510    -0.0000040
  C        1.5337640     2.3273650     0.0000030
  C       -4.1038310    -0.9929000     0.0000030
  C        3.3549510    -1.0153620    -0.0000030
  C        2.2446197    -1.8745527    -0.0000009
  H       -1.3380790    -1.7591850     0.0000060
  H       -3.3182890     1.9585790    -0.0000140
  H        3.9358980     1.0613790    -0.0000050
  H        0.9464400     2.6235720    -0.8719580
  H        0.9464450     2.6235710     0.8719680
  H        2.4827640     2.8719440     0.0000020
  H       -4.1845960    -1.6320300    -0.8856740
  H       -4.1845630    -1.6320460     0.8856710
  H       -4.9567250    -0.3101180     0.0000250
  H        4.3696920    -1.4037000    -0.0000080
  H        2.4020820    -2.9609650     0.0000010
units angstrom
no_reorient  #important for SAPT in psi4, default
symmetry c1  #important for SAPT in psi4, default
}

set PROPERTIES_ORIGIN ["COM"]
properties('MP2/aug-cc-pvtz', properties = ['dipole'])
--------------------------------------------------------------------------

    Molecular point group: c1
  Charge       = 0
  Multiplicity = 1
  Basis Set: AUG-CC-PVTZ
    Blend: AUG-CC-PVTZ
  Basis Set: (AUG-CC-PVTZ AUX)
    Blend: AUG-CC-PVTZ-JKFIT

    Orbital Energies [Eh]
    ---------------------

    Doubly Occupied:

       1A    -15.607560     2A    -15.571637     3A    -15.543814
       4A    -11.293300     5A    -11.288982     6A    -11.277579
       7A    -11.265192     8A    -11.256202     9A    -11.252516
      10A    -11.244113    11A    -11.237650    12A    -11.234647
      13A    -11.215439    14A     -1.335217    15A     -1.263206
      16A     -1.160461    17A     -1.099899    18A     -1.072426
      19A     -1.028376    20A     -0.957886    21A     -0.928509
      22A     -0.864820    23A     -0.835824    24A     -0.804926
      25A     -0.778650    26A     -0.727095    27A     -0.676996
      28A     -0.661163    29A     -0.628887    30A     -0.618001
      31A     -0.593677    32A     -0.580130    33A     -0.574919
      34A     -0.564502    35A     -0.561105    36A     -0.552357
      37A     -0.548801    38A     -0.544908    39A     -0.524699
      40A     -0.508093    41A     -0.432689    42A     -0.423671
      43A     -0.394315    44A     -0.386718    45A     -0.356250
      46A     -0.278315

  @DF-RHF Final Energy:  -548.62716131331479

   => Energetics <=

    Nuclear Repulsion Energy =            741.7111064928501492
    One-Electron Energy =               -2215.5642957213790396
    Two-Electron Energy =                 925.2260279152141038
    Total Energy =                       -548.6271613133147866
  Basis Set: (AUG-CC-PVTZ AUX)
    Blend: AUG-CC-PVTZ-RI
    Molecular point group: c1

    Geometry (in Angstrom), charge = 0, multiplicity = 1:

       Center              X                  Y                   Z               Mass
    ------------   -----------------  -----------------  -----------------  -----------------
         N           -1.608546640141    -0.768434954297    -0.000000915184    14.003074004430
         N           -1.258652640141     1.431844045703     0.000001084816    14.003074004430
         N            0.977453359859    -1.445623954297     0.000003084816    14.003074004430
         C           -0.671437640141     0.228628045703     0.000007084816    12.000000000000
         C            0.749376359859    -0.109017954297     0.000002084816    12.000000000000
         C            1.782181359859     0.855475045703     0.000002084816    12.000000000000
         C           -2.854046640141    -0.197160954297    -0.000008915184    12.000000000000
         C           -2.602794640141     1.166640045703    -0.000005915184    12.000000000000
         C            3.091058359859     0.364083045703    -0.000003915184    12.000000000000
         C            1.518494359859     2.335197045703     0.000003084816    12.000000000000
         C           -4.119100640141    -0.985067954297     0.000003084816    12.000000000000
         C            3.339681359859    -1.007529954297    -0.000002915184    12.000000000000
         C            2.229350059859    -1.866720654297    -0.000000815184    12.000000000000
         H           -1.353348640141    -1.751352954297     0.000006084816     1.007825032230
         H           -3.333558640141     1.966411045703    -0.000013915184     1.007825032230
         H            3.920628359859     1.069211045703    -0.000004915184     1.007825032230
         H            0.931170359859     2.631404045703    -0.871957915184     1.007825032230
         H            0.931175359859     2.631403045703     0.871968084816     1.007825032230
         H            2.467494359859     2.879776045703     0.000002084816     1.007825032230
         H           -4.199865640141    -1.624197954297    -0.885673915184     1.007825032230
         H           -4.199832640141    -1.624213954297     0.885671084816     1.007825032230
         H           -4.971994640141    -0.302285954297     0.000025084816     1.007825032230
         H            4.354422359859    -1.395867954297    -0.000007915184     1.007825032230
         H            2.386812359859    -2.953132954297     0.000001084816     1.007825032230

  Basis Set: AUG-CC-PVTZ
    Blend: AUG-CC-PVTZ
  Basis Set: (AUG-CC-PVTZ AUX)
    Blend: AUG-CC-PVTZ-JKFIT
	 Reference Energy          =    -548.6271613133147866 [Eh]
	 Singles Energy            =      -0.0000000000000000 [Eh]
	 Same-Spin Energy          =      -0.6114810416720298 [Eh]
	 Opposite-Spin Energy      =      -1.8782057064893412 [Eh]
	 Correlation Energy        =      -2.4896867481613709 [Eh]
	 Total Energy              =    -551.1168480614761620 [Eh]

	 ================> DF-SCS-MP2 Energies <==================
	-----------------------------------------------------------
	 SCS Same-Spin Scale       =       0.3333333333333333 [-]
	 SCS Opposite-Spin Scale   =       1.2000000000000000 [-]
	 SCS Same-Spin Energy      =      -0.2038270138906766 [Eh]
	 SCS Opposite-Spin Energy  =      -2.2538468477872091 [Eh]
	 SCS Correlation Energy    =      -2.4576738616778857 [Eh]
	 SCS Total Energy          =    -551.0848351749926906 [Eh]
	-----------------------------------------------------------

  Dipole Moment: [D]
     X:     0.1431      Y:    -1.7570      Z:     0.0000     Total:     1.7628

*** Psi4 exiting successfully. Buy a developer a beer!
