                               Psi4 1.4a3.dev225

  ==> Input File <==

--------------------------------------------------------------------------
#psi4
#
memory 32 gb

molecule  {
0 1
  N       -1.5932770    -0.7762670    -0.0000010
  N       -1.2433830     1.4240120     0.0000010
  N        0.9927230    -1.4534560     0.0000030
  C       -0.6424708     0.2353695     0.0000071
  C        0.7646460    -0.1168500     0.0000020
  C        1.7974510     0.8476430     0.0000020
  C       -2.8387770    -0.2049930    -0.0000090
  C       -2.5875250     1.1588080    -0.0000060
  C        3.1063280     0.3562510    -0.0000040
  C        1.5337640     2.3273650     0.0000030
  C       -4.1038310    -0.9929000     0.0000030
  C        3.3549510    -1.0153620    -0.0000030
  C        2.2635760    -1.8809290    -0.0000010
  H       -1.3380790    -1.7591850     0.0000060
  H       -3.3182890     1.9585790    -0.0000140
  H        3.9358980     1.0613790    -0.0000050
  H        0.9464400     2.6235720    -0.8719580
  H        0.9464450     2.6235710     0.8719680
  H        2.4827640     2.8719440     0.0000020
  H       -4.1845960    -1.6320300    -0.8856740
  H       -4.1845630    -1.6320460     0.8856710
  H       -4.9567250    -0.3101180     0.0000250
  H        4.3696920    -1.4037000    -0.0000080
  H        2.4020820    -2.9609650     0.0000010
units angstrom
no_reorient  #important for SAPT in psi4, default
symmetry c1  #important for SAPT in psi4, default
}

set PROPERTIES_ORIGIN ["COM"]
properties('MP2/aug-cc-pvtz', properties = ['dipole'])
--------------------------------------------------------------------------

    Molecular point group: c1
  Charge       = 0
  Multiplicity = 1
  Basis Set: AUG-CC-PVTZ
    Blend: AUG-CC-PVTZ
  Basis Set: (AUG-CC-PVTZ AUX)
    Blend: AUG-CC-PVTZ-JKFIT

    Orbital Energies [Eh]
    ---------------------

    Doubly Occupied:

       1A    -15.605717     2A    -15.572705     3A    -15.545218
       4A    -11.293635     5A    -11.288875     6A    -11.277247
       7A    -11.266768     8A    -11.256220     9A    -11.252472
      10A    -11.243264    11A    -11.238068    12A    -11.234281
      13A    -11.215836    14A     -1.331250    15A     -1.258083
      16A     -1.160296    17A     -1.098634    18A     -1.073620
      19A     -1.028368    20A     -0.957816    21A     -0.930175
      22A     -0.866536    23A     -0.835860    24A     -0.803002
      25A     -0.776706    26A     -0.725564    27A     -0.676546
      28A     -0.660649    29A     -0.630633    30A     -0.616456
      31A     -0.594321    32A     -0.580176    33A     -0.575026
      34A     -0.565875    35A     -0.560689    36A     -0.551693
      37A     -0.548642    38A     -0.545295    39A     -0.522712
      40A     -0.508605    41A     -0.433116    42A     -0.423546
      43A     -0.395154    44A     -0.386367    45A     -0.355542
      46A     -0.278674

  @DF-RHF Final Energy:  -548.62609150524224

   => Energetics <=

    Nuclear Repulsion Energy =            741.3364526880698122
    One-Electron Energy =               -2214.8332192925881827
    Two-Electron Energy =                 924.8706750992761272
    Total Energy =                       -548.6260915052422433
  Basis Set: (AUG-CC-PVTZ AUX)
    Blend: AUG-CC-PVTZ-RI
    Molecular point group: c1

    Geometry (in Angstrom), charge = 0, multiplicity = 1:

       Center              X                  Y                   Z               Mass
    ------------   -----------------  -----------------  -----------------  -----------------
         N           -1.610810375817    -0.769003233167    -0.000000915184    14.003074004430
         N           -1.260916375817     1.431275766833     0.000001084816    14.003074004430
         N            0.975189624183    -1.446192233167     0.000003084816    14.003074004430
         C           -0.660004175817     0.242633266833     0.000007184816    12.000000000000
         C            0.747112624183    -0.109586233167     0.000002084816    12.000000000000
         C            1.779917624183     0.854906766833     0.000002084816    12.000000000000
         C           -2.856310375817    -0.197729233167    -0.000008915184    12.000000000000
         C           -2.605058375817     1.166071766833    -0.000005915184    12.000000000000
         C            3.088794624183     0.363514766833    -0.000003915184    12.000000000000
         C            1.516230624183     2.334628766833     0.000003084816    12.000000000000
         C           -4.121364375817    -0.985636233167     0.000003084816    12.000000000000
         C            3.337417624183    -1.008098233167    -0.000002915184    12.000000000000
         C            2.246042624183    -1.873665233167    -0.000000915184    12.000000000000
         H           -1.355612375817    -1.751921233167     0.000006084816     1.007825032230
         H           -3.335822375817     1.965842766833    -0.000013915184     1.007825032230
         H            3.918364624183     1.068642766833    -0.000004915184     1.007825032230
         H            0.928906624183     2.630835766833    -0.871957915184     1.007825032230
         H            0.928911624183     2.630834766833     0.871968084816     1.007825032230
         H            2.465230624183     2.879207766833     0.000002084816     1.007825032230
         H           -4.202129375817    -1.624766233167    -0.885673915184     1.007825032230
         H           -4.202096375817    -1.624782233167     0.885671084816     1.007825032230
         H           -4.974258375817    -0.302854233167     0.000025084816     1.007825032230
         H            4.352158624183    -1.396436233167    -0.000007915184     1.007825032230
         H            2.384548624183    -2.953701233167     0.000001084816     1.007825032230

  Basis Set: AUG-CC-PVTZ
    Blend: AUG-CC-PVTZ
  Basis Set: (AUG-CC-PVTZ AUX)
    Blend: AUG-CC-PVTZ-JKFIT
	 Reference Energy          =    -548.6260915052422433 [Eh]
	 Singles Energy            =      -0.0000000000000000 [Eh]
	 Same-Spin Energy          =      -0.6117625680272353 [Eh]
	 Opposite-Spin Energy      =      -1.8788732330945335 [Eh]
	 Correlation Energy        =      -2.4906358011217686 [Eh]
	 Total Energy              =    -551.1167273063640550 [Eh]

	 ================> DF-SCS-MP2 Energies <==================
	-----------------------------------------------------------
	 SCS Same-Spin Scale       =       0.3333333333333333 [-]
	 SCS Opposite-Spin Scale   =       1.2000000000000000 [-]
	 SCS Same-Spin Energy      =      -0.2039208560090784 [Eh]
	 SCS Opposite-Spin Energy  =      -2.2546478797134402 [Eh]
	 SCS Correlation Energy    =      -2.4585687357225186 [Eh]
	 SCS Total Energy          =    -551.0846602409648085 [Eh]
	-----------------------------------------------------------

  Dipole Moment: [D]
     X:     0.1626      Y:    -1.7215      Z:     0.0000     Total:     1.7292

*** Psi4 exiting successfully. Buy a developer a beer!
