                               Psi4 1.4a3.dev225

  ==> Input File <==

--------------------------------------------------------------------------
#psi4
#
memory 32 gb

molecule  {
0 1
  N       -1.5932770    -0.7762670    -0.0000010
  N       -1.2433830     1.4240120     0.0000010
  N        0.9927230    -1.4534560     0.0000030
  C       -0.6561680     0.2207960     0.0000070
  C        0.6998822    -0.0424557     0.0000025
  C        1.7974510     0.8476430     0.0000020
  C       -2.8387770    -0.2049930    -0.0000090
  C       -2.5875250     1.1588080    -0.0000060
  C        3.1063280     0.3562510    -0.0000040
  C        1.5337640     2.3273650     0.0000030
  C       -4.1038310    -0.9929000     0.0000030
  C        3.3549510    -1.0153620    -0.0000030
  C        2.2635760    -1.8809290    -0.0000010
  H       -1.3380790    -1.7591850     0.0000060
  H       -3.3182890     1.9585790    -0.0000140
  H        3.9358980     1.0613790    -0.0000050
  H        0.9464400     2.6235720    -0.8719580
  H        0.9464450     2.6235710     0.8719680
  H        2.4827640     2.8719440     0.0000020
  H       -4.1845960    -1.6320300    -0.8856740
  H       -4.1845630    -1.6320460     0.8856710
  H       -4.9567250    -0.3101180     0.0000250
  H        4.3696920    -1.4037000    -0.0000080
  H        2.4020820    -2.9609650     0.0000010
units angstrom
no_reorient  #important for SAPT in psi4, default
symmetry c1  #important for SAPT in psi4, default
}

set PROPERTIES_ORIGIN ["COM"]
properties('MP2/aug-cc-pvtz', properties = ['dipole'])
--------------------------------------------------------------------------

    Molecular point group: c1
  Charge       = 0
  Multiplicity = 1
  Basis Set: AUG-CC-PVTZ
    Blend: AUG-CC-PVTZ
  Basis Set: (AUG-CC-PVTZ AUX)
    Blend: AUG-CC-PVTZ-JKFIT

    Orbital Energies [Eh]
    ---------------------

    Doubly Occupied:

       1A    -15.610719     2A    -15.573321     3A    -15.547441
       4A    -11.290779     5A    -11.287825     6A    -11.275792
       7A    -11.270183     8A    -11.256230     9A    -11.252799
      10A    -11.242200    11A    -11.240330    12A    -11.237697
      13A    -11.212330    14A     -1.339116    15A     -1.235808
      16A     -1.164382    17A     -1.093152    18A     -1.080430
      19A     -1.029239    20A     -0.963089    21A     -0.927046
      22A     -0.871008    23A     -0.829822    24A     -0.807346
      25A     -0.776193    26A     -0.734287    27A     -0.670912
      28A     -0.660301    29A     -0.633365    30A     -0.621643
      31A     -0.595419    32A     -0.578771    33A     -0.575735
      34A     -0.567270    35A     -0.562820    36A     -0.553681
      37A     -0.549593    38A     -0.541661    39A     -0.513068
      40A     -0.508446    41A     -0.434073    42A     -0.416710
      43A     -0.398018    44A     -0.381340    45A     -0.360764
      46A     -0.273779

  @DF-RHF Final Energy:  -548.60981193918110

   => Energetics <=

    Nuclear Repulsion Energy =            741.4041288428194321
    One-Electron Energy =               -2214.9360103802791855
    Two-Electron Energy =                 924.9220695982787674
    Total Energy =                       -548.6098119391810997
  Basis Set: (AUG-CC-PVTZ AUX)
    Blend: AUG-CC-PVTZ-RI
    Molecular point group: c1

    Geometry (in Angstrom), charge = 0, multiplicity = 1:

       Center              X                  Y                   Z               Mass
    ------------   -----------------  -----------------  -----------------  -----------------
         N           -1.605370990610    -0.773150368363    -0.000000942915    14.003074004430
         N           -1.255476990610     1.427128631637     0.000001057085    14.003074004430
         N            0.980629009390    -1.450339368363     0.000003057085    14.003074004430
         C           -0.668261990610     0.223912631637     0.000007057085    12.000000000000
         C            0.687788209390    -0.039339068363     0.000002557085    12.000000000000
         C            1.785357009390     0.850759631637     0.000002057085    12.000000000000
         C           -2.850870990610    -0.201876368363    -0.000008942915    12.000000000000
         C           -2.599618990610     1.161924631637    -0.000005942915    12.000000000000
         C            3.094234009390     0.359367631637    -0.000003942915    12.000000000000
         C            1.521670009390     2.330481631637     0.000003057085    12.000000000000
         C           -4.115924990610    -0.989783368363     0.000003057085    12.000000000000
         C            3.342857009390    -1.012245368363    -0.000002942915    12.000000000000
         C            2.251482009390    -1.877812368363    -0.000000942915    12.000000000000
         H           -1.350172990610    -1.756068368363     0.000006057085     1.007825032230
         H           -3.330382990610     1.961695631637    -0.000013942915     1.007825032230
         H            3.923804009390     1.064495631637    -0.000004942915     1.007825032230
         H            0.934346009390     2.626688631637    -0.871957942915     1.007825032230
         H            0.934351009390     2.626687631637     0.871968057085     1.007825032230
         H            2.470670009390     2.875060631637     0.000002057085     1.007825032230
         H           -4.196689990610    -1.628913368363    -0.885673942915     1.007825032230
         H           -4.196656990610    -1.628929368363     0.885671057085     1.007825032230
         H           -4.968818990610    -0.307001368363     0.000025057085     1.007825032230
         H            4.357598009390    -1.400583368363    -0.000007942915     1.007825032230
         H            2.389988009390    -2.957848368363     0.000001057085     1.007825032230

  Basis Set: AUG-CC-PVTZ
    Blend: AUG-CC-PVTZ
  Basis Set: (AUG-CC-PVTZ AUX)
    Blend: AUG-CC-PVTZ-JKFIT
	 Reference Energy          =    -548.6098119391810997 [Eh]
	 Singles Energy            =      -0.0000000000000000 [Eh]
	 Same-Spin Energy          =      -0.6138992687434299 [Eh]
	 Opposite-Spin Energy      =      -1.8826464665007774 [Eh]
	 Correlation Energy        =      -2.4965457352442071 [Eh]
	 Total Energy              =    -551.1063576744253396 [Eh]

	 ================> DF-SCS-MP2 Energies <==================
	-----------------------------------------------------------
	 SCS Same-Spin Scale       =       0.3333333333333333 [-]
	 SCS Opposite-Spin Scale   =       1.2000000000000000 [-]
	 SCS Same-Spin Energy      =      -0.2046330895811433 [Eh]
	 SCS Opposite-Spin Energy  =      -2.2591757598009328 [Eh]
	 SCS Correlation Energy    =      -2.4638088493820760 [Eh]
	 SCS Total Energy          =    -551.0736207885631757 [Eh]
	-----------------------------------------------------------

  Dipole Moment: [D]
     X:    -0.2754      Y:    -1.7092      Z:     0.0000     Total:     1.7313

*** Psi4 exiting successfully. Buy a developer a beer!
