                               Psi4 1.4a3.dev225

  ==> Input File <==

--------------------------------------------------------------------------
#psi4
#
memory 32 gb

molecule  {
0 1
  N       -1.5932770    -0.7762670    -0.0000010
  N       -1.2433830     1.4240120     0.0000010
  N        0.9927230    -1.4534560     0.0000030
  C       -0.6561680     0.2207960     0.0000070
  C        0.7816360    -0.1347280     0.0000020
  C        1.7974510     0.8476430     0.0000020
  C       -2.8387770    -0.2049930    -0.0000090
  C       -2.5875250     1.1588080    -0.0000060
  C        3.1063280     0.3562510    -0.0000040
  C        1.5337640     2.3273650     0.0000030
  C       -4.1038310    -0.9929000     0.0000030
  C        3.3549510    -1.0153620    -0.0000030
  C        2.2635760    -1.8809290    -0.0000010
  H       -1.3380790    -1.7591850     0.0000060
  H       -3.3182890     1.9585790    -0.0000140
  H        3.9358980     1.0613790    -0.0000050
  H        0.9464400     2.6235720    -0.8719580
  H        0.9464450     2.6235710     0.8719680
  H        2.4827640     2.8719440     0.0000020
  H       -4.1845960    -1.6320300    -0.8856740
  H       -4.1845630    -1.6320460     0.8856710
  H       -4.9567250    -0.3101180     0.0000250
  H        4.3696920    -1.4037000    -0.0000080
  H        2.4020820    -2.9609650     0.0000010
units angstrom
no_reorient  #important for SAPT in psi4, default
symmetry c1  #important for SAPT in psi4, default
}

set PROPERTIES_ORIGIN ["COM"]
properties('MP2/aug-cc-pvtz', properties = ['dipole'])
--------------------------------------------------------------------------

    Molecular point group: c1
  Charge       = 0
  Multiplicity = 1
  Basis Set: AUG-CC-PVTZ
    Blend: AUG-CC-PVTZ
  Basis Set: (AUG-CC-PVTZ AUX)
    Blend: AUG-CC-PVTZ-JKFIT

    Orbital Energies [Eh]
    ---------------------

    Doubly Occupied:

       1A    -15.606722     2A    -15.572284     3A    -15.543153
       4A    -11.293632     5A    -11.289732     6A    -11.277473
       7A    -11.264153     8A    -11.256343     9A    -11.252767
      10A    -11.243555    11A    -11.237054    12A    -11.233908
      13A    -11.216313    14A     -1.334206    15A     -1.264458
      16A     -1.159592    17A     -1.100192    18A     -1.071305
      19A     -1.028965    20A     -0.955838    21A     -0.929487
      22A     -0.863557    23A     -0.837947    24A     -0.804040
      25A     -0.779081    26A     -0.725594    27A     -0.677925
      28A     -0.660611    29A     -0.627760    30A     -0.617056
      31A     -0.593718    32A     -0.580286    33A     -0.575392
      34A     -0.564121    35A     -0.560718    36A     -0.552050
      37A     -0.549679    38A     -0.543971    39A     -0.525425
      40A     -0.507006    41A     -0.434355    42A     -0.424088
      43A     -0.393671    44A     -0.388084    45A     -0.353664
      46A     -0.280285

  @DF-RHF Final Energy:  -548.62753936329409

   => Energetics <=

    Nuclear Repulsion Energy =            741.4091578803308948
    One-Electron Energy =               -2214.9709618978458820
    Two-Electron Energy =                 924.9342646542208968
    Total Energy =                       -548.6275393632940904
  Basis Set: (AUG-CC-PVTZ AUX)
    Blend: AUG-CC-PVTZ-RI
    Molecular point group: c1

    Geometry (in Angstrom), charge = 0, multiplicity = 1:

       Center              X                  Y                   Z               Mass
    ------------   -----------------  -----------------  -----------------  -----------------
         N           -1.611038652383    -0.766753501338    -0.000000908252    14.003074004430
         N           -1.261144652383     1.433525498662     0.000001091748    14.003074004430
         N            0.974961347617    -1.443942501338     0.000003091748    14.003074004430
         C           -0.673929652383     0.230309498662     0.000007091748    12.000000000000
         C            0.763874347617    -0.125214501338     0.000002091748    12.000000000000
         C            1.779689347617     0.857156498662     0.000002091748    12.000000000000
         C           -2.856538652383    -0.195479501338    -0.000008908252    12.000000000000
         C           -2.605286652383     1.168321498662    -0.000005908252    12.000000000000
         C            3.088566347617     0.365764498662    -0.000003908252    12.000000000000
         C            1.516002347617     2.336878498662     0.000003091748    12.000000000000
         C           -4.121592652383    -0.983386501338     0.000003091748    12.000000000000
         C            3.337189347617    -1.005848501338    -0.000002908252    12.000000000000
         C            2.245814347617    -1.871415501338    -0.000000908252    12.000000000000
         H           -1.355840652383    -1.749671501338     0.000006091748     1.007825032230
         H           -3.336050652383     1.968092498662    -0.000013908252     1.007825032230
         H            3.918136347617     1.070892498662    -0.000004908252     1.007825032230
         H            0.928678347617     2.633085498662    -0.871957908252     1.007825032230
         H            0.928683347617     2.633084498662     0.871968091748     1.007825032230
         H            2.465002347617     2.881457498662     0.000002091748     1.007825032230
         H           -4.202357652383    -1.622516501338    -0.885673908252     1.007825032230
         H           -4.202324652383    -1.622532501338     0.885671091748     1.007825032230
         H           -4.974486652383    -0.300604501338     0.000025091748     1.007825032230
         H            4.351930347617    -1.394186501338    -0.000007908252     1.007825032230
         H            2.384320347617    -2.951451501338     0.000001091748     1.007825032230

  Basis Set: AUG-CC-PVTZ
    Blend: AUG-CC-PVTZ
  Basis Set: (AUG-CC-PVTZ AUX)
    Blend: AUG-CC-PVTZ-JKFIT
	 Reference Energy          =    -548.6275393632940904 [Eh]
	 Singles Energy            =      -0.0000000000000000 [Eh]
	 Same-Spin Energy          =      -0.6111518077157746 [Eh]
	 Opposite-Spin Energy      =      -1.8778452914655097 [Eh]
	 Correlation Energy        =      -2.4889970991812844 [Eh]
	 Total Energy              =    -551.1165364624753238 [Eh]

	 ================> DF-SCS-MP2 Energies <==================
	-----------------------------------------------------------
	 SCS Same-Spin Scale       =       0.3333333333333333 [-]
	 SCS Opposite-Spin Scale   =       1.2000000000000000 [-]
	 SCS Same-Spin Energy      =      -0.2037172692385915 [Eh]
	 SCS Opposite-Spin Energy  =      -2.2534143497586117 [Eh]
	 SCS Correlation Energy    =      -2.4571316189972032 [Eh]
	 SCS Total Energy          =    -551.0846709822912999 [Eh]
	-----------------------------------------------------------

  Dipole Moment: [D]
     X:     0.2603      Y:    -1.7675      Z:     0.0000     Total:     1.7865

*** Psi4 exiting successfully. Buy a developer a beer!
