                               Psi4 1.4a3.dev225

  ==> Input File <==

--------------------------------------------------------------------------
#psi4
#
memory 32 gb

molecule  {
0 1
  N       -1.5932770    -0.7762670    -0.0000010
  N       -1.2433830     1.4240120     0.0000010
  N        0.9927230    -1.4534560     0.0000030
  C       -0.6561680     0.2207960     0.0000070
  C        0.6694868    -0.0036089     0.0000021
  C        1.7974510     0.8476430     0.0000020
  C       -2.8387770    -0.2049930    -0.0000090
  C       -2.5875250     1.1588080    -0.0000060
  C        3.1063280     0.3562510    -0.0000040
  C        1.5337640     2.3273650     0.0000030
  C       -4.1038310    -0.9929000     0.0000030
  C        3.3549510    -1.0153620    -0.0000030
  C        2.2635760    -1.8809290    -0.0000010
  H       -1.3380790    -1.7591850     0.0000060
  H       -3.3182890     1.9585790    -0.0000140
  H        3.9358980     1.0613790    -0.0000050
  H        0.9464400     2.6235720    -0.8719580
  H        0.9464450     2.6235710     0.8719680
  H        2.4827640     2.8719440     0.0000020
  H       -4.1845960    -1.6320300    -0.8856740
  H       -4.1845630    -1.6320460     0.8856710
  H       -4.9567250    -0.3101180     0.0000250
  H        4.3696920    -1.4037000    -0.0000080
  H        2.4020820    -2.9609650     0.0000010
units angstrom
no_reorient  #important for SAPT in psi4, default
symmetry c1  #important for SAPT in psi4, default
}

set PROPERTIES_ORIGIN ["COM"]
properties('MP2/aug-cc-pvtz', properties = ['dipole'])
--------------------------------------------------------------------------

    Molecular point group: c1
  Charge       = 0
  Multiplicity = 1
  Basis Set: AUG-CC-PVTZ
    Blend: AUG-CC-PVTZ
  Basis Set: (AUG-CC-PVTZ AUX)
    Blend: AUG-CC-PVTZ-JKFIT

    Orbital Energies [Eh]
    ---------------------

    Doubly Occupied:

       1A    -15.612282     2A    -15.573055     3A    -15.549086
       4A    -11.289026     5A    -11.286894     6A    -11.275015
       7A    -11.272786     8A    -11.256161     9A    -11.253085
      10A    -11.241720    11A    -11.241606    12A    -11.239244
      13A    -11.210812    14A     -1.341227    15A     -1.226562
      16A     -1.166458    17A     -1.091591    18A     -1.083920
      19A     -1.029198    20A     -0.966923    21A     -0.925144
      22A     -0.873742    23A     -0.828150    24A     -0.808519
      25A     -0.774284    26A     -0.737970    27A     -0.669809
      28A     -0.658838    29A     -0.634858    30A     -0.623721
      31A     -0.595523    32A     -0.579029    33A     -0.576998
      34A     -0.567656    35A     -0.563049    36A     -0.554123
      37A     -0.551514    38A     -0.538675    39A     -0.508698
      40A     -0.507687    41A     -0.435716    42A     -0.410132
      43A     -0.400153    44A     -0.380158    45A     -0.362792
      46A     -0.270596

  @DF-RHF Final Energy:  -548.59290653805431

   => Energetics <=

    Nuclear Repulsion Energy =            741.4602255719337336
    One-Electron Energy =               -2215.0178994769275960
    Two-Electron Energy =                 924.9647673669395544
    Total Energy =                       -548.5929065380543079
  Basis Set: (AUG-CC-PVTZ AUX)
    Blend: AUG-CC-PVTZ-RI
    Molecular point group: c1

    Geometry (in Angstrom), charge = 0, multiplicity = 1:

       Center              X                  Y                   Z               Mass
    ------------   -----------------  -----------------  -----------------  -----------------
         N           -1.603263799915    -0.775843460591    -0.000000915184    14.003074004430
         N           -1.253369799915     1.424435539409     0.000001084816    14.003074004430
         N            0.982736200085    -1.453032460591     0.000003084816    14.003074004430
         C           -0.666154799915     0.221219539409     0.000007084816    12.000000000000
         C            0.659500000085    -0.003185360591     0.000002184816    12.000000000000
         C            1.787464200085     0.848066539409     0.000002084816    12.000000000000
         C           -2.848763799915    -0.204569460591    -0.000008915184    12.000000000000
         C           -2.597511799915     1.159231539409    -0.000005915184    12.000000000000
         C            3.096341200085     0.356674539409    -0.000003915184    12.000000000000
         C            1.523777200085     2.327788539409     0.000003084816    12.000000000000
         C           -4.113817799915    -0.992476460591     0.000003084816    12.000000000000
         C            3.344964200085    -1.014938460591    -0.000002915184    12.000000000000
         C            2.253589200085    -1.880505460591    -0.000000915184    12.000000000000
         H           -1.348065799915    -1.758761460591     0.000006084816     1.007825032230
         H           -3.328275799915     1.959002539409    -0.000013915184     1.007825032230
         H            3.925911200085     1.061802539409    -0.000004915184     1.007825032230
         H            0.936453200085     2.623995539409    -0.871957915184     1.007825032230
         H            0.936458200085     2.623994539409     0.871968084816     1.007825032230
         H            2.472777200085     2.872367539409     0.000002084816     1.007825032230
         H           -4.194582799915    -1.631606460591    -0.885673915184     1.007825032230
         H           -4.194549799915    -1.631622460591     0.885671084816     1.007825032230
         H           -4.966711799915    -0.309694460591     0.000025084816     1.007825032230
         H            4.359705200085    -1.403276460591    -0.000007915184     1.007825032230
         H            2.392095200085    -2.960541460591     0.000001084816     1.007825032230

  Basis Set: AUG-CC-PVTZ
    Blend: AUG-CC-PVTZ
  Basis Set: (AUG-CC-PVTZ AUX)
    Blend: AUG-CC-PVTZ-JKFIT
	 Reference Energy          =    -548.5929065380543079 [Eh]
	 Singles Energy            =      -0.0000000000000000 [Eh]
	 Same-Spin Energy          =      -0.6152728794226400 [Eh]
	 Opposite-Spin Energy      =      -1.8853090809149933 [Eh]
	 Correlation Energy        =      -2.5005819603376334 [Eh]
	 Total Energy              =    -551.0934884983919346 [Eh]

	 ================> DF-SCS-MP2 Energies <==================
	-----------------------------------------------------------
	 SCS Same-Spin Scale       =       0.3333333333333333 [-]
	 SCS Opposite-Spin Scale   =       1.2000000000000000 [-]
	 SCS Same-Spin Energy      =      -0.2050909598075467 [Eh]
	 SCS Opposite-Spin Energy  =      -2.2623708970979917 [Eh]
	 SCS Correlation Energy    =      -2.4674618569055382 [Eh]
	 SCS Total Energy          =    -551.0603683949598235 [Eh]
	-----------------------------------------------------------

  Dipole Moment: [D]
     X:    -0.5027      Y:    -1.6907      Z:     0.0000     Total:     1.7638

*** Psi4 exiting successfully. Buy a developer a beer!
