                               Psi4 1.4a3.dev225

  ==> Input File <==

--------------------------------------------------------------------------
#psi4
#
memory 32 gb

molecule  {
0 1
  N       -1.5932770    -0.7762670    -0.0000010
  N       -1.2433830     1.4240120     0.0000010
  N        0.9459372    -1.4606015     0.0000030
  C       -0.6561680     0.2207960     0.0000070
  C        0.7646460    -0.1168500     0.0000020
  C        1.7974510     0.8476430     0.0000020
  C       -2.8387770    -0.2049930    -0.0000090
  C       -2.5875250     1.1588080    -0.0000060
  C        3.1063280     0.3562510    -0.0000040
  C        1.5337640     2.3273650     0.0000030
  C       -4.1038310    -0.9929000     0.0000030
  C        3.3549510    -1.0153620    -0.0000030
  C        2.2635760    -1.8809290    -0.0000010
  H       -1.3380790    -1.7591850     0.0000060
  H       -3.3182890     1.9585790    -0.0000140
  H        3.9358980     1.0613790    -0.0000050
  H        0.9464400     2.6235720    -0.8719580
  H        0.9464450     2.6235710     0.8719680
  H        2.4827640     2.8719440     0.0000020
  H       -4.1845960    -1.6320300    -0.8856740
  H       -4.1845630    -1.6320460     0.8856710
  H       -4.9567250    -0.3101180     0.0000250
  H        4.3696920    -1.4037000    -0.0000080
  H        2.4020820    -2.9609650     0.0000010
units angstrom
no_reorient  #important for SAPT in psi4, default
symmetry c1  #important for SAPT in psi4, default
}

set PROPERTIES_ORIGIN ["COM"]
properties('MP2/aug-cc-pvtz', properties = ['dipole'])
--------------------------------------------------------------------------

    Molecular point group: c1
  Charge       = 0
  Multiplicity = 1
  Basis Set: AUG-CC-PVTZ
    Blend: AUG-CC-PVTZ
  Basis Set: (AUG-CC-PVTZ AUX)
    Blend: AUG-CC-PVTZ-JKFIT

    Orbital Energies [Eh]
    ---------------------

    Doubly Occupied:

       1A    -15.606468     2A    -15.578274     3A    -15.543539
       4A    -11.292071     5A    -11.290391     6A    -11.281932
       7A    -11.264819     8A    -11.257970     9A    -11.253297
      10A    -11.244770    11A    -11.237325    12A    -11.233942
      13A    -11.216114    14A     -1.334583    15A     -1.250134
      16A     -1.159951    17A     -1.099011    18A     -1.071318
      19A     -1.029071    20A     -0.954911    21A     -0.928732
      22A     -0.864851    23A     -0.837660    24A     -0.803532
      25A     -0.777069    26A     -0.725300    27A     -0.672472
      28A     -0.660715    29A     -0.629757    30A     -0.617348
      31A     -0.592439    32A     -0.579118    33A     -0.574123
      34A     -0.564572    35A     -0.560510    36A     -0.552327
      37A     -0.548207    38A     -0.544259    39A     -0.519076
      40A     -0.505590    41A     -0.438043    42A     -0.427216
      43A     -0.393961    44A     -0.388168    45A     -0.351621
      46A     -0.279839

  @DF-RHF Final Energy:  -548.62206501869957

   => Energetics <=

    Nuclear Repulsion Energy =            740.9375557619227948
    One-Electron Energy =               -2214.0464500149423657
    Two-Electron Energy =                 924.4868292343199982
    Total Energy =                       -548.6220650186995726
  Basis Set: (AUG-CC-PVTZ AUX)
    Blend: AUG-CC-PVTZ-RI
    Molecular point group: c1

    Geometry (in Angstrom), charge = 0, multiplicity = 1:

       Center              X                  Y                   Z               Mass
    ------------   -----------------  -----------------  -----------------  -----------------
         N           -1.606075923569    -0.767414853994    -0.000000908252    14.003074004430
         N           -1.256181923569     1.432864146006     0.000001091748    14.003074004430
         N            0.933138276431    -1.451749353994     0.000003091748    14.003074004430
         C           -0.668966923569     0.229648146006     0.000007091748    12.000000000000
         C            0.751847076431    -0.107997853994     0.000002091748    12.000000000000
         C            1.784652076431     0.856495146006     0.000002091748    12.000000000000
         C           -2.851575923569    -0.196140853994    -0.000008908252    12.000000000000
         C           -2.600323923569     1.167660146006    -0.000005908252    12.000000000000
         C            3.093529076431     0.365103146006    -0.000003908252    12.000000000000
         C            1.520965076431     2.336217146006     0.000003091748    12.000000000000
         C           -4.116629923569    -0.984047853994     0.000003091748    12.000000000000
         C            3.342152076431    -1.006509853994    -0.000002908252    12.000000000000
         C            2.250777076431    -1.872076853994    -0.000000908252    12.000000000000
         H           -1.350877923569    -1.750332853994     0.000006091748     1.007825032230
         H           -3.331087923569     1.967431146006    -0.000013908252     1.007825032230
         H            3.923099076431     1.070231146006    -0.000004908252     1.007825032230
         H            0.933641076431     2.632424146006    -0.871957908252     1.007825032230
         H            0.933646076431     2.632423146006     0.871968091748     1.007825032230
         H            2.469965076431     2.880796146006     0.000002091748     1.007825032230
         H           -4.197394923569    -1.623177853994    -0.885673908252     1.007825032230
         H           -4.197361923569    -1.623193853994     0.885671091748     1.007825032230
         H           -4.969523923569    -0.301265853994     0.000025091748     1.007825032230
         H            4.356893076431    -1.394847853994    -0.000007908252     1.007825032230
         H            2.389283076431    -2.952112853994     0.000001091748     1.007825032230

  Basis Set: AUG-CC-PVTZ
    Blend: AUG-CC-PVTZ
  Basis Set: (AUG-CC-PVTZ AUX)
    Blend: AUG-CC-PVTZ-JKFIT
	 Reference Energy          =    -548.6220650186995726 [Eh]
	 Singles Energy            =      -0.0000000000000000 [Eh]
	 Same-Spin Energy          =      -0.6121105639193536 [Eh]
	 Opposite-Spin Energy      =      -1.8803116295359910 [Eh]
	 Correlation Energy        =      -2.4924221934553445 [Eh]
	 Total Energy              =    -551.1144872121549270 [Eh]

	 ================> DF-SCS-MP2 Energies <==================
	-----------------------------------------------------------
	 SCS Same-Spin Scale       =       0.3333333333333333 [-]
	 SCS Opposite-Spin Scale   =       1.2000000000000000 [-]
	 SCS Same-Spin Energy      =      -0.2040368546397845 [Eh]
	 SCS Opposite-Spin Energy  =      -2.2563739554431890 [Eh]
	 SCS Correlation Energy    =      -2.4604108100829736 [Eh]
	 SCS Total Energy          =    -551.0824758287825489 [Eh]
	-----------------------------------------------------------

  Dipole Moment: [D]
     X:     0.2863      Y:    -1.7213      Z:     0.0000     Total:     1.7450

*** Psi4 exiting successfully. Buy a developer a beer!
