                               Psi4 1.4a3.dev225

  ==> Input File <==

--------------------------------------------------------------------------
#psi4
#
memory 32 gb

molecule  {
0 1
  N       -1.5932770    -0.7762670    -0.0000010
  N       -1.2433830     1.4240120     0.0000010
  N        0.9927230    -1.4534560     0.0000030
  C       -0.6561680     0.2207960     0.0000070
  C        0.7646460    -0.1168500     0.0000020
  C        1.7974510     0.8476430     0.0000020
  C       -2.8387770    -0.2049930    -0.0000090
  C       -2.6071467     1.1549366    -0.0000061
  C        3.1063280     0.3562510    -0.0000040
  C        1.5337640     2.3273650     0.0000030
  C       -4.1038310    -0.9929000     0.0000030
  C        3.3549510    -1.0153620    -0.0000030
  C        2.2635760    -1.8809290    -0.0000010
  H       -1.3380790    -1.7591850     0.0000060
  H       -3.3182890     1.9585790    -0.0000140
  H        3.9358980     1.0613790    -0.0000050
  H        0.9464400     2.6235720    -0.8719580
  H        0.9464450     2.6235710     0.8719680
  H        2.4827640     2.8719440     0.0000020
  H       -4.1845960    -1.6320300    -0.8856740
  H       -4.1845630    -1.6320460     0.8856710
  H       -4.9567250    -0.3101180     0.0000250
  H        4.3696920    -1.4037000    -0.0000080
  H        2.4020820    -2.9609650     0.0000010
units angstrom
no_reorient  #important for SAPT in psi4, default
symmetry c1  #important for SAPT in psi4, default
}

set PROPERTIES_ORIGIN ["COM"]
properties('MP2/aug-cc-pvtz', properties = ['dipole'])
--------------------------------------------------------------------------

    Molecular point group: c1
  Charge       = 0
  Multiplicity = 1
  Basis Set: AUG-CC-PVTZ
    Blend: AUG-CC-PVTZ
  Basis Set: (AUG-CC-PVTZ AUX)
    Blend: AUG-CC-PVTZ-JKFIT

    Orbital Energies [Eh]
    ---------------------

    Doubly Occupied:

       1A    -15.606307     2A    -15.573150     3A    -15.544287
       4A    -11.293910     5A    -11.289549     6A    -11.277354
       7A    -11.265380     8A    -11.256549     9A    -11.253097
      10A    -11.243782    11A    -11.237188    12A    -11.233959
      13A    -11.215513    14A     -1.333007    15A     -1.258266
      16A     -1.155991    17A     -1.098757    18A     -1.073317
      19A     -1.029812    20A     -0.956852    21A     -0.929728
      22A     -0.865671    23A     -0.836368    24A     -0.802585
      25A     -0.779774    26A     -0.726924    27A     -0.676267
      28A     -0.660882    29A     -0.629180    30A     -0.617233
      31A     -0.595721    32A     -0.579708    33A     -0.575112
      34A     -0.566130    35A     -0.559251    36A     -0.551857
      37A     -0.548182    38A     -0.544758    39A     -0.522794
      40A     -0.508143    41A     -0.433249    42A     -0.423619
      43A     -0.392233    44A     -0.385916    45A     -0.355285
      46A     -0.281578

  @DF-RHF Final Energy:  -548.62683485683499

   => Energetics <=

    Nuclear Repulsion Energy =            741.0977406132681153
    One-Electron Energy =               -2214.3608022475409598
    Two-Electron Energy =                 924.6362267774378552
    Total Energy =                       -548.6268348568349893
  Basis Set: (AUG-CC-PVTZ AUX)
    Blend: AUG-CC-PVTZ-RI
    Molecular point group: c1

    Geometry (in Angstrom), charge = 0, multiplicity = 1:

       Center              X                  Y                   Z               Mass
    ------------   -----------------  -----------------  -----------------  -----------------
         N           -1.608500510639    -0.767724522519    -0.000000901319    14.003074004430
         N           -1.258606510639     1.432554477481     0.000001098681    14.003074004430
         N            0.977499489361    -1.444913522519     0.000003098681    14.003074004430
         C           -0.671391510639     0.229338477481     0.000007098681    12.000000000000
         C            0.749422489361    -0.108307522519     0.000002098681    12.000000000000
         C            1.782227489361     0.856185477481     0.000002098681    12.000000000000
         C           -2.854000510639    -0.196450522519    -0.000008901319    12.000000000000
         C           -2.622370210639     1.163479077481    -0.000006001319    12.000000000000
         C            3.091104489361     0.364793477481    -0.000003901319    12.000000000000
         C            1.518540489361     2.335907477481     0.000003098681    12.000000000000
         C           -4.119054510639    -0.984357522519     0.000003098681    12.000000000000
         C            3.339727489361    -1.006819522519    -0.000002901319    12.000000000000
         C            2.248352489361    -1.872386522519    -0.000000901319    12.000000000000
         H           -1.353302510639    -1.750642522519     0.000006098681     1.007825032230
         H           -3.333512510639     1.967121477481    -0.000013901319     1.007825032230
         H            3.920674489361     1.069921477481    -0.000004901319     1.007825032230
         H            0.931216489361     2.632114477481    -0.871957901319     1.007825032230
         H            0.931221489361     2.632113477481     0.871968098681     1.007825032230
         H            2.467540489361     2.880486477481     0.000002098681     1.007825032230
         H           -4.199819510639    -1.623487522519    -0.885673901319     1.007825032230
         H           -4.199786510639    -1.623503522519     0.885671098681     1.007825032230
         H           -4.971948510639    -0.301575522519     0.000025098681     1.007825032230
         H            4.354468489361    -1.395157522519    -0.000007901319     1.007825032230
         H            2.386858489361    -2.952422522519     0.000001098681     1.007825032230

  Basis Set: AUG-CC-PVTZ
    Blend: AUG-CC-PVTZ
  Basis Set: (AUG-CC-PVTZ AUX)
    Blend: AUG-CC-PVTZ-JKFIT
	 Reference Energy          =    -548.6268348568349893 [Eh]
	 Singles Energy            =      -0.0000000000000000 [Eh]
	 Same-Spin Energy          =      -0.6113097890275071 [Eh]
	 Opposite-Spin Energy      =      -1.8785542131257553 [Eh]
	 Correlation Energy        =      -2.4898640021532623 [Eh]
	 Total Energy              =    -551.1166988589882294 [Eh]

	 ================> DF-SCS-MP2 Energies <==================
	-----------------------------------------------------------
	 SCS Same-Spin Scale       =       0.3333333333333333 [-]
	 SCS Opposite-Spin Scale   =       1.2000000000000000 [-]
	 SCS Same-Spin Energy      =      -0.2037699296758357 [Eh]
	 SCS Opposite-Spin Energy  =      -2.2542650557509063 [Eh]
	 SCS Correlation Energy    =      -2.4580349854267420 [Eh]
	 SCS Total Energy          =    -551.0848698422616962 [Eh]
	-----------------------------------------------------------

  Dipole Moment: [D]
     X:     0.1935      Y:    -1.7578      Z:     0.0000     Total:     1.7684

*** Psi4 exiting successfully. Buy a developer a beer!
