                               Psi4 1.4a3.dev225

  ==> Input File <==

--------------------------------------------------------------------------
#psi4
#
memory 32 gb

molecule  {
0 1
  N       -1.5932770    -0.7762670    -0.0000010
  N       -1.2433830     1.4240120     0.0000010
  N        0.9927230    -1.4534560     0.0000030
  C       -0.6561680     0.2207960     0.0000070
  C        0.7612818    -0.0971350     0.0000020
  C        1.7974510     0.8476430     0.0000020
  C       -2.8387770    -0.2049930    -0.0000090
  C       -2.5875250     1.1588080    -0.0000060
  C        3.1063280     0.3562510    -0.0000040
  C        1.5337640     2.3273650     0.0000030
  C       -4.1038310    -0.9929000     0.0000030
  C        3.3549510    -1.0153620    -0.0000030
  C        2.2635760    -1.8809290    -0.0000010
  H       -1.3380790    -1.7591850     0.0000060
  H       -3.3182890     1.9585790    -0.0000140
  H        3.9358980     1.0613790    -0.0000050
  H        0.9464400     2.6235720    -0.8719580
  H        0.9464450     2.6235710     0.8719680
  H        2.4827640     2.8719440     0.0000020
  H       -4.1845960    -1.6320300    -0.8856740
  H       -4.1845630    -1.6320460     0.8856710
  H       -4.9567250    -0.3101180     0.0000250
  H        4.3696920    -1.4037000    -0.0000080
  H        2.4020820    -2.9609650     0.0000010
units angstrom
no_reorient  #important for SAPT in psi4, default
symmetry c1  #important for SAPT in psi4, default
}

set PROPERTIES_ORIGIN ["COM"]
properties('MP2/aug-cc-pvtz', properties = ['dipole'])
--------------------------------------------------------------------------

    Molecular point group: c1
  Charge       = 0
  Multiplicity = 1
  Basis Set: AUG-CC-PVTZ
    Blend: AUG-CC-PVTZ
  Basis Set: (AUG-CC-PVTZ AUX)
    Blend: AUG-CC-PVTZ-JKFIT

    Orbital Energies [Eh]
    ---------------------

    Doubly Occupied:

       1A    -15.607967     2A    -15.573340     3A    -15.544020
       4A    -11.293254     5A    -11.288734     6A    -11.277324
       7A    -11.265671     8A    -11.256938     9A    -11.251640
      10A    -11.243288    11A    -11.237886    12A    -11.234760
      13A    -11.214998    14A     -1.335259    15A     -1.253262
      16A     -1.160815    17A     -1.098348    18A     -1.073766
      19A     -1.029170    20A     -0.957197    21A     -0.929079
      22A     -0.866260    23A     -0.835318    24A     -0.805129
      25A     -0.777837    26A     -0.727942    27A     -0.674740
      28A     -0.661879    29A     -0.629225    30A     -0.618101
      31A     -0.594614    32A     -0.579521    33A     -0.575198
      34A     -0.564873    35A     -0.561407    36A     -0.552479
      37A     -0.547859    38A     -0.544828    39A     -0.520947
      40A     -0.507246    41A     -0.432793    42A     -0.424812
      43A     -0.394627    44A     -0.384706    45A     -0.357161
      46A     -0.278748

  @DF-RHF Final Energy:  -548.62562081109934

   => Energetics <=

    Nuclear Repulsion Energy =            741.3655833395205264
    One-Electron Energy =               -2214.8924757527015572
    Two-Electron Energy =                 924.9012716020816924
    Total Energy =                       -548.6256208110993384
  Basis Set: (AUG-CC-PVTZ AUX)
    Blend: AUG-CC-PVTZ-RI
    Molecular point group: c1

    Geometry (in Angstrom), charge = 0, multiplicity = 1:

       Center              X                  Y                   Z               Mass
    ------------   -----------------  -----------------  -----------------  -----------------
         N           -1.609627577653    -0.769359672660    -0.000000908252    14.003074004430
         N           -1.259733577653     1.430919327340     0.000001091748    14.003074004430
         N            0.976372422347    -1.446548672660     0.000003091748    14.003074004430
         C           -0.672518577653     0.227703327340     0.000007091748    12.000000000000
         C            0.744931222347    -0.090227672660     0.000002091748    12.000000000000
         C            1.781100422347     0.854550327340     0.000002091748    12.000000000000
         C           -2.855127577653    -0.198085672660    -0.000008908252    12.000000000000
         C           -2.603875577653     1.165715327340    -0.000005908252    12.000000000000
         C            3.089977422347     0.363158327340    -0.000003908252    12.000000000000
         C            1.517413422347     2.334272327340     0.000003091748    12.000000000000
         C           -4.120181577653    -0.985992672660     0.000003091748    12.000000000000
         C            3.338600422347    -1.008454672660    -0.000002908252    12.000000000000
         C            2.247225422347    -1.874021672660    -0.000000908252    12.000000000000
         H           -1.354429577653    -1.752277672660     0.000006091748     1.007825032230
         H           -3.334639577653     1.965486327340    -0.000013908252     1.007825032230
         H            3.919547422347     1.068286327340    -0.000004908252     1.007825032230
         H            0.930089422347     2.630479327340    -0.871957908252     1.007825032230
         H            0.930094422347     2.630478327340     0.871968091748     1.007825032230
         H            2.466413422347     2.878851327340     0.000002091748     1.007825032230
         H           -4.200946577653    -1.625122672660    -0.885673908252     1.007825032230
         H           -4.200913577653    -1.625138672660     0.885671091748     1.007825032230
         H           -4.973075577653    -0.303210672660     0.000025091748     1.007825032230
         H            4.353341422347    -1.396792672660    -0.000007908252     1.007825032230
         H            2.385731422347    -2.954057672660     0.000001091748     1.007825032230

  Basis Set: AUG-CC-PVTZ
    Blend: AUG-CC-PVTZ
  Basis Set: (AUG-CC-PVTZ AUX)
    Blend: AUG-CC-PVTZ-JKFIT
	 Reference Energy          =    -548.6256208110993384 [Eh]
	 Singles Energy            =      -0.0000000000000000 [Eh]
	 Same-Spin Energy          =      -0.6118737746202949 [Eh]
	 Opposite-Spin Energy      =      -1.8791366303836519 [Eh]
	 Correlation Energy        =      -2.4910104050039470 [Eh]
	 Total Energy              =    -551.1166312161033147 [Eh]

	 ================> DF-SCS-MP2 Energies <==================
	-----------------------------------------------------------
	 SCS Same-Spin Scale       =       0.3333333333333333 [-]
	 SCS Opposite-Spin Scale   =       1.2000000000000000 [-]
	 SCS Same-Spin Energy      =      -0.2039579248734316 [Eh]
	 SCS Opposite-Spin Energy  =      -2.2549639564603821 [Eh]
	 SCS Correlation Energy    =      -2.4589218813338136 [Eh]
	 SCS Total Energy          =    -551.0845426924331605 [Eh]
	-----------------------------------------------------------

  Dipole Moment: [D]
     X:     0.1288      Y:    -1.7548      Z:     0.0000     Total:     1.7595

*** Psi4 exiting successfully. Buy a developer a beer!
