                               Psi4 1.4a3.dev225

  ==> Input File <==

--------------------------------------------------------------------------
#psi4
#
memory 32 gb

molecule  {
0 1
  N       -1.5932770    -0.7762670    -0.0000010
  N       -1.2433830     1.4240120     0.0000010
  N        0.9927230    -1.4534560     0.0000030
  C       -0.6561680     0.2207960     0.0000070
  C        0.7646460    -0.1168500     0.0000020
  C        1.7974510     0.8476430     0.0000020
  C       -2.8387770    -0.2049930    -0.0000090
  C       -2.5875250     1.1588080    -0.0000060
  C        3.1063280     0.3562510    -0.0000040
  C        1.5337640     2.3273650     0.0000030
  C       -4.1038310    -0.9929000     0.0000030
  C        3.3549510    -1.0153620    -0.0000030
  C        2.2635760    -1.8809290    -0.0000010
  H       -1.3380790    -1.7591850     0.0000060
  H       -3.3182890     1.9585790    -0.0000140
  H        3.9358980     1.0613790    -0.0000050
  H        0.9464400     2.6235720    -0.8719580
  H        0.9464450     2.6235710     0.8719680
  H        2.4827640     2.8719440     0.0000020
  H       -4.1522834    -1.6495415    -0.8751588
  H       -4.1845630    -1.6320460     0.8856710
  H       -4.9567250    -0.3101180     0.0000250
  H        4.3696920    -1.4037000    -0.0000080
  H        2.4020820    -2.9609650     0.0000010
units angstrom
no_reorient  #important for SAPT in psi4, default
symmetry c1  #important for SAPT in psi4, default
}

set PROPERTIES_ORIGIN ["COM"]
properties('MP2/aug-cc-pvtz', properties = ['dipole'])
--------------------------------------------------------------------------

    Molecular point group: c1
  Charge       = 0
  Multiplicity = 1
  Basis Set: AUG-CC-PVTZ
    Blend: AUG-CC-PVTZ
  Basis Set: (AUG-CC-PVTZ AUX)
    Blend: AUG-CC-PVTZ-JKFIT

    Orbital Energies [Eh]
    ---------------------

    Doubly Occupied:

       1A    -15.607516     2A    -15.572610     3A    -15.544013
       4A    -11.293293     5A    -11.289349     6A    -11.277107
       7A    -11.265210     8A    -11.256283     9A    -11.252637
      10A    -11.243250    11A    -11.237900    12A    -11.234494
      13A    -11.215469    14A     -1.335115    15A     -1.258067
      16A     -1.160530    17A     -1.098544    18A     -1.073013
      19A     -1.029224    20A     -0.956895    21A     -0.929347
      22A     -0.865055    23A     -0.835853    24A     -0.804741
      25A     -0.778712    26A     -0.726967    27A     -0.676311
      28A     -0.660717    29A     -0.629252    30A     -0.617693
      31A     -0.594548    32A     -0.579345    33A     -0.574970
      34A     -0.564941    35A     -0.561416    36A     -0.552143
      37A     -0.548508    38A     -0.545928    39A     -0.522692
      40A     -0.507578    41A     -0.433332    42A     -0.424203
      43A     -0.394374    44A     -0.386453    45A     -0.355042
      46A     -0.279025

  @DF-RHF Final Energy:  -548.62685917670285

   => Energetics <=

    Nuclear Repulsion Energy =            741.4362988333922431
    One-Electron Energy =               -2215.0269923942410060
    Two-Electron Energy =                 924.9638343841457981
    Total Energy =                       -548.6268591767028511
  Basis Set: (AUG-CC-PVTZ AUX)
    Blend: AUG-CC-PVTZ-RI
    Molecular point group: c1

    Geometry (in Angstrom), charge = 0, multiplicity = 1:

       Center              X                  Y                   Z               Mass
    ------------   -----------------  -----------------  -----------------  -----------------
         N           -1.610048940037    -0.767890952643    -0.000062131647    14.003074004430
         N           -1.260154940037     1.432388047357    -0.000060131647    14.003074004430
         N            0.975951059963    -1.445079952643    -0.000058131647    14.003074004430
         C           -0.672939940037     0.229172047357    -0.000054131647    12.000000000000
         C            0.747874059963    -0.108473952643    -0.000059131647    12.000000000000
         C            1.780679059963     0.856019047357    -0.000059131647    12.000000000000
         C           -2.855548940037    -0.196616952643    -0.000070131647    12.000000000000
         C           -2.604296940037     1.167184047357    -0.000067131647    12.000000000000
         C            3.089556059963     0.364627047357    -0.000065131647    12.000000000000
         C            1.516992059963     2.335741047357    -0.000058131647    12.000000000000
         C           -4.120602940037    -0.984523952643    -0.000058131647    12.000000000000
         C            3.338179059963    -1.006985952643    -0.000064131647    12.000000000000
         C            2.246804059963    -1.872552952643    -0.000062131647    12.000000000000
         H           -1.354850940037    -1.750808952643    -0.000055131647     1.007825032230
         H           -3.335060940037     1.966955047357    -0.000075131647     1.007825032230
         H            3.919126059963     1.069755047357    -0.000066131647     1.007825032230
         H            0.929668059963     2.631948047357    -0.872019131647     1.007825032230
         H            0.929673059963     2.631947047357     0.871906868353     1.007825032230
         H            2.465992059963     2.880320047357    -0.000059131647     1.007825032230
         H           -4.169055340037    -1.641165452643    -0.875219931647     1.007825032230
         H           -4.201334940037    -1.623669952643     0.885609868353     1.007825032230
         H           -4.973496940037    -0.301741952643    -0.000036131647     1.007825032230
         H            4.352920059963    -1.395323952643    -0.000069131647     1.007825032230
         H            2.385310059963    -2.952588952643    -0.000060131647     1.007825032230

  Basis Set: AUG-CC-PVTZ
    Blend: AUG-CC-PVTZ
  Basis Set: (AUG-CC-PVTZ AUX)
    Blend: AUG-CC-PVTZ-JKFIT
	 Reference Energy          =    -548.6268591767028511 [Eh]
	 Singles Energy            =      -0.0000000000000000 [Eh]
	 Same-Spin Energy          =      -0.6116185241781273 [Eh]
	 Opposite-Spin Energy      =      -1.8785925839337683 [Eh]
	 Correlation Energy        =      -2.4902111081118958 [Eh]
	 Total Energy              =    -551.1170702848147585 [Eh]

	 ================> DF-SCS-MP2 Energies <==================
	-----------------------------------------------------------
	 SCS Same-Spin Scale       =       0.3333333333333333 [-]
	 SCS Opposite-Spin Scale   =       1.2000000000000000 [-]
	 SCS Same-Spin Energy      =      -0.2038728413927091 [Eh]
	 SCS Opposite-Spin Energy  =      -2.2543111007205217 [Eh]
	 SCS Correlation Energy    =      -2.4581839421132305 [Eh]
	 SCS Total Energy          =    -551.0850431188160883 [Eh]
	-----------------------------------------------------------

  Dipole Moment: [D]
     X:     0.1574      Y:    -1.7617      Z:     0.0074     Total:     1.7687

*** Psi4 exiting successfully. Buy a developer a beer!
