                               Psi4 1.4a3.dev225

  ==> Input File <==

--------------------------------------------------------------------------
#psi4
#
memory 32 gb

molecule  {
0 1
  N       -1.5932770    -0.7762670    -0.0000010
  N       -1.2433830     1.4240120     0.0000010
  N        1.1311869    -1.4222934     0.0000031
  C       -0.6561680     0.2207960     0.0000070
  C        0.7646460    -0.1168500     0.0000020
  C        1.7974510     0.8476430     0.0000020
  C       -2.8387770    -0.2049930    -0.0000090
  C       -2.5875250     1.1588080    -0.0000060
  C        3.1063280     0.3562510    -0.0000040
  C        1.5337640     2.3273650     0.0000030
  C       -4.1038310    -0.9929000     0.0000030
  C        3.3549510    -1.0153620    -0.0000030
  C        2.2635760    -1.8809290    -0.0000010
  H       -1.3380790    -1.7591850     0.0000060
  H       -3.3182890     1.9585790    -0.0000140
  H        3.9358980     1.0613790    -0.0000050
  H        0.9464400     2.6235720    -0.8719580
  H        0.9464450     2.6235710     0.8719680
  H        2.4827640     2.8719440     0.0000020
  H       -4.1845960    -1.6320300    -0.8856740
  H       -4.1845630    -1.6320460     0.8856710
  H       -4.9567250    -0.3101180     0.0000250
  H        4.3696920    -1.4037000    -0.0000080
  H        2.4020820    -2.9609650     0.0000010
units angstrom
no_reorient  #important for SAPT in psi4, default
symmetry c1  #important for SAPT in psi4, default
}

set PROPERTIES_ORIGIN ["COM"]
properties('MP2/aug-cc-pvtz', properties = ['dipole'])
--------------------------------------------------------------------------

    Molecular point group: c1
  Charge       = 0
  Multiplicity = 1
  Basis Set: AUG-CC-PVTZ
    Blend: AUG-CC-PVTZ
  Basis Set: (AUG-CC-PVTZ AUX)
    Blend: AUG-CC-PVTZ-JKFIT

    Orbital Energies [Eh]
    ---------------------

    Doubly Occupied:

       1A    -15.610349     2A    -15.554038     3A    -15.545276
       4A    -11.297475     5A    -11.287260     6A    -11.266505
       7A    -11.261496     8A    -11.251865     9A    -11.250461
      10A    -11.238801    11A    -11.238684    12A    -11.236588
      13A    -11.213700    14A     -1.337046    15A     -1.287641
      16A     -1.162235    17A     -1.102041    18A     -1.073617
      19A     -1.028915    20A     -0.962407    21A     -0.931748
      22A     -0.866407    23A     -0.828742    24A     -0.808322
      25A     -0.784472    26A     -0.733194    27A     -0.689286
      28A     -0.660704    29A     -0.627132    30A     -0.619812
      31A     -0.600514    32A     -0.583184    33A     -0.577538
      34A     -0.567665    35A     -0.562477    36A     -0.552831
      37A     -0.547210    38A     -0.545396    39A     -0.536022
      40A     -0.511230    41A     -0.431557    42A     -0.397752
      43A     -0.396310    44A     -0.383266    45A     -0.364404
      46A     -0.277139

  @DF-RHF Final Energy:  -548.61421681831905

   => Energetics <=

    Nuclear Repulsion Energy =            743.0853778115713340
    One-Electron Energy =               -2218.2177613382873460
    Two-Electron Energy =                 926.5181667083969614
    Total Energy =                       -548.6142168183190506
  Basis Set: (AUG-CC-PVTZ AUX)
    Blend: AUG-CC-PVTZ-RI
    Molecular point group: c1

    Geometry (in Angstrom), charge = 0, multiplicity = 1:

       Center              X                  Y                   Z               Mass
    ------------   -----------------  -----------------  -----------------  -----------------
         N           -1.621062265185    -0.770513905022    -0.000000916341    14.003074004430
         N           -1.271168265185     1.429765094978     0.000001083659    14.003074004430
         N            1.103401634815    -1.416540305022     0.000003183659    14.003074004430
         C           -0.683953265185     0.226549094978     0.000007083659    12.000000000000
         C            0.736860734815    -0.111096905022     0.000002083659    12.000000000000
         C            1.769665734815     0.853396094978     0.000002083659    12.000000000000
         C           -2.866562265185    -0.199239905022    -0.000008916341    12.000000000000
         C           -2.615310265185     1.164561094978    -0.000005916341    12.000000000000
         C            3.078542734815     0.362004094978    -0.000003916341    12.000000000000
         C            1.505978734815     2.333118094978     0.000003083659    12.000000000000
         C           -4.131616265185    -0.987146905022     0.000003083659    12.000000000000
         C            3.327165734815    -1.009608905022    -0.000002916341    12.000000000000
         C            2.235790734815    -1.875175905022    -0.000000916341    12.000000000000
         H           -1.365864265185    -1.753431905022     0.000006083659     1.007825032230
         H           -3.346074265185     1.964332094978    -0.000013916341     1.007825032230
         H            3.908112734815     1.067132094978    -0.000004916341     1.007825032230
         H            0.918654734815     2.629325094978    -0.871957916341     1.007825032230
         H            0.918659734815     2.629324094978     0.871968083659     1.007825032230
         H            2.454978734815     2.877697094978     0.000002083659     1.007825032230
         H           -4.212381265185    -1.626276905022    -0.885673916341     1.007825032230
         H           -4.212348265185    -1.626292905022     0.885671083659     1.007825032230
         H           -4.984510265185    -0.304364905022     0.000025083659     1.007825032230
         H            4.341906734815    -1.397946905022    -0.000007916341     1.007825032230
         H            2.374296734815    -2.955211905022     0.000001083659     1.007825032230

  Basis Set: AUG-CC-PVTZ
    Blend: AUG-CC-PVTZ
  Basis Set: (AUG-CC-PVTZ AUX)
    Blend: AUG-CC-PVTZ-JKFIT
	 Reference Energy          =    -548.6142168183190506 [Eh]
	 Singles Energy            =      -0.0000000000000000 [Eh]
	 Same-Spin Energy          =      -0.6104524472547084 [Eh]
	 Opposite-Spin Energy      =      -1.8750194813695260 [Eh]
	 Correlation Energy        =      -2.4854719286242344 [Eh]
	 Total Energy              =    -551.0996887469432295 [Eh]

	 ================> DF-SCS-MP2 Energies <==================
	-----------------------------------------------------------
	 SCS Same-Spin Scale       =       0.3333333333333333 [-]
	 SCS Opposite-Spin Scale   =       1.2000000000000000 [-]
	 SCS Same-Spin Energy      =      -0.2034841490849028 [Eh]
	 SCS Opposite-Spin Energy  =      -2.2500233776434313 [Eh]
	 SCS Correlation Energy    =      -2.4535075267283339 [Eh]
	 SCS Total Energy          =    -551.0677243450473952 [Eh]
	-----------------------------------------------------------

  Dipole Moment: [D]
     X:    -0.3115      Y:    -1.8566      Z:     0.0000     Total:     1.8825

*** Psi4 exiting successfully. Buy a developer a beer!
