                               Psi4 1.4a3.dev225

  ==> Input File <==

--------------------------------------------------------------------------
#psi4
#
memory 32 gb

molecule  {
0 1
  N       -1.5932770    -0.7762670    -0.0000010
  N       -1.2433830     1.4240120     0.0000010
  N        0.9927230    -1.4534560     0.0000030
  C       -0.6561680     0.2207960     0.0000070
  C        0.7646460    -0.1168500     0.0000020
  C        1.7974510     0.8476430     0.0000020
  C       -2.8387770    -0.2049930    -0.0000090
  C       -2.4894164     1.1781652    -0.0000055
  C        3.1063280     0.3562510    -0.0000040
  C        1.5337640     2.3273650     0.0000030
  C       -4.1038310    -0.9929000     0.0000030
  C        3.3549510    -1.0153620    -0.0000030
  C        2.2635760    -1.8809290    -0.0000010
  H       -1.3380790    -1.7591850     0.0000060
  H       -3.3182890     1.9585790    -0.0000140
  H        3.9358980     1.0613790    -0.0000050
  H        0.9464400     2.6235720    -0.8719580
  H        0.9464450     2.6235710     0.8719680
  H        2.4827640     2.8719440     0.0000020
  H       -4.1845960    -1.6320300    -0.8856740
  H       -4.1845630    -1.6320460     0.8856710
  H       -4.9567250    -0.3101180     0.0000250
  H        4.3696920    -1.4037000    -0.0000080
  H        2.4020820    -2.9609650     0.0000010
units angstrom
no_reorient  #important for SAPT in psi4, default
symmetry c1  #important for SAPT in psi4, default
}

set PROPERTIES_ORIGIN ["COM"]
properties('MP2/aug-cc-pvtz', properties = ['dipole'])
--------------------------------------------------------------------------

    Molecular point group: c1
  Charge       = 0
  Multiplicity = 1
  Basis Set: AUG-CC-PVTZ
    Blend: AUG-CC-PVTZ
  Basis Set: (AUG-CC-PVTZ AUX)
    Blend: AUG-CC-PVTZ-JKFIT

    Orbital Energies [Eh]
    ---------------------

    Doubly Occupied:

       1A    -15.614955     2A    -15.569579     3A    -15.542402
       4A    -11.290271     5A    -11.288315     6A    -11.275733
       7A    -11.265836     8A    -11.254844     9A    -11.250103
      10A    -11.240412    11A    -11.240263    12A    -11.239213
      13A    -11.215415    14A     -1.349283    15A     -1.257059
      16A     -1.186676    17A     -1.097231    18A     -1.071198
      19A     -1.025945    20A     -0.957033    21A     -0.927412
      22A     -0.862612    23A     -0.833054    24A     -0.817625
      25A     -0.774011    26A     -0.728525    27A     -0.676165
      28A     -0.660368    29A     -0.629648    30A     -0.622560
      31A     -0.589544    32A     -0.579836    33A     -0.578217
      34A     -0.567745    35A     -0.558469    36A     -0.555961
      37A     -0.549455    38A     -0.544847    39A     -0.522840
      40A     -0.503942    41A     -0.430725    42A     -0.424602
      43A     -0.412356    44A     -0.385575    45A     -0.353854
      46A     -0.267167

  @DF-RHF Final Energy:  -548.61237079978469

   => Energetics <=

    Nuclear Repulsion Energy =            742.9550358062524538
    One-Electron Energy =               -2217.9570560846559601
    Two-Electron Energy =                 926.3896494786188214
    Total Energy =                       -548.6123707997846850
  Basis Set: (AUG-CC-PVTZ AUX)
    Blend: AUG-CC-PVTZ-RI
    Molecular point group: c1

    Geometry (in Angstrom), charge = 0, multiplicity = 1:

       Center              X                  Y                   Z               Mass
    ------------   -----------------  -----------------  -----------------  -----------------
         N           -1.616662278298    -0.769334867827    -0.000000942915    14.003074004430
         N           -1.266768278298     1.430944132173     0.000001057085    14.003074004430
         N            0.969337721702    -1.446523867827     0.000003057085    14.003074004430
         C           -0.679553278298     0.227728132173     0.000007057085    12.000000000000
         C            0.741260721702    -0.109917867827     0.000002057085    12.000000000000
         C            1.774065721702     0.854575132173     0.000002057085    12.000000000000
         C           -2.862162278298    -0.198060867827    -0.000008942915    12.000000000000
         C           -2.512801678298     1.185097332173    -0.000005442915    12.000000000000
         C            3.082942721702     0.363183132173    -0.000003942915    12.000000000000
         C            1.510378721702     2.334297132173     0.000003057085    12.000000000000
         C           -4.127216278298    -0.985967867827     0.000003057085    12.000000000000
         C            3.331565721702    -1.008429867827    -0.000002942915    12.000000000000
         C            2.240190721702    -1.873996867827    -0.000000942915    12.000000000000
         H           -1.361464278298    -1.752252867827     0.000006057085     1.007825032230
         H           -3.341674278298     1.965511132173    -0.000013942915     1.007825032230
         H            3.912512721702     1.068311132173    -0.000004942915     1.007825032230
         H            0.923054721702     2.630504132173    -0.871957942915     1.007825032230
         H            0.923059721702     2.630503132173     0.871968057085     1.007825032230
         H            2.459378721702     2.878876132173     0.000002057085     1.007825032230
         H           -4.207981278298    -1.625097867827    -0.885673942915     1.007825032230
         H           -4.207948278298    -1.625113867827     0.885671057085     1.007825032230
         H           -4.980110278298    -0.303185867827     0.000025057085     1.007825032230
         H            4.346306721702    -1.396767867827    -0.000007942915     1.007825032230
         H            2.378696721702    -2.954032867827     0.000001057085     1.007825032230

  Basis Set: AUG-CC-PVTZ
    Blend: AUG-CC-PVTZ
  Basis Set: (AUG-CC-PVTZ AUX)
    Blend: AUG-CC-PVTZ-JKFIT
	 Reference Energy          =    -548.6123707997846850 [Eh]
	 Singles Energy            =      -0.0000000000000000 [Eh]
	 Same-Spin Energy          =      -0.6133684812214260 [Eh]
	 Opposite-Spin Energy      =      -1.8795057293784274 [Eh]
	 Correlation Energy        =      -2.4928742105998536 [Eh]
	 Total Energy              =    -551.1052450103845786 [Eh]

	 ================> DF-SCS-MP2 Energies <==================
	-----------------------------------------------------------
	 SCS Same-Spin Scale       =       0.3333333333333333 [-]
	 SCS Opposite-Spin Scale   =       1.2000000000000000 [-]
	 SCS Same-Spin Energy      =      -0.2044561604071420 [Eh]
	 SCS Opposite-Spin Energy  =      -2.2554068752541130 [Eh]
	 SCS Correlation Energy    =      -2.4598630356612547 [Eh]
	 SCS Total Energy          =    -551.0722338354458998 [Eh]
	-----------------------------------------------------------

  Dipole Moment: [D]
     X:    -0.0079      Y:    -1.7149      Z:     0.0000     Total:     1.7149

*** Psi4 exiting successfully. Buy a developer a beer!
