                               Psi4 1.4a3.dev225

  ==> Input File <==

--------------------------------------------------------------------------
#psi4
#
memory 32 gb

molecule  {
0 1
  N       -1.5932770    -0.7762670    -0.0000010
  N       -1.2433830     1.4240120     0.0000010
  N        0.9927230    -1.4534560     0.0000030
  C       -0.6291540     0.3190845     0.0000072
  C        0.7646460    -0.1168500     0.0000020
  C        1.7974510     0.8476430     0.0000020
  C       -2.8387770    -0.2049930    -0.0000090
  C       -2.5875250     1.1588080    -0.0000060
  C        3.1063280     0.3562510    -0.0000040
  C        1.5337640     2.3273650     0.0000030
  C       -4.1038310    -0.9929000     0.0000030
  C        3.3549510    -1.0153620    -0.0000030
  C        2.2635760    -1.8809290    -0.0000010
  H       -1.3380790    -1.7591850     0.0000060
  H       -3.3182890     1.9585790    -0.0000140
  H        3.9358980     1.0613790    -0.0000050
  H        0.9464400     2.6235720    -0.8719580
  H        0.9464450     2.6235710     0.8719680
  H        2.4827640     2.8719440     0.0000020
  H       -4.1845960    -1.6320300    -0.8856740
  H       -4.1845630    -1.6320460     0.8856710
  H       -4.9567250    -0.3101180     0.0000250
  H        4.3696920    -1.4037000    -0.0000080
  H        2.4020820    -2.9609650     0.0000010
units angstrom
no_reorient  #important for SAPT in psi4, default
symmetry c1  #important for SAPT in psi4, default
}

set PROPERTIES_ORIGIN ["COM"]
properties('MP2/aug-cc-pvtz', properties = ['dipole'])
--------------------------------------------------------------------------

    Molecular point group: c1
  Charge       = 0
  Multiplicity = 1
  Basis Set: AUG-CC-PVTZ
    Blend: AUG-CC-PVTZ
  Basis Set: (AUG-CC-PVTZ AUX)
    Blend: AUG-CC-PVTZ-JKFIT

    Orbital Energies [Eh]
    ---------------------

    Doubly Occupied:

       1A    -15.594404     2A    -15.574034     3A    -15.545478
       4A    -11.294288     5A    -11.290257     6A    -11.278009
       7A    -11.270097     8A    -11.256074     9A    -11.251719
      10A    -11.243741    11A    -11.238145    12A    -11.231270
      13A    -11.217688    14A     -1.327525    15A     -1.257981
      16A     -1.168231    17A     -1.099305    18A     -1.071163
      19A     -1.024729    20A     -0.958403    21A     -0.934504
      22A     -0.870003    23A     -0.834636    24A     -0.799069
      25A     -0.770079    26A     -0.717829    27A     -0.677032
      28A     -0.662425    29A     -0.635941    30A     -0.613508
      31A     -0.594570    32A     -0.581382    33A     -0.575130
      34A     -0.569933    35A     -0.554451    36A     -0.551210
      37A     -0.550261    38A     -0.542430    39A     -0.523341
      40A     -0.511521    41A     -0.434425    42A     -0.419835
      43A     -0.402643    44A     -0.385248    45A     -0.354318
      46A     -0.280839

  @DF-RHF Final Energy:  -548.61780564463527

   => Energetics <=

    Nuclear Repulsion Energy =            741.2598238774909305
    One-Electron Energy =               -2214.6770470110518545
    Two-Electron Energy =                 924.7994174889257692
    Total Energy =                       -548.6178056446352684
  Basis Set: (AUG-CC-PVTZ AUX)
    Blend: AUG-CC-PVTZ-RI
    Molecular point group: c1

    Geometry (in Angstrom), charge = 0, multiplicity = 1:

       Center              X                  Y                   Z               Mass
    ------------   -----------------  -----------------  -----------------  -----------------
         N           -1.611733575942    -0.774806857040    -0.000000922117    14.003074004430
         N           -1.261839575942     1.425472142960     0.000001077883    14.003074004430
         N            0.974266424058    -1.451995857040     0.000003077883    14.003074004430
         C           -0.647610575942     0.320544642960     0.000007277883    12.000000000000
         C            0.746189424058    -0.115389857040     0.000002077883    12.000000000000
         C            1.778994424058     0.849103142960     0.000002077883    12.000000000000
         C           -2.857233575942    -0.203532857040    -0.000008922117    12.000000000000
         C           -2.605981575942     1.160268142960    -0.000005922117    12.000000000000
         C            3.087871424058     0.357711142960    -0.000003922117    12.000000000000
         C            1.515307424058     2.328825142960     0.000003077883    12.000000000000
         C           -4.122287575942    -0.991439857040     0.000003077883    12.000000000000
         C            3.336494424058    -1.013901857040    -0.000002922117    12.000000000000
         C            2.245119424058    -1.879468857040    -0.000000922117    12.000000000000
         H           -1.356535575942    -1.757724857040     0.000006077883     1.007825032230
         H           -3.336745575942     1.960039142960    -0.000013922117     1.007825032230
         H            3.917441424058     1.062839142960    -0.000004922117     1.007825032230
         H            0.927983424058     2.625032142960    -0.871957922117     1.007825032230
         H            0.927988424058     2.625031142960     0.871968077883     1.007825032230
         H            2.464307424058     2.873404142960     0.000002077883     1.007825032230
         H           -4.203052575942    -1.630569857040    -0.885673922117     1.007825032230
         H           -4.203019575942    -1.630585857040     0.885671077883     1.007825032230
         H           -4.975181575942    -0.308657857040     0.000025077883     1.007825032230
         H            4.351235424058    -1.402239857040    -0.000007922117     1.007825032230
         H            2.383625424058    -2.959504857040     0.000001077883     1.007825032230

  Basis Set: AUG-CC-PVTZ
    Blend: AUG-CC-PVTZ
  Basis Set: (AUG-CC-PVTZ AUX)
    Blend: AUG-CC-PVTZ-JKFIT
	 Reference Energy          =    -548.6178056446352684 [Eh]
	 Singles Energy            =      -0.0000000000000000 [Eh]
	 Same-Spin Energy          =      -0.6107196701639310 [Eh]
	 Opposite-Spin Energy      =      -1.8775862633107767 [Eh]
	 Correlation Energy        =      -2.4883059334747077 [Eh]
	 Total Energy              =    -551.1061115781100170 [Eh]

	 ================> DF-SCS-MP2 Energies <==================
	-----------------------------------------------------------
	 SCS Same-Spin Scale       =       0.3333333333333333 [-]
	 SCS Opposite-Spin Scale   =       1.2000000000000000 [-]
	 SCS Same-Spin Energy      =      -0.2035732233879770 [Eh]
	 SCS Opposite-Spin Energy  =      -2.2531035159729318 [Eh]
	 SCS Correlation Energy    =      -2.4566767393609088 [Eh]
	 SCS Total Energy          =    -551.0744823839961555 [Eh]
	-----------------------------------------------------------

  Dipole Moment: [D]
     X:     0.3678      Y:    -1.5461      Z:     0.0000     Total:     1.5892

*** Psi4 exiting successfully. Buy a developer a beer!
