                               Psi4 1.4a3.dev225

  ==> Input File <==

--------------------------------------------------------------------------
#psi4
#
memory 32 gb

molecule  {
0 1
  N       -1.5932770    -0.7762670    -0.0000010
  N       -1.2433830     1.4240120     0.0000010
  N        0.9927230    -1.4534560     0.0000030
  C       -0.6561680     0.2207960     0.0000070
  C        0.7646460    -0.1168500     0.0000020
  C        1.7974510     0.8476430     0.0000020
  C       -2.8387770    -0.2049930    -0.0000090
  C       -2.5875250     1.1588080    -0.0000060
  C        3.1063280     0.3562510    -0.0000040
  C        1.5337640     2.3273650     0.0000030
  C       -4.1038310    -0.9929000     0.0000030
  C        3.3549510    -1.0153620    -0.0000030
  C        2.2635760    -1.8809290    -0.0000010
  H       -1.3380790    -1.7591850     0.0000060
  H       -3.3182890     1.9585790    -0.0000140
  H        3.9358980     1.0613790    -0.0000050
  H        0.9464400     2.6235720    -0.8719580
  H        0.9464450     2.6235710     0.8719680
  H        2.4827640     2.8719440     0.0000020
  H       -4.2168102    -1.6137399    -0.8951101
  H       -4.1845630    -1.6320460     0.8856710
  H       -4.9567250    -0.3101180     0.0000250
  H        4.3696920    -1.4037000    -0.0000080
  H        2.4020820    -2.9609650     0.0000010
units angstrom
no_reorient  #important for SAPT in psi4, default
symmetry c1  #important for SAPT in psi4, default
}

set PROPERTIES_ORIGIN ["COM"]
properties('MP2/aug-cc-pvtz', properties = ['dipole'])
--------------------------------------------------------------------------

    Molecular point group: c1
  Charge       = 0
  Multiplicity = 1
  Basis Set: AUG-CC-PVTZ
    Blend: AUG-CC-PVTZ
  Basis Set: (AUG-CC-PVTZ AUX)
    Blend: AUG-CC-PVTZ-JKFIT

    Orbital Energies [Eh]
    ---------------------

    Doubly Occupied:

       1A    -15.607584     2A    -15.572656     3A    -15.544120
       4A    -11.293410     5A    -11.289389     6A    -11.277136
       7A    -11.265446     8A    -11.256324     9A    -11.252696
      10A    -11.243303    11A    -11.237508    12A    -11.234851
      13A    -11.215526    14A     -1.335171    15A     -1.258106
      16A     -1.160560    17A     -1.098589    18A     -1.072992
      19A     -1.028976    20A     -0.956922    21A     -0.929393
      22A     -0.865107    23A     -0.835903    24A     -0.804766
      25A     -0.778924    26A     -0.727456    27A     -0.676262
      28A     -0.660936    29A     -0.628639    30A     -0.618153
      31A     -0.593998    32A     -0.580214    33A     -0.575307
      34A     -0.564838    35A     -0.561213    36A     -0.553241
      37A     -0.548175    38A     -0.543023    39A     -0.522893
      40A     -0.507660    41A     -0.433393    42A     -0.424242
      43A     -0.394499    44A     -0.386523    45A     -0.355158
      46A     -0.279366

  @DF-RHF Final Energy:  -548.62679124852468

   => Energetics <=

    Nuclear Repulsion Energy =            741.3461178784403955
    One-Electron Energy =               -2214.8447268741551852
    Two-Electron Energy =                 924.8718177471899935
    Total Energy =                       -548.6267912485246825
  Basis Set: (AUG-CC-PVTZ AUX)
    Blend: AUG-CC-PVTZ-RI
    Molecular point group: c1

    Geometry (in Angstrom), charge = 0, multiplicity = 1:

       Center              X                  Y                   Z               Mass
    ------------   -----------------  -----------------  -----------------  -----------------
         N           -1.609673241071    -0.768099402839     0.000054032223    14.003074004430
         N           -1.259779241071     1.432179597161     0.000056032223    14.003074004430
         N            0.976326758929    -1.445288402839     0.000058032223    14.003074004430
         C           -0.672564241071     0.228963597161     0.000062032223    12.000000000000
         C            0.748249758929    -0.108682402839     0.000057032223    12.000000000000
         C            1.781054758929     0.855810597161     0.000057032223    12.000000000000
         C           -2.855173241071    -0.196825402839     0.000046032223    12.000000000000
         C           -2.603921241071     1.166975597161     0.000049032223    12.000000000000
         C            3.089931758929     0.364418597161     0.000051032223    12.000000000000
         C            1.517367758929     2.335532597161     0.000058032223    12.000000000000
         C           -4.120227241071    -0.984732402839     0.000058032223    12.000000000000
         C            3.338554758929    -1.007194402839     0.000052032223    12.000000000000
         C            2.247179758929    -1.872761402839     0.000054032223    12.000000000000
         H           -1.354475241071    -1.751017402839     0.000061032223     1.007825032230
         H           -3.334685241071     1.966746597161     0.000041032223     1.007825032230
         H            3.919501758929     1.069546597161     0.000050032223     1.007825032230
         H            0.930043758929     2.631739597161    -0.871902967777     1.007825032230
         H            0.930048758929     2.631738597161     0.872023032223     1.007825032230
         H            2.466367758929     2.880111597161     0.000057032223     1.007825032230
         H           -4.233206441071    -1.605572302839    -0.895055067777     1.007825032230
         H           -4.200959241071    -1.623878402839     0.885726032223     1.007825032230
         H           -4.973121241071    -0.301950402839     0.000080032223     1.007825032230
         H            4.353295758929    -1.395532402839     0.000047032223     1.007825032230
         H            2.385685758929    -2.952797402839     0.000056032223     1.007825032230

  Basis Set: AUG-CC-PVTZ
    Blend: AUG-CC-PVTZ
  Basis Set: (AUG-CC-PVTZ AUX)
    Blend: AUG-CC-PVTZ-JKFIT
	 Reference Energy          =    -548.6267912485246825 [Eh]
	 Singles Energy            =      -0.0000000000000000 [Eh]
	 Same-Spin Energy          =      -0.6116329749905025 [Eh]
	 Opposite-Spin Energy      =      -1.8786014739089218 [Eh]
	 Correlation Energy        =      -2.4902344488994244 [Eh]
	 Total Energy              =    -551.1170256974240829 [Eh]

	 ================> DF-SCS-MP2 Energies <==================
	-----------------------------------------------------------
	 SCS Same-Spin Scale       =       0.3333333333333333 [-]
	 SCS Opposite-Spin Scale   =       1.2000000000000000 [-]
	 SCS Same-Spin Energy      =      -0.2038776583301675 [Eh]
	 SCS Opposite-Spin Energy  =      -2.2543217686907062 [Eh]
	 SCS Correlation Energy    =      -2.4581994270208738 [Eh]
	 SCS Total Energy          =    -551.0849906755455550 [Eh]
	-----------------------------------------------------------

  Dipole Moment: [D]
     X:     0.1542      Y:    -1.7457      Z:    -0.0069     Total:     1.7525

*** Psi4 exiting successfully. Buy a developer a beer!
