                               Psi4 1.4a3.dev225

  ==> Input File <==

--------------------------------------------------------------------------
#psi4
#
memory 32 gb

molecule  {
0 1
  N       -1.5932770    -0.7762670    -0.0000010
  N       -1.2433830     1.4240120     0.0000010
  N        0.9693613    -1.4572329     0.0000031
  C       -0.6561680     0.2207960     0.0000070
  C        0.7646460    -0.1168500     0.0000020
  C        1.7974510     0.8476430     0.0000020
  C       -2.8387770    -0.2049930    -0.0000090
  C       -2.5875250     1.1588080    -0.0000060
  C        3.1063280     0.3562510    -0.0000040
  C        1.5337640     2.3273650     0.0000030
  C       -4.1038310    -0.9929000     0.0000030
  C        3.3549510    -1.0153620    -0.0000030
  C        2.2635760    -1.8809290    -0.0000010
  H       -1.3380790    -1.7591850     0.0000060
  H       -3.3182890     1.9585790    -0.0000140
  H        3.9358980     1.0613790    -0.0000050
  H        0.9464400     2.6235720    -0.8719580
  H        0.9464450     2.6235710     0.8719680
  H        2.4827640     2.8719440     0.0000020
  H       -4.1845960    -1.6320300    -0.8856740
  H       -4.1845630    -1.6320460     0.8856710
  H       -4.9567250    -0.3101180     0.0000250
  H        4.3696920    -1.4037000    -0.0000080
  H        2.4020820    -2.9609650     0.0000010
units angstrom
no_reorient  #important for SAPT in psi4, default
symmetry c1  #important for SAPT in psi4, default
}

set PROPERTIES_ORIGIN ["COM"]
properties('MP2/aug-cc-pvtz', properties = ['dipole'])
--------------------------------------------------------------------------

    Molecular point group: c1
  Charge       = 0
  Multiplicity = 1
  Basis Set: AUG-CC-PVTZ
    Blend: AUG-CC-PVTZ
  Basis Set: (AUG-CC-PVTZ AUX)
    Blend: AUG-CC-PVTZ-JKFIT

    Orbital Energies [Eh]
    ---------------------

    Doubly Occupied:

       1A    -15.607019     2A    -15.575498     3A    -15.543811
       4A    -11.292694     5A    -11.289874     6A    -11.279566
       7A    -11.265078     8A    -11.257141     9A    -11.252974
      10A    -11.244025    11A    -11.237515    12A    -11.234315
      13A    -11.215806    14A     -1.334859    15A     -1.253981
      16A     -1.160249    17A     -1.098694    18A     -1.072241
      19A     -1.029086    20A     -0.955914    21A     -0.929036
      22A     -0.864932    23A     -0.836826    24A     -0.804143
      25A     -0.777927    26A     -0.726242    27A     -0.674331
      28A     -0.660794    29A     -0.629323    30A     -0.617626
      31A     -0.593308    32A     -0.579388    33A     -0.574661
      34A     -0.564683    35A     -0.560891    36A     -0.552381
      37A     -0.548384    38A     -0.544574    39A     -0.520894
      40A     -0.506663    41A     -0.435329    42A     -0.426232
      43A     -0.394177    44A     -0.387320    45A     -0.353361
      46A     -0.279527

  @DF-RHF Final Energy:  -548.62500284217981

   => Energetics <=

    Nuclear Repulsion Energy =            741.1565559813760729
    One-Electron Energy =               -2214.4765334187331973
    Two-Electron Energy =                 924.6949745951772002
    Total Energy =                       -548.6250028421798106
  Basis Set: (AUG-CC-PVTZ AUX)
    Blend: AUG-CC-PVTZ-RI
    Molecular point group: c1

    Geometry (in Angstrom), charge = 0, multiplicity = 1:

       Center              X                  Y                   Z               Mass
    ------------   -----------------  -----------------  -----------------  -----------------
         N           -1.607970887851    -0.767687367204    -0.000000916341    14.003074004430
         N           -1.258076887851     1.432591632796     0.000001083659    14.003074004430
         N            0.954667412149    -1.448653267204     0.000003183659    14.003074004430
         C           -0.670861887851     0.229375632796     0.000007083659    12.000000000000
         C            0.749952112149    -0.108270367204     0.000002083659    12.000000000000
         C            1.782757112149     0.856222632796     0.000002083659    12.000000000000
         C           -2.853470887851    -0.196413367204    -0.000008916341    12.000000000000
         C           -2.602218887851     1.167387632796    -0.000005916341    12.000000000000
         C            3.091634112149     0.364830632796    -0.000003916341    12.000000000000
         C            1.519070112149     2.335944632796     0.000003083659    12.000000000000
         C           -4.118524887851    -0.984320367204     0.000003083659    12.000000000000
         C            3.340257112149    -1.006782367204    -0.000002916341    12.000000000000
         C            2.248882112149    -1.872349367204    -0.000000916341    12.000000000000
         H           -1.352772887851    -1.750605367204     0.000006083659     1.007825032230
         H           -3.332982887851     1.967158632796    -0.000013916341     1.007825032230
         H            3.921204112149     1.069958632796    -0.000004916341     1.007825032230
         H            0.931746112149     2.632151632796    -0.871957916341     1.007825032230
         H            0.931751112149     2.632150632796     0.871968083659     1.007825032230
         H            2.468070112149     2.880523632796     0.000002083659     1.007825032230
         H           -4.199289887851    -1.623450367204    -0.885673916341     1.007825032230
         H           -4.199256887851    -1.623466367204     0.885671083659     1.007825032230
         H           -4.971418887851    -0.301538367204     0.000025083659     1.007825032230
         H            4.354998112149    -1.395120367204    -0.000007916341     1.007825032230
         H            2.387388112149    -2.952385367204     0.000001083659     1.007825032230

  Basis Set: AUG-CC-PVTZ
    Blend: AUG-CC-PVTZ
  Basis Set: (AUG-CC-PVTZ AUX)
    Blend: AUG-CC-PVTZ-JKFIT
	 Reference Energy          =    -548.6250028421798106 [Eh]
	 Singles Energy            =      -0.0000000000000000 [Eh]
	 Same-Spin Energy          =      -0.6118590085733004 [Eh]
	 Opposite-Spin Energy      =      -1.8794182832239779 [Eh]
	 Correlation Energy        =      -2.4912772917972781 [Eh]
	 Total Energy              =    -551.1162801339770567 [Eh]

	 ================> DF-SCS-MP2 Energies <==================
	-----------------------------------------------------------
	 SCS Same-Spin Scale       =       0.3333333333333333 [-]
	 SCS Opposite-Spin Scale   =       1.2000000000000000 [-]
	 SCS Same-Spin Energy      =      -0.2039530028577668 [Eh]
	 SCS Opposite-Spin Energy  =      -2.2553019398687733 [Eh]
	 SCS Correlation Energy    =      -2.4592549427265400 [Eh]
	 SCS Total Energy          =    -551.0842577849062991 [Eh]
	-----------------------------------------------------------

  Dipole Moment: [D]
     X:     0.2226      Y:    -1.7373      Z:     0.0000     Total:     1.7516

*** Psi4 exiting successfully. Buy a developer a beer!
