                               Psi4 1.4a3.dev225

  ==> Input File <==

--------------------------------------------------------------------------
#psi4
#
memory 32 gb

molecule  {
0 1
  N       -1.5932770    -0.7762670    -0.0000010
  N       -1.2433830     1.4240120     0.0000010
  N        0.9927230    -1.4534560     0.0000030
  C       -0.6130910     0.3674618     0.0000073
  C        0.7646460    -0.1168500     0.0000020
  C        1.7974510     0.8476430     0.0000020
  C       -2.8387770    -0.2049930    -0.0000090
  C       -2.5875250     1.1588080    -0.0000060
  C        3.1063280     0.3562510    -0.0000040
  C        1.5337640     2.3273650     0.0000030
  C       -4.1038310    -0.9929000     0.0000030
  C        3.3549510    -1.0153620    -0.0000030
  C        2.2635760    -1.8809290    -0.0000010
  H       -1.3380790    -1.7591850     0.0000060
  H       -3.3182890     1.9585790    -0.0000140
  H        3.9358980     1.0613790    -0.0000050
  H        0.9464400     2.6235720    -0.8719580
  H        0.9464450     2.6235710     0.8719680
  H        2.4827640     2.8719440     0.0000020
  H       -4.1845960    -1.6320300    -0.8856740
  H       -4.1845630    -1.6320460     0.8856710
  H       -4.9567250    -0.3101180     0.0000250
  H        4.3696920    -1.4037000    -0.0000080
  H        2.4020820    -2.9609650     0.0000010
units angstrom
no_reorient  #important for SAPT in psi4, default
symmetry c1  #important for SAPT in psi4, default
}

set PROPERTIES_ORIGIN ["COM"]
properties('MP2/aug-cc-pvtz', properties = ['dipole'])
--------------------------------------------------------------------------

    Molecular point group: c1
  Charge       = 0
  Multiplicity = 1
  Basis Set: AUG-CC-PVTZ
    Blend: AUG-CC-PVTZ
  Basis Set: (AUG-CC-PVTZ AUX)
    Blend: AUG-CC-PVTZ-JKFIT

    Orbital Energies [Eh]
    ---------------------

    Doubly Occupied:

       1A    -15.586703     2A    -15.575088     3A    -15.545791
       4A    -11.295085     5A    -11.291470     6A    -11.278714
       7A    -11.271720     8A    -11.256280     9A    -11.251691
      10A    -11.244322    11A    -11.237990    12A    -11.229578
      13A    -11.219082    14A     -1.327140    15A     -1.258462
      16A     -1.170295    17A     -1.100115    18A     -1.070651
      19A     -1.022152    20A     -0.959346    21A     -0.937267
      22A     -0.873004    23A     -0.834293    24A     -0.796826
      25A     -0.766809    26A     -0.713161    27A     -0.677179
      28A     -0.664230    29A     -0.638593    30A     -0.612205
      31A     -0.594921    32A     -0.582360    33A     -0.576062
      34A     -0.571590    35A     -0.551636    36A     -0.551312
      37A     -0.550879    38A     -0.538850    39A     -0.523980
      40A     -0.513206    41A     -0.434040    42A     -0.416453
      43A     -0.406758    44A     -0.385077    45A     -0.353892
      46A     -0.280807

  @DF-RHF Final Energy:  -548.60492885711938

   => Energetics <=

    Nuclear Repulsion Energy =            741.2175423688673845
    One-Electron Energy =               -2214.5708099711846444
    Two-Electron Energy =                 924.7483387451979979
    Total Energy =                       -548.6049288571193756
  Basis Set: (AUG-CC-PVTZ AUX)
    Blend: AUG-CC-PVTZ-RI
    Molecular point group: c1

    Geometry (in Angstrom), charge = 0, multiplicity = 1:

       Center              X                  Y                   Z               Mass
    ------------   -----------------  -----------------  -----------------  -----------------
         N           -1.612847159054    -0.778160660458    -0.000000929049    14.003074004430
         N           -1.262953159054     1.422118339542     0.000001070951    14.003074004430
         N            0.973152840946    -1.455349660458     0.000003070951    14.003074004430
         C           -0.632661159054     0.365568139542     0.000007370951    12.000000000000
         C            0.745075840946    -0.118743660458     0.000002070951    12.000000000000
         C            1.777880840946     0.845749339542     0.000002070951    12.000000000000
         C           -2.858347159054    -0.206886660458    -0.000008929049    12.000000000000
         C           -2.607095159054     1.156914339542    -0.000005929049    12.000000000000
         C            3.086757840946     0.354357339542    -0.000003929049    12.000000000000
         C            1.514193840946     2.325471339542     0.000003070951    12.000000000000
         C           -4.123401159054    -0.994793660458     0.000003070951    12.000000000000
         C            3.335380840946    -1.017255660458    -0.000002929049    12.000000000000
         C            2.244005840946    -1.882822660458    -0.000000929049    12.000000000000
         H           -1.357649159054    -1.761078660458     0.000006070951     1.007825032230
         H           -3.337859159054     1.956685339542    -0.000013929049     1.007825032230
         H            3.916327840946     1.059485339542    -0.000004929049     1.007825032230
         H            0.926869840946     2.621678339542    -0.871957929049     1.007825032230
         H            0.926874840946     2.621677339542     0.871968070951     1.007825032230
         H            2.463193840946     2.870050339542     0.000002070951     1.007825032230
         H           -4.204166159054    -1.633923660458    -0.885673929049     1.007825032230
         H           -4.204133159054    -1.633939660458     0.885671070951     1.007825032230
         H           -4.976295159054    -0.312011660458     0.000025070951     1.007825032230
         H            4.350121840946    -1.405593660458    -0.000007929049     1.007825032230
         H            2.382511840946    -2.962858660458     0.000001070951     1.007825032230

  Basis Set: AUG-CC-PVTZ
    Blend: AUG-CC-PVTZ
  Basis Set: (AUG-CC-PVTZ AUX)
    Blend: AUG-CC-PVTZ-JKFIT
	 Reference Energy          =    -548.6049288571193756 [Eh]
	 Singles Energy            =      -0.0000000000000000 [Eh]
	 Same-Spin Energy          =      -0.6105510246832897 [Eh]
	 Opposite-Spin Energy      =      -1.8775383873312643 [Eh]
	 Correlation Energy        =      -2.4880894120145540 [Eh]
	 Total Energy              =    -551.0930182691339496 [Eh]

	 ================> DF-SCS-MP2 Energies <==================
	-----------------------------------------------------------
	 SCS Same-Spin Scale       =       0.3333333333333333 [-]
	 SCS Opposite-Spin Scale   =       1.2000000000000000 [-]
	 SCS Same-Spin Energy      =      -0.2035170082277632 [Eh]
	 SCS Opposite-Spin Energy  =      -2.2530460647975170 [Eh]
	 SCS Correlation Energy    =      -2.4565630730252801 [Eh]
	 SCS Total Energy          =    -551.0614919301447117 [Eh]
	-----------------------------------------------------------

  Dipole Moment: [D]
     X:     0.5062      Y:    -1.4194      Z:     0.0000     Total:     1.5070

*** Psi4 exiting successfully. Buy a developer a beer!
