                               Psi4 1.4a3.dev225

  ==> Input File <==

--------------------------------------------------------------------------
#psi4
#
memory 32 gb

molecule  {
0 1
  N       -1.5932770    -0.7762670    -0.0000010
  N       -1.2433830     1.4240120     0.0000010
  N        0.8989305    -1.4661099     0.0000030
  C       -0.6561680     0.2207960     0.0000070
  C        0.7646460    -0.1168500     0.0000020
  C        1.7974510     0.8476430     0.0000020
  C       -2.8387770    -0.2049930    -0.0000090
  C       -2.5875250     1.1588080    -0.0000060
  C        3.1063280     0.3562510    -0.0000040
  C        1.5337640     2.3273650     0.0000030
  C       -4.1038310    -0.9929000     0.0000030
  C        3.3549510    -1.0153620    -0.0000030
  C        2.2635760    -1.8809290    -0.0000010
  H       -1.3380790    -1.7591850     0.0000060
  H       -3.3182890     1.9585790    -0.0000140
  H        3.9358980     1.0613790    -0.0000050
  H        0.9464400     2.6235720    -0.8719580
  H        0.9464450     2.6235710     0.8719680
  H        2.4827640     2.8719440     0.0000020
  H       -4.1845960    -1.6320300    -0.8856740
  H       -4.1845630    -1.6320460     0.8856710
  H       -4.9567250    -0.3101180     0.0000250
  H        4.3696920    -1.4037000    -0.0000080
  H        2.4020820    -2.9609650     0.0000010
units angstrom
no_reorient  #important for SAPT in psi4, default
symmetry c1  #important for SAPT in psi4, default
}

set PROPERTIES_ORIGIN ["COM"]
properties('MP2/aug-cc-pvtz', properties = ['dipole'])
--------------------------------------------------------------------------

    Molecular point group: c1
  Charge       = 0
  Multiplicity = 1
  Basis Set: AUG-CC-PVTZ
    Blend: AUG-CC-PVTZ
  Basis Set: (AUG-CC-PVTZ AUX)
    Blend: AUG-CC-PVTZ-JKFIT

    Orbital Energies [Eh]
    ---------------------

    Doubly Occupied:

       1A    -15.605301     2A    -15.583544     3A    -15.542945
       4A    -11.291876     5A    -11.290506     6A    -11.286394
       7A    -11.264254     8A    -11.259598     9A    -11.253988
      10A    -11.246251    11A    -11.236927    12A    -11.233157
      13A    -11.216727    14A     -1.334054    15A     -1.243217
      16A     -1.159348    17A     -1.100120    18A     -1.069094
      19A     -1.029003    20A     -0.952871    21A     -0.928191
      22A     -0.864955    23A     -0.838929    24A     -0.802304
      25A     -0.775450    26A     -0.723507    27A     -0.669183
      28A     -0.660277    29A     -0.630741    30A     -0.616809
      31A     -0.590837    32A     -0.578696    33A     -0.572996
      34A     -0.564528    35A     -0.559864    36A     -0.552218
      37A     -0.547473    38A     -0.543543    39A     -0.515737
      40A     -0.503122    41A     -0.443968    42A     -0.427728
      43A     -0.393856    44A     -0.389689    45A     -0.348197
      46A     -0.280406

  @DF-RHF Final Energy:  -548.61352550141339

   => Energetics <=

    Nuclear Repulsion Energy =            740.5443845714132749
    One-Electron Energy =               -2213.2710653489252763
    Two-Electron Energy =                 924.1131552760986096
    Total Energy =                       -548.6135255014133918
  Basis Set: (AUG-CC-PVTZ AUX)
    Blend: AUG-CC-PVTZ-RI
    Molecular point group: c1

    Geometry (in Angstrom), charge = 0, multiplicity = 1:

       Center              X                  Y                   Z               Mass
    ------------   -----------------  -----------------  -----------------  -----------------
         N           -1.602273172664    -0.766969235112    -0.000000908252    14.003074004430
         N           -1.252379172664     1.433309764888     0.000001091748    14.003074004430
         N            0.889934327336    -1.456812135112     0.000003091748    14.003074004430
         C           -0.665164172664     0.230093764888     0.000007091748    12.000000000000
         C            0.755649827336    -0.107552235112     0.000002091748    12.000000000000
         C            1.788454827336     0.856940764888     0.000002091748    12.000000000000
         C           -2.847773172664    -0.195695235112    -0.000008908252    12.000000000000
         C           -2.596521172664     1.168105764888    -0.000005908252    12.000000000000
         C            3.097331827336     0.365548764888    -0.000003908252    12.000000000000
         C            1.524767827336     2.336662764888     0.000003091748    12.000000000000
         C           -4.112827172664    -0.983602235112     0.000003091748    12.000000000000
         C            3.345954827336    -1.006064235112    -0.000002908252    12.000000000000
         C            2.254579827336    -1.871631235112    -0.000000908252    12.000000000000
         H           -1.347075172664    -1.749887235112     0.000006091748     1.007825032230
         H           -3.327285172664     1.967876764888    -0.000013908252     1.007825032230
         H            3.926901827336     1.070676764888    -0.000004908252     1.007825032230
         H            0.937443827336     2.632869764888    -0.871957908252     1.007825032230
         H            0.937448827336     2.632868764888     0.871968091748     1.007825032230
         H            2.473767827336     2.881241764888     0.000002091748     1.007825032230
         H           -4.193592172664    -1.622732235112    -0.885673908252     1.007825032230
         H           -4.193559172664    -1.622748235112     0.885671091748     1.007825032230
         H           -4.965721172664    -0.300820235112     0.000025091748     1.007825032230
         H            4.360695827336    -1.394402235112    -0.000007908252     1.007825032230
         H            2.393085827336    -2.951667235112     0.000001091748     1.007825032230

  Basis Set: AUG-CC-PVTZ
    Blend: AUG-CC-PVTZ
  Basis Set: (AUG-CC-PVTZ AUX)
    Blend: AUG-CC-PVTZ-JKFIT
	 Reference Energy          =    -548.6135255014133918 [Eh]
	 Singles Energy            =      -0.0000000000000000 [Eh]
	 Same-Spin Energy          =      -0.6126499469866282 [Eh]
	 Opposite-Spin Energy      =      -1.8822883740727439 [Eh]
	 Correlation Energy        =      -2.4949383210593723 [Eh]
	 Total Energy              =    -551.1084638224727996 [Eh]

	 ================> DF-SCS-MP2 Energies <==================
	-----------------------------------------------------------
	 SCS Same-Spin Scale       =       0.3333333333333333 [-]
	 SCS Opposite-Spin Scale   =       1.2000000000000000 [-]
	 SCS Same-Spin Energy      =      -0.2042166489955427 [Eh]
	 SCS Opposite-Spin Energy  =      -2.2587460488872924 [Eh]
	 SCS Correlation Energy    =      -2.4629626978828352 [Eh]
	 SCS Total Energy          =    -551.0764881992962501 [Eh]
	-----------------------------------------------------------

  Dipole Moment: [D]
     X:     0.4059      Y:    -1.6919      Z:     0.0000     Total:     1.7399

*** Psi4 exiting successfully. Buy a developer a beer!
