                               Psi4 1.4a3.dev225

  ==> Input File <==

--------------------------------------------------------------------------
#psi4
#
memory 32 gb

molecule  {
0 1
  N       -1.5932770    -0.7762670    -0.0000010
  N       -1.2433830     1.4240120     0.0000010
  N        0.9927230    -1.4534560     0.0000030
  C       -0.6561680     0.2207960     0.0000070
  C        0.7646460    -0.1168500     0.0000020
  C        1.7974510     0.8476430     0.0000020
  C       -2.8387770    -0.2049930    -0.0000090
  C       -2.5875250     1.1588080    -0.0000060
  C        3.1063280     0.3562510    -0.0000040
  C        1.5337640     2.3273650     0.0000030
  C       -4.1038310    -0.9929000     0.0000030
  C        3.3549510    -1.0153620    -0.0000030
  C        2.2635760    -1.8809290    -0.0000010
  H       -1.3380790    -1.7591850     0.0000060
  H       -3.3182890     1.9585790    -0.0000140
  H        3.9358980     1.0613790    -0.0000050
  H        0.9464400     2.6235720    -0.8719580
  H        0.9464450     2.6235710     0.8719680
  H        2.4827640     2.8719440     0.0000020
  H       -4.1845960    -1.6320300    -0.8856740
  H       -4.1845630    -1.6320460     0.8856710
  H       -4.9567250    -0.3101180     0.0000250
  H        4.3696920    -1.4037000    -0.0000080
  H        2.3893620    -2.8617773     0.0000008
units angstrom
no_reorient  #important for SAPT in psi4, default
symmetry c1  #important for SAPT in psi4, default
}

set PROPERTIES_ORIGIN ["COM"]
properties('MP2/aug-cc-pvtz', properties = ['dipole'])
--------------------------------------------------------------------------

    Molecular point group: c1
  Charge       = 0
  Multiplicity = 1
  Basis Set: AUG-CC-PVTZ
    Blend: AUG-CC-PVTZ
  Basis Set: (AUG-CC-PVTZ AUX)
    Blend: AUG-CC-PVTZ-JKFIT

    Orbital Energies [Eh]
    ---------------------

    Doubly Occupied:

       1A    -15.607305     2A    -15.571867     3A    -15.543793
       4A    -11.293054     5A    -11.288652     6A    -11.265198
       7A    -11.265099     8A    -11.255732     9A    -11.252445
      10A    -11.242476    11A    -11.237563    12A    -11.234469
      13A    -11.215303    14A     -1.334891    15A     -1.258017
      16A     -1.160304    17A     -1.098257    18A     -1.074317
      19A     -1.029388    20A     -0.957631    21A     -0.931989
      22A     -0.865476    23A     -0.838925    24A     -0.804539
      25A     -0.783711    26A     -0.731171    27A     -0.680597
      28A     -0.660691    29A     -0.630413    30A     -0.617677
      31A     -0.600925    32A     -0.579427    33A     -0.576783
      34A     -0.565104    35A     -0.561379    36A     -0.552250
      37A     -0.548193    38A     -0.544676    39A     -0.522343
      40A     -0.509235    41A     -0.433722    42A     -0.424431
      43A     -0.394196    44A     -0.385995    45A     -0.354820
      46A     -0.278955

  @DF-RHF Final Energy:  -548.62130111043723

   => Energetics <=

    Nuclear Repulsion Energy =            741.9656462684038161
    One-Electron Energy =               -2216.0471211732296979
    Two-Electron Energy =                 925.4601737943886519
    Total Energy =                       -548.6213011104372299
  Basis Set: (AUG-CC-PVTZ AUX)
    Blend: AUG-CC-PVTZ-RI
    Molecular point group: c1

    Geometry (in Angstrom), charge = 0, multiplicity = 1:

       Center              X                  Y                   Z               Mass
    ------------   -----------------  -----------------  -----------------  -----------------
         N           -1.609786743535    -0.768570418676    -0.000000907087    14.003074004430
         N           -1.259892743535     1.431708581324     0.000001092913    14.003074004430
         N            0.976213256465    -1.445759418676     0.000003092913    14.003074004430
         C           -0.672677743535     0.228492581324     0.000007092913    12.000000000000
         C            0.748136256465    -0.109153418676     0.000002092913    12.000000000000
         C            1.780941256465     0.855339581324     0.000002092913    12.000000000000
         C           -2.855286743535    -0.197296418676    -0.000008907087    12.000000000000
         C           -2.604034743535     1.166504581324    -0.000005907087    12.000000000000
         C            3.089818256465     0.363947581324    -0.000003907087    12.000000000000
         C            1.517254256465     2.335061581324     0.000003092913    12.000000000000
         C           -4.120340743535    -0.985203418676     0.000003092913    12.000000000000
         C            3.338441256465    -1.007665418676    -0.000002907087    12.000000000000
         C            2.247066256465    -1.873232418676    -0.000000907087    12.000000000000
         H           -1.354588743535    -1.751488418676     0.000006092913     1.007825032230
         H           -3.334798743535     1.966275581324    -0.000013907087     1.007825032230
         H            3.919388256465     1.069075581324    -0.000004907087     1.007825032230
         H            0.929930256465     2.631268581324    -0.871957907087     1.007825032230
         H            0.929935256465     2.631267581324     0.871968092913     1.007825032230
         H            2.466254256465     2.879640581324     0.000002092913     1.007825032230
         H           -4.201105743535    -1.624333418676    -0.885673907087     1.007825032230
         H           -4.201072743535    -1.624349418676     0.885671092913     1.007825032230
         H           -4.973234743535    -0.302421418676     0.000025092913     1.007825032230
         H            4.353182256465    -1.396003418676    -0.000007907087     1.007825032230
         H            2.372852256465    -2.854080718676     0.000000892913     1.007825032230

  Basis Set: AUG-CC-PVTZ
    Blend: AUG-CC-PVTZ
  Basis Set: (AUG-CC-PVTZ AUX)
    Blend: AUG-CC-PVTZ-JKFIT
	 Reference Energy          =    -548.6213011104372299 [Eh]
	 Singles Energy            =      -0.0000000000000000 [Eh]
	 Same-Spin Energy          =      -0.6114300608989325 [Eh]
	 Opposite-Spin Energy      =      -1.8779946387528441 [Eh]
	 Correlation Energy        =      -2.4894246996517766 [Eh]
	 Total Energy              =    -551.1107258100889794 [Eh]

	 ================> DF-SCS-MP2 Energies <==================
	-----------------------------------------------------------
	 SCS Same-Spin Scale       =       0.3333333333333333 [-]
	 SCS Opposite-Spin Scale   =       1.2000000000000000 [-]
	 SCS Same-Spin Energy      =      -0.2038100202996442 [Eh]
	 SCS Opposite-Spin Energy  =      -2.2535935665034130 [Eh]
	 SCS Correlation Energy    =      -2.4574035868030570 [Eh]
	 SCS Total Energy          =    -551.0787046972402550 [Eh]
	-----------------------------------------------------------

  Dipole Moment: [D]
     X:     0.1841      Y:    -1.7875      Z:     0.0000     Total:     1.7970

*** Psi4 exiting successfully. Buy a developer a beer!
