                               Psi4 1.4a3.dev225

  ==> Input File <==

--------------------------------------------------------------------------
#psi4
#
memory 32 gb

molecule  {
0 1
  N       -1.5932770    -0.7762670    -0.0000010
  N       -1.2433830     1.4240120     0.0000010
  N        0.9927230    -1.4534560     0.0000030
  C       -0.6561680     0.2207960     0.0000070
  C        0.7646460    -0.1168500     0.0000020
  C        1.7160858     0.8415071     0.1345134
  C       -2.8387770    -0.2049930    -0.0000090
  C       -2.5875250     1.1588080    -0.0000060
  C        3.1063280     0.3562510    -0.0000040
  C        1.5337640     2.3273650     0.0000030
  C       -4.1038310    -0.9929000     0.0000030
  C        3.3549510    -1.0153620    -0.0000030
  C        2.2635760    -1.8809290    -0.0000010
  H       -1.3380790    -1.7591850     0.0000060
  H       -3.3182890     1.9585790    -0.0000140
  H        3.9358980     1.0613790    -0.0000050
  H        0.9464400     2.6235720    -0.8719580
  H        0.9464450     2.6235710     0.8719680
  H        2.4827640     2.8719440     0.0000020
  H       -4.1845960    -1.6320300    -0.8856740
  H       -4.1845630    -1.6320460     0.8856710
  H       -4.9567250    -0.3101180     0.0000250
  H        4.3696920    -1.4037000    -0.0000080
  H        2.4020820    -2.9609650     0.0000010
units angstrom
no_reorient  #important for SAPT in psi4, default
symmetry c1  #important for SAPT in psi4, default
}

set PROPERTIES_ORIGIN ["COM"]
properties('MP2/aug-cc-pvtz', properties = ['dipole'])
--------------------------------------------------------------------------

    Molecular point group: c1
  Charge       = 0
  Multiplicity = 1
  Basis Set: AUG-CC-PVTZ
    Blend: AUG-CC-PVTZ
  Basis Set: (AUG-CC-PVTZ AUX)
    Blend: AUG-CC-PVTZ-JKFIT

    Orbital Energies [Eh]
    ---------------------

    Doubly Occupied:

       1A    -15.605233     2A    -15.572312     3A    -15.541030
       4A    -11.290344     5A    -11.281726     6A    -11.281001
       7A    -11.267435     8A    -11.262395     9A    -11.254293
      10A    -11.244608    11A    -11.235983    12A    -11.232657
      13A    -11.216044    14A     -1.333061    15A     -1.259081
      16A     -1.158496    17A     -1.091658    18A     -1.076165
      19A     -1.029398    20A     -0.956836    21A     -0.927185
      22A     -0.865823    23A     -0.838941    24A     -0.803149
      25A     -0.774778    26A     -0.726929    27A     -0.674448
      28A     -0.660782    29A     -0.628552    30A     -0.616423
      31A     -0.596421    32A     -0.579867    33A     -0.574372
      34A     -0.566922    35A     -0.559245    36A     -0.553895
      37A     -0.549142    38A     -0.543520    39A     -0.523080
      40A     -0.490846    41A     -0.434611    42A     -0.425083
      43A     -0.392656    44A     -0.382661    45A     -0.355655
      46A     -0.279665

  @DF-RHF Final Energy:  -548.61271919366038

   => Energetics <=

    Nuclear Repulsion Energy =            741.8036701515626419
    One-Electron Energy =               -2215.8039656878127062
    Two-Electron Energy =                 925.3875763425897958
    Total Energy =                       -548.6127191936603822
  Basis Set: (AUG-CC-PVTZ AUX)
    Blend: AUG-CC-PVTZ-RI
    Molecular point group: c1

    Geometry (in Angstrom), charge = 0, multiplicity = 1:

       Center              X                  Y                   Z               Mass
    ------------   -----------------  -----------------  -----------------  -----------------
         N           -1.604220082393    -0.767567533852    -0.009326042005    14.003074004430
         N           -1.254326082393     1.432711466148    -0.009324042005    14.003074004430
         N            0.981779917607    -1.444756533852    -0.009322042005    14.003074004430
         C           -0.667111082393     0.229495466148    -0.009318042005    12.000000000000
         C            0.753702917607    -0.108150533852    -0.009323042005    12.000000000000
         C            1.705142717607     0.850206566148     0.125188357995    12.000000000000
         C           -2.849720082393    -0.196293533852    -0.009334042005    12.000000000000
         C           -2.598468082393     1.167507466148    -0.009331042005    12.000000000000
         C            3.095384917607     0.364950466148    -0.009329042005    12.000000000000
         C            1.522820917607     2.336064466148    -0.009322042005    12.000000000000
         C           -4.114774082393    -0.984200533852    -0.009322042005    12.000000000000
         C            3.344007917607    -1.006662533852    -0.009328042005    12.000000000000
         C            2.252632917607    -1.872229533852    -0.009326042005    12.000000000000
         H           -1.349022082393    -1.750485533852    -0.009319042005     1.007825032230
         H           -3.329232082393     1.967278466148    -0.009339042005     1.007825032230
         H            3.924954917607     1.070078466148    -0.009330042005     1.007825032230
         H            0.935496917607     2.632271466148    -0.881283042005     1.007825032230
         H            0.935501917607     2.632270466148     0.862642957995     1.007825032230
         H            2.471820917607     2.880643466148    -0.009323042005     1.007825032230
         H           -4.195539082393    -1.623330533852    -0.894999042005     1.007825032230
         H           -4.195506082393    -1.623346533852     0.876345957995     1.007825032230
         H           -4.967668082393    -0.301418533852    -0.009300042005     1.007825032230
         H            4.358748917607    -1.395000533852    -0.009333042005     1.007825032230
         H            2.391138917607    -2.952265533852    -0.009324042005     1.007825032230

  Basis Set: AUG-CC-PVTZ
    Blend: AUG-CC-PVTZ
  Basis Set: (AUG-CC-PVTZ AUX)
    Blend: AUG-CC-PVTZ-JKFIT
	 Reference Energy          =    -548.6127191936603822 [Eh]
	 Singles Energy            =      -0.0000000000000000 [Eh]
	 Same-Spin Energy          =      -0.6116049777211895 [Eh]
	 Opposite-Spin Energy      =      -1.8794493264880956 [Eh]
	 Correlation Energy        =      -2.4910543042092850 [Eh]
	 Total Energy              =    -551.1037734978696108 [Eh]

	 ================> DF-SCS-MP2 Energies <==================
	-----------------------------------------------------------
	 SCS Same-Spin Scale       =       0.3333333333333333 [-]
	 SCS Opposite-Spin Scale   =       1.2000000000000000 [-]
	 SCS Same-Spin Energy      =      -0.2038683259070632 [Eh]
	 SCS Opposite-Spin Energy  =      -2.2553391917857146 [Eh]
	 SCS Correlation Energy    =      -2.4592075176927777 [Eh]
	 SCS Total Energy          =    -551.0719267113531714 [Eh]
	-----------------------------------------------------------

  Dipole Moment: [D]
     X:     0.3515      Y:    -1.8049      Z:    -0.0157     Total:     1.8389

*** Psi4 exiting successfully. Buy a developer a beer!
