                               Psi4 1.4a3.dev225

  ==> Input File <==

--------------------------------------------------------------------------
#psi4
#
memory 32 gb

molecule  {
0 1
  N       -1.5932770    -0.7762670    -0.0000010
  N       -1.2433830     1.4240120     0.0000010
  N        0.9927230    -1.4534560     0.0000030
  C       -0.6561680     0.2207960     0.0000070
  C        0.7646460    -0.1168500     0.0000020
  C        1.7974510     0.8476430     0.0000020
  C       -2.8387770    -0.2049930    -0.0000090
  C       -2.5875250     1.1588080    -0.0000060
  C        3.1063280     0.3562510    -0.0000040
  C        1.5337640     2.3273650     0.0000030
  C       -4.1038310    -0.9929000     0.0000030
  C        3.3549510    -1.0153620    -0.0000030
  C        2.0740126    -1.8171661    -0.0000004
  H       -1.3380790    -1.7591850     0.0000060
  H       -3.3182890     1.9585790    -0.0000140
  H        3.9358980     1.0613790    -0.0000050
  H        0.9464400     2.6235720    -0.8719580
  H        0.9464450     2.6235710     0.8719680
  H        2.4827640     2.8719440     0.0000020
  H       -4.1845960    -1.6320300    -0.8856740
  H       -4.1845630    -1.6320460     0.8856710
  H       -4.9567250    -0.3101180     0.0000250
  H        4.3696920    -1.4037000    -0.0000080
  H        2.4020820    -2.9609650     0.0000010
units angstrom
no_reorient  #important for SAPT in psi4, default
symmetry c1  #important for SAPT in psi4, default
}

set PROPERTIES_ORIGIN ["COM"]
properties('MP2/aug-cc-pvtz', properties = ['dipole'])
--------------------------------------------------------------------------

    Molecular point group: c1
  Charge       = 0
  Multiplicity = 1
  Basis Set: AUG-CC-PVTZ
    Blend: AUG-CC-PVTZ
  Basis Set: (AUG-CC-PVTZ AUX)
    Blend: AUG-CC-PVTZ-JKFIT

    Orbital Energies [Eh]
    ---------------------

    Doubly Occupied:

       1A    -15.608235     2A    -15.559038     3A    -15.541803
       4A    -11.293601     5A    -11.286504     6A    -11.278044
       7A    -11.264371     8A    -11.254683     9A    -11.253447
      10A    -11.251008    11A    -11.237514    12A    -11.234833
      13A    -11.216080    14A     -1.343283    15A     -1.321307
      16A     -1.160242    17A     -1.114154    18A     -1.067636
      19A     -1.021464    20A     -0.968052    21A     -0.923005
      22A     -0.862120    23A     -0.832401    24A     -0.806744
      25A     -0.778046    26A     -0.730306    27A     -0.682171
      28A     -0.663602    29A     -0.628322    30A     -0.621252
      31A     -0.591385    32A     -0.590262    33A     -0.581735
      34A     -0.562425    35A     -0.557996    36A     -0.552567
      37A     -0.548352    38A     -0.547566    39A     -0.545412
      40A     -0.511673    41A     -0.428593    42A     -0.400606
      43A     -0.399601    44A     -0.394218    45A     -0.359940
      46A     -0.271257

  @DF-RHF Final Energy:  -548.57005306431802

   => Energetics <=

    Nuclear Repulsion Energy =            745.0365751853361189
    One-Electron Energy =               -2221.9195441891592964
    Two-Electron Energy =                 928.3129159395052739
    Total Energy =                       -548.5700530643180173
  Basis Set: (AUG-CC-PVTZ AUX)
    Blend: AUG-CC-PVTZ-RI
    Molecular point group: c1

    Geometry (in Angstrom), charge = 0, multiplicity = 1:

       Center              X                  Y                   Z               Mass
    ------------   -----------------  -----------------  -----------------  -----------------
         N           -1.596719136846    -0.772413336209    -0.000000949847    14.003074004430
         N           -1.246825136846     1.427865663791     0.000001050153    14.003074004430
         N            0.989280863154    -1.449602336209     0.000003050153    14.003074004430
         C           -0.659610136846     0.224649663791     0.000007050153    12.000000000000
         C            0.761203863154    -0.112996336209     0.000002050153    12.000000000000
         C            1.794008863154     0.851496663791     0.000002050153    12.000000000000
         C           -2.842219136846    -0.201139336209    -0.000008949847    12.000000000000
         C           -2.590967136846     1.162661663791    -0.000005949847    12.000000000000
         C            3.102885863154     0.360104663791    -0.000003949847    12.000000000000
         C            1.530321863154     2.331218663791     0.000003050153    12.000000000000
         C           -4.107273136846    -0.989046336209     0.000003050153    12.000000000000
         C            3.351508863154    -1.011508336209    -0.000002949847    12.000000000000
         C            2.070570463154    -1.813312436209    -0.000000349847    12.000000000000
         H           -1.341521136846    -1.755331336209     0.000006050153     1.007825032230
         H           -3.321731136846     1.962432663791    -0.000013949847     1.007825032230
         H            3.932455863154     1.065232663791    -0.000004949847     1.007825032230
         H            0.942997863154     2.627425663791    -0.871957949847     1.007825032230
         H            0.943002863154     2.627424663791     0.871968050153     1.007825032230
         H            2.479321863154     2.875797663791     0.000002050153     1.007825032230
         H           -4.188038136846    -1.628176336209    -0.885673949847     1.007825032230
         H           -4.188005136846    -1.628192336209     0.885671050153     1.007825032230
         H           -4.960167136846    -0.306264336209     0.000025050153     1.007825032230
         H            4.366249863154    -1.399846336209    -0.000007949847     1.007825032230
         H            2.398639863154    -2.957111336209     0.000001050153     1.007825032230

  Basis Set: AUG-CC-PVTZ
    Blend: AUG-CC-PVTZ
  Basis Set: (AUG-CC-PVTZ AUX)
    Blend: AUG-CC-PVTZ-JKFIT
	 Reference Energy          =    -548.5700530643180173 [Eh]
	 Singles Energy            =      -0.0000000000000000 [Eh]
	 Same-Spin Energy          =      -0.6093720280170614 [Eh]
	 Opposite-Spin Energy      =      -1.8763264274028746 [Eh]
	 Correlation Energy        =      -2.4856984554199357 [Eh]
	 Total Energy              =    -551.0557515197378962 [Eh]

	 ================> DF-SCS-MP2 Energies <==================
	-----------------------------------------------------------
	 SCS Same-Spin Scale       =       0.3333333333333333 [-]
	 SCS Opposite-Spin Scale   =       1.2000000000000000 [-]
	 SCS Same-Spin Energy      =      -0.2031240093390204 [Eh]
	 SCS Opposite-Spin Energy  =      -2.2515917128834495 [Eh]
	 SCS Correlation Energy    =      -2.4547157222224700 [Eh]
	 SCS Total Energy          =    -551.0247687865404487 [Eh]
	-----------------------------------------------------------

  Dipole Moment: [D]
     X:    -0.1500      Y:    -1.7181      Z:     0.0000     Total:     1.7247

*** Psi4 exiting successfully. Buy a developer a beer!
