                               Psi4 1.4a3.dev225

  ==> Input File <==

--------------------------------------------------------------------------
#psi4
#
memory 32 gb

molecule  {
0 1
  N       -1.5932770    -0.7762670    -0.0000010
  N       -1.2433830     1.4240120     0.0000010
  N        0.9927230    -1.4534560     0.0000030
  C       -0.6561680     0.2207960     0.0000070
  C        0.7646460    -0.1168500     0.0000020
  C        1.7974510     0.8476430     0.0000020
  C       -2.8387770    -0.2049930    -0.0000090
  C       -2.5679033     1.1626794    -0.0000059
  C        3.1063280     0.3562510    -0.0000040
  C        1.5337640     2.3273650     0.0000030
  C       -4.1038310    -0.9929000     0.0000030
  C        3.3549510    -1.0153620    -0.0000030
  C        2.2635760    -1.8809290    -0.0000010
  H       -1.3380790    -1.7591850     0.0000060
  H       -3.3182890     1.9585790    -0.0000140
  H        3.9358980     1.0613790    -0.0000050
  H        0.9464400     2.6235720    -0.8719580
  H        0.9464450     2.6235710     0.8719680
  H        2.4827640     2.8719440     0.0000020
  H       -4.1845960    -1.6320300    -0.8856740
  H       -4.1845630    -1.6320460     0.8856710
  H       -4.9567250    -0.3101180     0.0000250
  H        4.3696920    -1.4037000    -0.0000080
  H        2.4020820    -2.9609650     0.0000010
units angstrom
no_reorient  #important for SAPT in psi4, default
symmetry c1  #important for SAPT in psi4, default
}

set PROPERTIES_ORIGIN ["COM"]
properties('MP2/aug-cc-pvtz', properties = ['dipole'])
--------------------------------------------------------------------------

    Molecular point group: c1
  Charge       = 0
  Multiplicity = 1
  Basis Set: AUG-CC-PVTZ
    Blend: AUG-CC-PVTZ
  Basis Set: (AUG-CC-PVTZ AUX)
    Blend: AUG-CC-PVTZ-JKFIT

    Orbital Energies [Eh]
    ---------------------

    Doubly Occupied:

       1A    -15.608870     2A    -15.572086     3A    -15.543806
       4A    -11.292768     5A    -11.289179     6A    -11.276873
       7A    -11.265319     8A    -11.256043     9A    -11.252208
      10A    -11.242740    11A    -11.238219    12A    -11.235466
      13A    -11.215480    14A     -1.337475    15A     -1.257895
      16A     -1.165342    17A     -1.098350    18A     -1.072668
      19A     -1.028394    20A     -0.956944    21A     -0.928985
      22A     -0.864503    23A     -0.835362    24A     -0.807085
      25A     -0.777840    26A     -0.727489    27A     -0.676290
      28A     -0.660760    29A     -0.628844    30A     -0.618657
      31A     -0.592896    32A     -0.579709    33A     -0.575380
      34A     -0.563538    35A     -0.563125    36A     -0.553051
      37A     -0.548643    38A     -0.544900    39A     -0.522820
      40A     -0.507020    41A     -0.433361    42A     -0.424602
      43A     -0.397328    44A     -0.386585    45A     -0.354892
      46A     -0.276803

  @DF-RHF Final Energy:  -548.62616698691079

   => Energetics <=

    Nuclear Repulsion Energy =            741.6889616111743635
    One-Electron Energy =               -2215.5170701258998633
    Two-Electron Energy =                 925.2019415278147108
    Total Energy =                       -548.6261669869107891
  Basis Set: (AUG-CC-PVTZ AUX)
    Blend: AUG-CC-PVTZ-RI
    Molecular point group: c1

    Geometry (in Angstrom), charge = 0, multiplicity = 1:

       Center              X                  Y                   Z               Mass
    ------------   -----------------  -----------------  -----------------  -----------------
         N           -1.611221097548    -0.768261299666    -0.000000915184    14.003074004430
         N           -1.261327097548     1.432017700334     0.000001084816    14.003074004430
         N            0.974778902452    -1.445450299666     0.000003084816    14.003074004430
         C           -0.674112097548     0.228801700334     0.000007084816    12.000000000000
         C            0.746701902452    -0.108844299666     0.000002084816    12.000000000000
         C            1.779506902452     0.855648700334     0.000002084816    12.000000000000
         C           -2.856721097548    -0.196987299666    -0.000008915184    12.000000000000
         C           -2.585847397548     1.170685100334    -0.000005815184    12.000000000000
         C            3.088383902452     0.364256700334    -0.000003915184    12.000000000000
         C            1.515819902452     2.335370700334     0.000003084816    12.000000000000
         C           -4.121775097548    -0.984894299666     0.000003084816    12.000000000000
         C            3.337006902452    -1.007356299666    -0.000002915184    12.000000000000
         C            2.245631902452    -1.872923299666    -0.000000915184    12.000000000000
         H           -1.356023097548    -1.751179299666     0.000006084816     1.007825032230
         H           -3.336233097548     1.966584700334    -0.000013915184     1.007825032230
         H            3.917953902452     1.069384700334    -0.000004915184     1.007825032230
         H            0.928495902452     2.631577700334    -0.871957915184     1.007825032230
         H            0.928500902452     2.631576700334     0.871968084816     1.007825032230
         H            2.464819902452     2.879949700334     0.000002084816     1.007825032230
         H           -4.202540097548    -1.624024299666    -0.885673915184     1.007825032230
         H           -4.202507097548    -1.624040299666     0.885671084816     1.007825032230
         H           -4.974669097548    -0.302112299666     0.000025084816     1.007825032230
         H            4.351747902452    -1.395694299666    -0.000007915184     1.007825032230
         H            2.384137902452    -2.952959299666     0.000001084816     1.007825032230

  Basis Set: AUG-CC-PVTZ
    Blend: AUG-CC-PVTZ
  Basis Set: (AUG-CC-PVTZ AUX)
    Blend: AUG-CC-PVTZ-JKFIT
	 Reference Energy          =    -548.6261669869107891 [Eh]
	 Singles Energy            =      -0.0000000000000000 [Eh]
	 Same-Spin Energy          =      -0.6119467079576203 [Eh]
	 Opposite-Spin Energy      =      -1.8786752736190953 [Eh]
	 Correlation Energy        =      -2.4906219815767154 [Eh]
	 Total Energy              =    -551.1167889684875263 [Eh]

	 ================> DF-SCS-MP2 Energies <==================
	-----------------------------------------------------------
	 SCS Same-Spin Scale       =       0.3333333333333333 [-]
	 SCS Opposite-Spin Scale   =       1.2000000000000000 [-]
	 SCS Same-Spin Energy      =      -0.2039822359858734 [Eh]
	 SCS Opposite-Spin Energy  =      -2.2544103283429142 [Eh]
	 SCS Correlation Energy    =      -2.4583925643287876 [Eh]
	 SCS Total Energy          =    -551.0845595512395221 [Eh]
	-----------------------------------------------------------

  Dipole Moment: [D]
     X:     0.1197      Y:    -1.7490      Z:     0.0000     Total:     1.7531

*** Psi4 exiting successfully. Buy a developer a beer!
