                               Psi4 1.4a3.dev225

  ==> Input File <==

--------------------------------------------------------------------------
#psi4
#
memory 32 gb

molecule  {
0 1
  N       -1.5932770    -0.7762670    -0.0000010
  N       -1.2433830     1.4240120     0.0000010
  N        0.9927230    -1.4534560     0.0000030
  C       -0.6561680     0.2207960     0.0000070
  C        0.7646460    -0.1168500     0.0000020
  C        1.7974510     0.8476430     0.0000020
  C       -2.8387770    -0.2049930    -0.0000090
  C       -2.5875250     1.1588080    -0.0000060
  C        3.1063280     0.3562510    -0.0000040
  C        1.5337640     2.3273650     0.0000030
  C       -4.1038310    -0.9929000     0.0000030
  C        3.3549510    -1.0153620    -0.0000030
  C        2.2635760    -1.8809290    -0.0000010
  H       -1.3380790    -1.7591850     0.0000060
  H       -3.3182890     1.9585790    -0.0000140
  H        3.9358980     1.0613790    -0.0000050
  H        0.9464400     2.6235720    -0.8719580
  H        0.9464450     2.6235710     0.8719680
  H        2.4827640     2.8719440     0.0000020
  H       -4.1684495    -1.6408844    -0.8805505
  H       -4.1845630    -1.6320460     0.8856710
  H       -4.9567250    -0.3101180     0.0000250
  H        4.3696920    -1.4037000    -0.0000080
  H        2.4020820    -2.9609650     0.0000010
units angstrom
no_reorient  #important for SAPT in psi4, default
symmetry c1  #important for SAPT in psi4, default
}

set PROPERTIES_ORIGIN ["COM"]
properties('MP2/aug-cc-pvtz', properties = ['dipole'])
--------------------------------------------------------------------------

    Molecular point group: c1
  Charge       = 0
  Multiplicity = 1
  Basis Set: AUG-CC-PVTZ
    Blend: AUG-CC-PVTZ
  Basis Set: (AUG-CC-PVTZ AUX)
    Blend: AUG-CC-PVTZ-JKFIT

    Orbital Energies [Eh]
    ---------------------

    Doubly Occupied:

       1A    -15.607532     2A    -15.572622     3A    -15.544039
       4A    -11.293322     5A    -11.289359     6A    -11.277114
       7A    -11.265264     8A    -11.256294     9A    -11.252652
      10A    -11.243264    11A    -11.237797    12A    -11.234585
      13A    -11.215483    14A     -1.335128    15A     -1.258077
      16A     -1.160536    17A     -1.098555    18A     -1.073006
      19A     -1.029154    20A     -0.956897    21A     -0.929353
      22A     -0.865066    23A     -0.835865    24A     -0.804746
      25A     -0.778761    26A     -0.727085    27A     -0.676297
      28A     -0.660770    29A     -0.629082    30A     -0.617797
      31A     -0.594374    32A     -0.579506    33A     -0.575082
      34A     -0.564904    35A     -0.561334    36A     -0.552182
      37A     -0.548528    38A     -0.545496    39A     -0.522755
      40A     -0.507600    41A     -0.433350    42A     -0.424214
      43A     -0.394406    44A     -0.386471    45A     -0.355073
      46A     -0.279114

  @DF-RHF Final Energy:  -548.62694477530772

   => Energetics <=

    Nuclear Repulsion Energy =            741.4130411145687276
    One-Electron Energy =               -2214.9801895525633881
    Two-Electron Energy =                 924.9402036626868266
    Total Energy =                       -548.6269447753077202
  Basis Set: (AUG-CC-PVTZ AUX)
    Blend: AUG-CC-PVTZ-RI
    Molecular point group: c1

    Geometry (in Angstrom), charge = 0, multiplicity = 1:

       Center              X                  Y                   Z               Mass
    ------------   -----------------  -----------------  -----------------  -----------------
         N           -1.609954815006    -0.767941357491    -0.000030739169    14.003074004430
         N           -1.260060815006     1.432337642509    -0.000028739169    14.003074004430
         N            0.976045184994    -1.445130357491    -0.000026739169    14.003074004430
         C           -0.672845815006     0.229121642509    -0.000022739169    12.000000000000
         C            0.747968184994    -0.108524357491    -0.000027739169    12.000000000000
         C            1.780773184994     0.855968642509    -0.000027739169    12.000000000000
         C           -2.855454815006    -0.196667357491    -0.000038739169    12.000000000000
         C           -2.604202815006     1.167133642509    -0.000035739169    12.000000000000
         C            3.089650184994     0.364576642509    -0.000033739169    12.000000000000
         C            1.517086184994     2.335690642509    -0.000026739169    12.000000000000
         C           -4.120508815006    -0.984574357491    -0.000026739169    12.000000000000
         C            3.338273184994    -1.007036357491    -0.000032739169    12.000000000000
         C            2.246898184994    -1.872603357491    -0.000030739169    12.000000000000
         H           -1.354756815006    -1.750859357491    -0.000023739169     1.007825032230
         H           -3.334966815006     1.966904642509    -0.000043739169     1.007825032230
         H            3.919220184994     1.069704642509    -0.000034739169     1.007825032230
         H            0.929762184994     2.631897642509    -0.871987739169     1.007825032230
         H            0.929767184994     2.631896642509     0.871938260831     1.007825032230
         H            2.466086184994     2.880269642509    -0.000027739169     1.007825032230
         H           -4.185127315006    -1.632558757491    -0.880580239169     1.007825032230
         H           -4.201240815006    -1.623720357491     0.885641260831     1.007825032230
         H           -4.973402815006    -0.301792357491    -0.000004739169     1.007825032230
         H            4.353014184994    -1.395374357491    -0.000037739169     1.007825032230
         H            2.385404184994    -2.952639357491    -0.000028739169     1.007825032230

  Basis Set: AUG-CC-PVTZ
    Blend: AUG-CC-PVTZ
  Basis Set: (AUG-CC-PVTZ AUX)
    Blend: AUG-CC-PVTZ-JKFIT
	 Reference Energy          =    -548.6269447753077202 [Eh]
	 Singles Energy            =      -0.0000000000000000 [Eh]
	 Same-Spin Energy          =      -0.6116171905169865 [Eh]
	 Opposite-Spin Energy      =      -1.8785893872948236 [Eh]
	 Correlation Energy        =      -2.4902065778118101 [Eh]
	 Total Energy              =    -551.1171513531195387 [Eh]

	 ================> DF-SCS-MP2 Energies <==================
	-----------------------------------------------------------
	 SCS Same-Spin Scale       =       0.3333333333333333 [-]
	 SCS Opposite-Spin Scale   =       1.2000000000000000 [-]
	 SCS Same-Spin Energy      =      -0.2038723968389955 [Eh]
	 SCS Opposite-Spin Energy  =      -2.2543072647537881 [Eh]
	 SCS Correlation Energy    =      -2.4581796615927836 [Eh]
	 SCS Total Energy          =    -551.0851244369005144 [Eh]
	-----------------------------------------------------------

  Dipole Moment: [D]
     X:     0.1569      Y:    -1.7580      Z:     0.0036     Total:     1.7649

*** Psi4 exiting successfully. Buy a developer a beer!
