                               Psi4 1.4a3.dev225

  ==> Input File <==

--------------------------------------------------------------------------
#psi4
#
memory 32 gb

molecule  {
0 1
  N       -1.5932770    -0.7762670    -0.0000010
  N       -1.2433830     1.4240120     0.0000010
  N        0.9927230    -1.4534560     0.0000030
  C       -0.6561680     0.2207960     0.0000070
  C        0.7646460    -0.1168500     0.0000020
  C        1.7974510     0.8476430     0.0000020
  C       -2.8387770    -0.2049930    -0.0000090
  C       -2.5875250     1.1588080    -0.0000060
  C        3.1063280     0.3562510    -0.0000040
  C        1.5337640     2.3273650     0.0000030
  C       -4.1038310    -0.9929000     0.0000030
  C        3.3549510    -1.0153620    -0.0000030
  C        2.2244010    -1.9119986    -0.0000009
  H       -1.3380790    -1.7591850     0.0000060
  H       -3.3182890     1.9585790    -0.0000140
  H        3.9358980     1.0613790    -0.0000050
  H        0.9464400     2.6235720    -0.8719580
  H        0.9464450     2.6235710     0.8719680
  H        2.4827640     2.8719440     0.0000020
  H       -4.1845960    -1.6320300    -0.8856740
  H       -4.1845630    -1.6320460     0.8856710
  H       -4.9567250    -0.3101180     0.0000250
  H        4.3696920    -1.4037000    -0.0000080
  H        2.4020820    -2.9609650     0.0000010
units angstrom
no_reorient  #important for SAPT in psi4, default
symmetry c1  #important for SAPT in psi4, default
}

set PROPERTIES_ORIGIN ["COM"]
properties('MP2/aug-cc-pvtz', properties = ['dipole'])
--------------------------------------------------------------------------

    Molecular point group: c1
  Charge       = 0
  Multiplicity = 1
  Basis Set: AUG-CC-PVTZ
    Blend: AUG-CC-PVTZ
  Basis Set: (AUG-CC-PVTZ AUX)
    Blend: AUG-CC-PVTZ-JKFIT

    Orbital Energies [Eh]
    ---------------------

    Doubly Occupied:

       1A    -15.606806     2A    -15.571695     3A    -15.542842
       4A    -11.292954     5A    -11.288006     6A    -11.279880
       7A    -11.264342     8A    -11.255595     9A    -11.253121
      10A    -11.248211    11A    -11.237183    12A    -11.234067
      13A    -11.215483    14A     -1.334533    15A     -1.262648
      16A     -1.159751    17A     -1.099927    18A     -1.069829
      19A     -1.026054    20A     -0.958657    21A     -0.928006
      22A     -0.861996    23A     -0.836963    24A     -0.804041
      25A     -0.780617    26A     -0.727330    27A     -0.680053
      28A     -0.657304    29A     -0.629622    30A     -0.617426
      31A     -0.598942    32A     -0.579604    33A     -0.575833
      34A     -0.564296    35A     -0.560874    36A     -0.551989
      37A     -0.548119    38A     -0.544546    39A     -0.523465
      40A     -0.510864    41A     -0.431100    42A     -0.420059
      43A     -0.393610    44A     -0.386199    45A     -0.355613
      46A     -0.276299

  @DF-RHF Final Energy:  -548.62465750962042

   => Energetics <=

    Nuclear Repulsion Energy =            741.1733347620984205
    One-Electron Energy =               -2214.5032740271785769
    Two-Electron Energy =                 924.7052817554597368
    Total Energy =                       -548.6246575096204197
  Basis Set: (AUG-CC-PVTZ AUX)
    Blend: AUG-CC-PVTZ-RI
    Molecular point group: c1

    Geometry (in Angstrom), charge = 0, multiplicity = 1:

       Center              X                  Y                   Z               Mass
    ------------   -----------------  -----------------  -----------------  -----------------
         N           -1.607144959081    -0.765838980826    -0.000000915184    14.003074004430
         N           -1.257250959081     1.434440019174     0.000001084816    14.003074004430
         N            0.978855040919    -1.443027980826     0.000003084816    14.003074004430
         C           -0.670035959081     0.231224019174     0.000007084816    12.000000000000
         C            0.750778040919    -0.106421980826     0.000002084816    12.000000000000
         C            1.783583040919     0.858071019174     0.000002084816    12.000000000000
         C           -2.852644959081    -0.194564980826    -0.000008915184    12.000000000000
         C           -2.601392959081     1.169236019174    -0.000005915184    12.000000000000
         C            3.092460040919     0.366679019174    -0.000003915184    12.000000000000
         C            1.519896040919     2.337793019174     0.000003084816    12.000000000000
         C           -4.117698959081    -0.982471980826     0.000003084816    12.000000000000
         C            3.341083040919    -1.004933980826    -0.000002915184    12.000000000000
         C            2.210533040919    -1.901570580826    -0.000000815184    12.000000000000
         H           -1.351946959081    -1.748756980826     0.000006084816     1.007825032230
         H           -3.332156959081     1.969007019174    -0.000013915184     1.007825032230
         H            3.922030040919     1.071807019174    -0.000004915184     1.007825032230
         H            0.932572040919     2.634000019174    -0.871957915184     1.007825032230
         H            0.932577040919     2.633999019174     0.871968084816     1.007825032230
         H            2.468896040919     2.882372019174     0.000002084816     1.007825032230
         H           -4.198463959081    -1.621601980826    -0.885673915184     1.007825032230
         H           -4.198430959081    -1.621617980826     0.885671084816     1.007825032230
         H           -4.970592959081    -0.299689980826     0.000025084816     1.007825032230
         H            4.355824040919    -1.393271980826    -0.000007915184     1.007825032230
         H            2.388214040919    -2.950536980826     0.000001084816     1.007825032230

  Basis Set: AUG-CC-PVTZ
    Blend: AUG-CC-PVTZ
  Basis Set: (AUG-CC-PVTZ AUX)
    Blend: AUG-CC-PVTZ-JKFIT
	 Reference Energy          =    -548.6246575096204197 [Eh]
	 Singles Energy            =      -0.0000000000000000 [Eh]
	 Same-Spin Energy          =      -0.6114032257565938 [Eh]
	 Opposite-Spin Energy      =      -1.8782842115038161 [Eh]
	 Correlation Energy        =      -2.4896874372604101 [Eh]
	 Total Energy              =    -551.1143449468808058 [Eh]

	 ================> DF-SCS-MP2 Energies <==================
	-----------------------------------------------------------
	 SCS Same-Spin Scale       =       0.3333333333333333 [-]
	 SCS Opposite-Spin Scale   =       1.2000000000000000 [-]
	 SCS Same-Spin Energy      =      -0.2038010752521979 [Eh]
	 SCS Opposite-Spin Energy  =      -2.2539410538045792 [Eh]
	 SCS Correlation Energy    =      -2.4577421290567769 [Eh]
	 SCS Total Energy          =    -551.0823996386772023 [Eh]
	-----------------------------------------------------------

  Dipole Moment: [D]
     X:     0.1520      Y:    -1.8368      Z:     0.0000     Total:     1.8431

*** Psi4 exiting successfully. Buy a developer a beer!
