                               Psi4 1.4a3.dev225

  ==> Input File <==

--------------------------------------------------------------------------
#psi4
#
memory 32 gb

molecule  {
0 1
  N       -1.5932770    -0.7762670    -0.0000010
  N       -1.2433830     1.4240120     0.0000010
  N        0.9927230    -1.4534560     0.0000030
  C       -0.6561680     0.2207960     0.0000070
  C        0.7646460    -0.1168500     0.0000020
  C        1.7974510     0.8476430     0.0000020
  C       -2.8387770    -0.2049930    -0.0000090
  C       -2.5875250     1.1588080    -0.0000060
  C        3.1063280     0.3562510    -0.0000040
  C        1.5337640     2.3273650     0.0000030
  C       -4.1038310    -0.9929000     0.0000030
  C        3.3549510    -1.0153620    -0.0000030
  C        2.3109669    -1.8968697    -0.0000011
  H       -1.3380790    -1.7591850     0.0000060
  H       -3.3182890     1.9585790    -0.0000140
  H        3.9358980     1.0613790    -0.0000050
  H        0.9464400     2.6235720    -0.8719580
  H        0.9464450     2.6235710     0.8719680
  H        2.4827640     2.8719440     0.0000020
  H       -4.1845960    -1.6320300    -0.8856740
  H       -4.1845630    -1.6320460     0.8856710
  H       -4.9567250    -0.3101180     0.0000250
  H        4.3696920    -1.4037000    -0.0000080
  H        2.4020820    -2.9609650     0.0000010
units angstrom
no_reorient  #important for SAPT in psi4, default
symmetry c1  #important for SAPT in psi4, default
}

set PROPERTIES_ORIGIN ["COM"]
properties('MP2/aug-cc-pvtz', properties = ['dipole'])
--------------------------------------------------------------------------

    Molecular point group: c1
  Charge       = 0
  Multiplicity = 1
  Basis Set: AUG-CC-PVTZ
    Blend: AUG-CC-PVTZ
  Basis Set: (AUG-CC-PVTZ AUX)
    Blend: AUG-CC-PVTZ-JKFIT

    Orbital Energies [Eh]
    ---------------------

    Doubly Occupied:

       1A    -15.607526     2A    -15.574694     3A    -15.544660
       4A    -11.293496     5A    -11.290281     6A    -11.275772
       7A    -11.265633     8A    -11.256470     9A    -11.253209
      10A    -11.241224    11A    -11.237814    12A    -11.234750
      13A    -11.215712    14A     -1.335038    15A     -1.246816
      16A     -1.160744    17A     -1.095754    18A     -1.074273
      19A     -1.030743    20A     -0.954595    21A     -0.931607
      22A     -0.865665    23A     -0.835806    24A     -0.804320
      25A     -0.779284    26A     -0.727812    27A     -0.674719
      28A     -0.660147    29A     -0.628900    30A     -0.617745
      31A     -0.595674    32A     -0.578901    33A     -0.576363
      34A     -0.565451    35A     -0.561547    36A     -0.552650
      37A     -0.547363    38A     -0.544648    39A     -0.518704
      40A     -0.506252    41A     -0.434452    42A     -0.424578
      43A     -0.394857    44A     -0.386947    45A     -0.351826
      46A     -0.281372

  @DF-RHF Final Energy:  -548.62243598559530

   => Energetics <=

    Nuclear Repulsion Energy =            740.6210691856571202
    One-Electron Energy =               -2213.4134218061208230
    Two-Electron Energy =                 924.1699166348682866
    Total Energy =                       -548.6224359855953026
  Basis Set: (AUG-CC-PVTZ AUX)
    Blend: AUG-CC-PVTZ-RI
    Molecular point group: c1

    Geometry (in Angstrom), charge = 0, multiplicity = 1:

       Center              X                  Y                   Z               Mass
    ------------   -----------------  -----------------  -----------------  -----------------
         N           -1.613146224371    -0.766887806546    -0.000000901319    14.003074004430
         N           -1.263252224371     1.433391193454     0.000001098681    14.003074004430
         N            0.972853775629    -1.444076806546     0.000003098681    14.003074004430
         C           -0.676037224371     0.230175193454     0.000007098681    12.000000000000
         C            0.744776775629    -0.107470806546     0.000002098681    12.000000000000
         C            1.777581775629     0.857022193454     0.000002098681    12.000000000000
         C           -2.858646224371    -0.195613806546    -0.000008901319    12.000000000000
         C           -2.607394224371     1.168187193454    -0.000005901319    12.000000000000
         C            3.086458775629     0.365630193454    -0.000003901319    12.000000000000
         C            1.513894775629     2.336744193454     0.000003098681    12.000000000000
         C           -4.123700224371    -0.983520806546     0.000003098681    12.000000000000
         C            3.335081775629    -1.005982806546    -0.000002901319    12.000000000000
         C            2.291097675629    -1.887490506546    -0.000001001319    12.000000000000
         H           -1.357948224371    -1.749805806546     0.000006098681     1.007825032230
         H           -3.338158224371     1.967958193454    -0.000013901319     1.007825032230
         H            3.916028775629     1.070758193454    -0.000004901319     1.007825032230
         H            0.926570775629     2.632951193454    -0.871957901319     1.007825032230
         H            0.926575775629     2.632950193454     0.871968098681     1.007825032230
         H            2.462894775629     2.881323193454     0.000002098681     1.007825032230
         H           -4.204465224371    -1.622650806546    -0.885673901319     1.007825032230
         H           -4.204432224371    -1.622666806546     0.885671098681     1.007825032230
         H           -4.976594224371    -0.300738806546     0.000025098681     1.007825032230
         H            4.349822775629    -1.394320806546    -0.000007901319     1.007825032230
         H            2.382212775629    -2.951585806546     0.000001098681     1.007825032230

  Basis Set: AUG-CC-PVTZ
    Blend: AUG-CC-PVTZ
  Basis Set: (AUG-CC-PVTZ AUX)
    Blend: AUG-CC-PVTZ-JKFIT
	 Reference Energy          =    -548.6224359855953026 [Eh]
	 Singles Energy            =      -0.0000000000000000 [Eh]
	 Same-Spin Energy          =      -0.6118614680687402 [Eh]
	 Opposite-Spin Energy      =      -1.8796991723634435 [Eh]
	 Correlation Energy        =      -2.4915606404321835 [Eh]
	 Total Energy              =    -551.1139966260275287 [Eh]

	 ================> DF-SCS-MP2 Energies <==================
	-----------------------------------------------------------
	 SCS Same-Spin Scale       =       0.3333333333333333 [-]
	 SCS Opposite-Spin Scale   =       1.2000000000000000 [-]
	 SCS Same-Spin Energy      =      -0.2039538226895801 [Eh]
	 SCS Opposite-Spin Energy  =      -2.2556390068361321 [Eh]
	 SCS Correlation Energy    =      -2.4595928295257119 [Eh]
	 SCS Total Energy          =    -551.0820288151210207 [Eh]
	-----------------------------------------------------------

  Dipole Moment: [D]
     X:     0.1772      Y:    -1.7456      Z:     0.0000     Total:     1.7546

*** Psi4 exiting successfully. Buy a developer a beer!
