                               Psi4 1.4a3.dev225

  ==> Input File <==

--------------------------------------------------------------------------
#psi4
#
memory 32 gb

molecule  {
0 1
  N       -1.5932770    -0.7762670    -0.0000010
  N       -1.2433830     1.4240120     0.0000010
  N        0.9927230    -1.4534560     0.0000030
  C       -0.6762600     0.1208625     0.0000068
  C        0.7646460    -0.1168500     0.0000020
  C        1.7974510     0.8476430     0.0000020
  C       -2.8387770    -0.2049930    -0.0000090
  C       -2.5875250     1.1588080    -0.0000060
  C        3.1063280     0.3562510    -0.0000040
  C        1.5337640     2.3273650     0.0000030
  C       -4.1038310    -0.9929000     0.0000030
  C        3.3549510    -1.0153620    -0.0000030
  C        2.2635760    -1.8809290    -0.0000010
  H       -1.3380790    -1.7591850     0.0000060
  H       -3.3182890     1.9585790    -0.0000140
  H        3.9358980     1.0613790    -0.0000050
  H        0.9464400     2.6235720    -0.8719580
  H        0.9464450     2.6235710     0.8719680
  H        2.4827640     2.8719440     0.0000020
  H       -4.1845960    -1.6320300    -0.8856740
  H       -4.1845630    -1.6320460     0.8856710
  H       -4.9567250    -0.3101180     0.0000250
  H        4.3696920    -1.4037000    -0.0000080
  H        2.4020820    -2.9609650     0.0000010
units angstrom
no_reorient  #important for SAPT in psi4, default
symmetry c1  #important for SAPT in psi4, default
}

set PROPERTIES_ORIGIN ["COM"]
properties('MP2/aug-cc-pvtz', properties = ['dipole'])
--------------------------------------------------------------------------

    Molecular point group: c1
  Charge       = 0
  Multiplicity = 1
  Basis Set: AUG-CC-PVTZ
    Blend: AUG-CC-PVTZ
  Basis Set: (AUG-CC-PVTZ AUX)
    Blend: AUG-CC-PVTZ-JKFIT

    Orbital Energies [Eh]
    ---------------------

    Doubly Occupied:

       1A    -15.618206     2A    -15.572366     3A    -15.540607
       4A    -11.292835     5A    -11.290339     6A    -11.276957
       7A    -11.258596     8A    -11.257397     9A    -11.254775
      10A    -11.243871    11A    -11.237729    12A    -11.236281
      13A    -11.214022    14A     -1.351811    15A     -1.259700
      16A     -1.150405    17A     -1.098961    18A     -1.075163
      19A     -1.032466    20A     -0.956063    21A     -0.925021
      22A     -0.862004    23A     -0.837509    24A     -0.813077
      25A     -0.788627    26A     -0.734944    27A     -0.675533
      28A     -0.661175    29A     -0.625074    30A     -0.622123
      31A     -0.593935    32A     -0.578556    33A     -0.576919
      34A     -0.570609    35A     -0.554848    36A     -0.554050
      37A     -0.548008    38A     -0.541023    39A     -0.523111
      40A     -0.502025    41A     -0.430701    42A     -0.424999
      43A     -0.390581    44A     -0.387483    45A     -0.354840
      46A     -0.275333

  @DF-RHF Final Energy:  -548.61140707265474

   => Energetics <=

    Nuclear Repulsion Energy =            741.6010158468765212
    One-Electron Energy =               -2215.2835312935894763
    Two-Electron Energy =                 925.0711083740580989
    Total Energy =                       -548.6114070726547425
  Basis Set: (AUG-CC-PVTZ AUX)
    Blend: AUG-CC-PVTZ-RI
    Molecular point group: c1

    Geometry (in Angstrom), charge = 0, multiplicity = 1:

       Center              X                  Y                   Z               Mass
    ------------   -----------------  -----------------  -----------------  -----------------
         N           -1.608467906633    -0.761064923919    -0.000000894386    14.003074004430
         N           -1.258573906633     1.439214076081     0.000001105614    14.003074004430
         N            0.977532093367    -1.438253923919     0.000003105614    14.003074004430
         C           -0.691450906633     0.136064576081     0.000006905614    12.000000000000
         C            0.749455093367    -0.101647923919     0.000002105614    12.000000000000
         C            1.782260093367     0.862845076081     0.000002105614    12.000000000000
         C           -2.853967906633    -0.189790923919    -0.000008894386    12.000000000000
         C           -2.602715906633     1.174010076081    -0.000005894386    12.000000000000
         C            3.091137093367     0.371453076081    -0.000003894386    12.000000000000
         C            1.518573093367     2.342567076081     0.000003105614    12.000000000000
         C           -4.119021906633    -0.977697923919     0.000003105614    12.000000000000
         C            3.339760093367    -1.000159923919    -0.000002894386    12.000000000000
         C            2.248385093367    -1.865726923919    -0.000000894386    12.000000000000
         H           -1.353269906633    -1.743982923919     0.000006105614     1.007825032230
         H           -3.333479906633     1.973781076081    -0.000013894386     1.007825032230
         H            3.920707093367     1.076581076081    -0.000004894386     1.007825032230
         H            0.931249093367     2.638774076081    -0.871957894386     1.007825032230
         H            0.931254093367     2.638773076081     0.871968105614     1.007825032230
         H            2.467573093367     2.887146076081     0.000002105614     1.007825032230
         H           -4.199786906633    -1.616827923919    -0.885673894386     1.007825032230
         H           -4.199753906633    -1.616843923919     0.885671105614     1.007825032230
         H           -4.971915906633    -0.294915923919     0.000025105614     1.007825032230
         H            4.354501093367    -1.388497923919    -0.000007894386     1.007825032230
         H            2.386891093367    -2.945762923919     0.000001105614     1.007825032230

  Basis Set: AUG-CC-PVTZ
    Blend: AUG-CC-PVTZ
  Basis Set: (AUG-CC-PVTZ AUX)
    Blend: AUG-CC-PVTZ-JKFIT
	 Reference Energy          =    -548.6114070726547425 [Eh]
	 Singles Energy            =      -0.0000000000000000 [Eh]
	 Same-Spin Energy          =      -0.6129028941279566 [Eh]
	 Opposite-Spin Energy      =      -1.8804520516361529 [Eh]
	 Correlation Energy        =      -2.4933549457641098 [Eh]
	 Total Energy              =    -551.1047620184187963 [Eh]

	 ================> DF-SCS-MP2 Energies <==================
	-----------------------------------------------------------
	 SCS Same-Spin Scale       =       0.3333333333333333 [-]
	 SCS Opposite-Spin Scale   =       1.2000000000000000 [-]
	 SCS Same-Spin Energy      =      -0.2043009647093189 [Eh]
	 SCS Opposite-Spin Energy  =      -2.2565424619633836 [Eh]
	 SCS Correlation Energy    =      -2.4608434266727026 [Eh]
	 SCS Total Energy          =    -551.0722504993274242 [Eh]
	-----------------------------------------------------------

  Dipole Moment: [D]
     X:     0.0376      Y:    -1.9168      Z:     0.0000     Total:     1.9172

*** Psi4 exiting successfully. Buy a developer a beer!
