                               Psi4 1.4a3.dev225

  ==> Input File <==

--------------------------------------------------------------------------
#psi4
#
memory 32 gb

molecule  {
0 1
  N       -1.5932770    -0.7762670    -0.0000010
  N       -1.2433830     1.4240120     0.0000010
  N        0.9927230    -1.4534560     0.0000030
  C       -0.6561680     0.2207960     0.0000070
  C        0.7646460    -0.1168500     0.0000020
  C        1.7974510     0.8476430     0.0000020
  C       -2.8387770    -0.2049930    -0.0000090
  C       -2.7837422     1.1200936    -0.0000070
  C        3.1063280     0.3562510    -0.0000040
  C        1.5337640     2.3273650     0.0000030
  C       -4.1038310    -0.9929000     0.0000030
  C        3.3549510    -1.0153620    -0.0000030
  C        2.2635760    -1.8809290    -0.0000010
  H       -1.3380790    -1.7591850     0.0000060
  H       -3.3182890     1.9585790    -0.0000140
  H        3.9358980     1.0613790    -0.0000050
  H        0.9464400     2.6235720    -0.8719580
  H        0.9464450     2.6235710     0.8719680
  H        2.4827640     2.8719440     0.0000020
  H       -4.1845960    -1.6320300    -0.8856740
  H       -4.1845630    -1.6320460     0.8856710
  H       -4.9567250    -0.3101180     0.0000250
  H        4.3696920    -1.4037000    -0.0000080
  H        2.4020820    -2.9609650     0.0000010
units angstrom
no_reorient  #important for SAPT in psi4, default
symmetry c1  #important for SAPT in psi4, default
}

set PROPERTIES_ORIGIN ["COM"]
properties('MP2/aug-cc-pvtz', properties = ['dipole'])
--------------------------------------------------------------------------

    Molecular point group: c1
  Charge       = 0
  Multiplicity = 1
  Basis Set: AUG-CC-PVTZ
    Blend: AUG-CC-PVTZ
  Basis Set: (AUG-CC-PVTZ AUX)
    Blend: AUG-CC-PVTZ-JKFIT

    Orbital Energies [Eh]
    ---------------------

    Doubly Occupied:

       1A    -15.598448     2A    -15.576401     3A    -15.544166
       4A    -11.297421     5A    -11.290619     6A    -11.278731
       7A    -11.268812     8A    -11.258009     9A    -11.255726
      10A    -11.246930    11A    -11.233412    12A    -11.231924
      13A    -11.215406    14A     -1.320025    15A     -1.259211
      16A     -1.126365    17A     -1.099135    18A     -1.075513
      19A     -1.037129    20A     -0.955988    21A     -0.932140
      22A     -0.870784    23A     -0.839746    24A     -0.794530
      25A     -0.784235    26A     -0.725020    27A     -0.675803
      28A     -0.663309    29A     -0.643797    30A     -0.613536
      31A     -0.605941    32A     -0.579830    33A     -0.576451
      34A     -0.570430    35A     -0.550129    36A     -0.548057
      37A     -0.547175    38A     -0.529261    39A     -0.522378
      40A     -0.509985    41A     -0.432471    42A     -0.405537
      43A     -0.391894    44A     -0.370828    45A     -0.354554
      46A     -0.300792

  @DF-RHF Final Energy:  -548.59325021532152

   => Energetics <=

    Nuclear Repulsion Energy =            738.6743886802986481
    One-Electron Energy =               -2209.5193063769297623
    Two-Electron Energy =                 922.2516674813094824
    Total Energy =                       -548.5932502153215182
  Basis Set: (AUG-CC-PVTZ AUX)
    Blend: AUG-CC-PVTZ-RI
    Molecular point group: c1

    Geometry (in Angstrom), charge = 0, multiplicity = 1:

       Center              X                  Y                   Z               Mass
    ------------   -----------------  -----------------  -----------------  -----------------
         N           -1.596257855684    -0.765308997624    -0.000000838926    14.003074004430
         N           -1.246363855684     1.434970002376     0.000001161074    14.003074004430
         N            0.989742144316    -1.442497997624     0.000003161074    14.003074004430
         C           -0.659148855684     0.231754002376     0.000007161074    12.000000000000
         C            0.761665144316    -0.105891997624     0.000002161074    12.000000000000
         C            1.794470144316     0.858601002376     0.000002161074    12.000000000000
         C           -2.841757855684    -0.194034997624    -0.000008838926    12.000000000000
         C           -2.786723055684     1.131051602376    -0.000006838926    12.000000000000
         C            3.103347144316     0.367209002376    -0.000003838926    12.000000000000
         C            1.530783144316     2.338323002376     0.000003161074    12.000000000000
         C           -4.106811855684    -0.981941997624     0.000003161074    12.000000000000
         C            3.351970144316    -1.004403997624    -0.000002838926    12.000000000000
         C            2.260595144316    -1.869970997624    -0.000000838926    12.000000000000
         H           -1.341059855684    -1.748226997624     0.000006161074     1.007825032230
         H           -3.321269855684     1.969537002376    -0.000013838926     1.007825032230
         H            3.932917144316     1.072337002376    -0.000004838926     1.007825032230
         H            0.943459144316     2.634530002376    -0.871957838926     1.007825032230
         H            0.943464144316     2.634529002376     0.871968161074     1.007825032230
         H            2.479783144316     2.882902002376     0.000002161074     1.007825032230
         H           -4.187576855684    -1.621071997624    -0.885673838926     1.007825032230
         H           -4.187543855684    -1.621087997624     0.885671161074     1.007825032230
         H           -4.959705855684    -0.299159997624     0.000025161074     1.007825032230
         H            4.366711144316    -1.392741997624    -0.000007838926     1.007825032230
         H            2.399101144316    -2.950006997624     0.000001161074     1.007825032230

  Basis Set: AUG-CC-PVTZ
    Blend: AUG-CC-PVTZ
  Basis Set: (AUG-CC-PVTZ AUX)
    Blend: AUG-CC-PVTZ-JKFIT
	 Reference Energy          =    -548.5932502153215182 [Eh]
	 Singles Energy            =      -0.0000000000000000 [Eh]
	 Same-Spin Energy          =      -0.6097357096808420 [Eh]
	 Opposite-Spin Energy      =      -1.8804937001215922 [Eh]
	 Correlation Energy        =      -2.4902294098024340 [Eh]
	 Total Energy              =    -551.0834796251239140 [Eh]

	 ================> DF-SCS-MP2 Energies <==================
	-----------------------------------------------------------
	 SCS Same-Spin Scale       =       0.3333333333333333 [-]
	 SCS Opposite-Spin Scale   =       1.2000000000000000 [-]
	 SCS Same-Spin Energy      =      -0.2032452365602807 [Eh]
	 SCS Opposite-Spin Energy  =      -2.2565924401459108 [Eh]
	 SCS Correlation Energy    =      -2.4598376767061914 [Eh]
	 SCS Total Energy          =    -551.0530878920277473 [Eh]
	-----------------------------------------------------------

  Dipole Moment: [D]
     X:     0.5295      Y:    -1.7471      Z:     0.0000     Total:     1.8256

*** Psi4 exiting successfully. Buy a developer a beer!
