                               Psi4 1.4a3.dev225

  ==> Input File <==

--------------------------------------------------------------------------
#psi4
#
memory 32 gb

molecule  {
0 1
  N       -1.5932770    -0.7762670    -0.0000010
  N       -1.2433830     1.4240120     0.0000010
  N        0.9927230    -1.4534560     0.0000030
  C       -0.6561680     0.2207960     0.0000070
  C        0.7646460    -0.1168500     0.0000020
  C        1.7974510     0.8476430     0.0000020
  C       -2.8387770    -0.2049930    -0.0000090
  C       -2.5875250     1.1588080    -0.0000060
  C        3.1063280     0.3562510    -0.0000040
  C        1.5337640     2.3273650     0.0000030
  C       -4.1038310    -0.9929000     0.0000030
  C        3.3549510    -1.0153620    -0.0000030
  C        2.2635760    -1.8809290    -0.0000010
  H       -1.3380790    -1.7591850     0.0000060
  H       -3.3182890     1.9585790    -0.0000140
  H        3.9358980     1.0613790    -0.0000050
  H        0.9464400     2.6235720    -0.8719580
  H        0.9464450     2.6235710     0.8719680
  H        2.4827640     2.8719440     0.0000020
  H       -4.1845960    -1.6320300    -0.8856740
  H       -4.1845630    -1.6320460     0.8856710
  H       -4.9567250    -0.3101180     0.0000250
  H        4.3696920    -1.4037000    -0.0000080
  H        2.4275221    -3.1593404     0.0000014
units angstrom
no_reorient  #important for SAPT in psi4, default
symmetry c1  #important for SAPT in psi4, default
}

set PROPERTIES_ORIGIN ["COM"]
properties('MP2/aug-cc-pvtz', properties = ['dipole'])
--------------------------------------------------------------------------

    Molecular point group: c1
  Charge       = 0
  Multiplicity = 1
  Basis Set: AUG-CC-PVTZ
    Blend: AUG-CC-PVTZ
  Basis Set: (AUG-CC-PVTZ AUX)
    Blend: AUG-CC-PVTZ-JKFIT

    Orbital Energies [Eh]
    ---------------------

    Doubly Occupied:

       1A    -15.608296     2A    -15.575193     3A    -15.544905
       4A    -11.298623     5A    -11.294258     6A    -11.291440
       7A    -11.266008     8A    -11.258024     9A    -11.253712
      10A    -11.245837    11A    -11.238108    12A    -11.235311
      13A    -11.216280    14A     -1.335927    15A     -1.259477
      16A     -1.161289    17A     -1.099935    18A     -1.072334
      19A     -1.029325    20A     -0.956918    21A     -0.926855
      22A     -0.865582    23A     -0.833436    24A     -0.805512
      25A     -0.773569    26A     -0.722228    27A     -0.670763
      28A     -0.661032    29A     -0.627565    30A     -0.618632
      31A     -0.586114    32A     -0.580640    33A     -0.569717
      34A     -0.563602    35A     -0.555880    36A     -0.553064
      37A     -0.548930    38A     -0.545428    39A     -0.524354
      40A     -0.501737    41A     -0.432594    42A     -0.423162
      43A     -0.395206    44A     -0.387953    45A     -0.356336
      46A     -0.280025

  @DF-RHF Final Energy:  -548.60468272220135

   => Energetics <=

    Nuclear Repulsion Energy =            740.4136820013283113
    One-Electron Energy =               -2212.9345057053938035
    Two-Electron Energy =                 923.9161409818642596
    Total Energy =                       -548.6046827222013462
  Basis Set: (AUG-CC-PVTZ AUX)
    Blend: AUG-CC-PVTZ-RI
    Molecular point group: c1

    Geometry (in Angstrom), charge = 0, multiplicity = 1:

       Center              X                  Y                   Z               Mass
    ------------   -----------------  -----------------  -----------------  -----------------
         N           -1.610008925792    -0.766837895925    -0.000000910580    14.003074004430
         N           -1.260114925792     1.433441104075     0.000001089420    14.003074004430
         N            0.975991074208    -1.444026895925     0.000003089420    14.003074004430
         C           -0.672899925792     0.230225104075     0.000007089420    12.000000000000
         C            0.747914074208    -0.107420895925     0.000002089420    12.000000000000
         C            1.780719074208     0.857072104075     0.000002089420    12.000000000000
         C           -2.855508925792    -0.195563895925    -0.000008910580    12.000000000000
         C           -2.604256925792     1.168237104075    -0.000005910580    12.000000000000
         C            3.089596074208     0.365680104075    -0.000003910580    12.000000000000
         C            1.517032074208     2.336794104075     0.000003089420    12.000000000000
         C           -4.120562925792    -0.983470895925     0.000003089420    12.000000000000
         C            3.338219074208    -1.005932895925    -0.000002910580    12.000000000000
         C            2.246844074208    -1.871499895925    -0.000000910580    12.000000000000
         H           -1.354810925792    -1.749755895925     0.000006089420     1.007825032230
         H           -3.335020925792     1.968008104075    -0.000013910580     1.007825032230
         H            3.919166074208     1.070808104075    -0.000004910580     1.007825032230
         H            0.929708074208     2.633001104075    -0.871957910580     1.007825032230
         H            0.929713074208     2.633000104075     0.871968089420     1.007825032230
         H            2.466032074208     2.881373104075     0.000002089420     1.007825032230
         H           -4.201327925792    -1.622600895925    -0.885673910580     1.007825032230
         H           -4.201294925792    -1.622616895925     0.885671089420     1.007825032230
         H           -4.973456925792    -0.300688895925     0.000025089420     1.007825032230
         H            4.352960074208    -1.394270895925    -0.000007910580     1.007825032230
         H            2.410790174208    -3.149911295925     0.000001489420     1.007825032230

  Basis Set: AUG-CC-PVTZ
    Blend: AUG-CC-PVTZ
  Basis Set: (AUG-CC-PVTZ AUX)
    Blend: AUG-CC-PVTZ-JKFIT
	 Reference Energy          =    -548.6046827222013462 [Eh]
	 Singles Energy            =      -0.0000000000000000 [Eh]
	 Same-Spin Energy          =      -0.6122567799546776 [Eh]
	 Opposite-Spin Energy      =      -1.8809508889634323 [Eh]
	 Correlation Energy        =      -2.4932076689181102 [Eh]
	 Total Energy              =    -551.0978903911194493 [Eh]

	 ================> DF-SCS-MP2 Energies <==================
	-----------------------------------------------------------
	 SCS Same-Spin Scale       =       0.3333333333333333 [-]
	 SCS Opposite-Spin Scale   =       1.2000000000000000 [-]
	 SCS Same-Spin Energy      =      -0.2040855933182259 [Eh]
	 SCS Opposite-Spin Energy  =      -2.2571410667561187 [Eh]
	 SCS Correlation Energy    =      -2.4612266600743444 [Eh]
	 SCS Total Energy          =    -551.0659093822756631 [Eh]
	-----------------------------------------------------------

  Dipole Moment: [D]
     X:     0.0736      Y:    -1.6168      Z:     0.0000     Total:     1.6185

*** Psi4 exiting successfully. Buy a developer a beer!
