                               Psi4 1.4a3.dev225

  ==> Input File <==

--------------------------------------------------------------------------
#psi4
#
memory 32 gb

molecule  {
0 1
  N       -1.5932770    -0.7762670    -0.0000010
  N       -1.2433830     1.4240120     0.0000010
  N        0.9927230    -1.4534560     0.0000030
  C       -0.6561680     0.2207960     0.0000070
  C        0.7730564    -0.1661376     0.0000020
  C        1.7974510     0.8476430     0.0000020
  C       -2.8387770    -0.2049930    -0.0000090
  C       -2.5875250     1.1588080    -0.0000060
  C        3.1063280     0.3562510    -0.0000040
  C        1.5337640     2.3273650     0.0000030
  C       -4.1038310    -0.9929000     0.0000030
  C        3.3549510    -1.0153620    -0.0000030
  C        2.2635760    -1.8809290    -0.0000010
  H       -1.3380790    -1.7591850     0.0000060
  H       -3.3182890     1.9585790    -0.0000140
  H        3.9358980     1.0613790    -0.0000050
  H        0.9464400     2.6235720    -0.8719580
  H        0.9464450     2.6235710     0.8719680
  H        2.4827640     2.8719440     0.0000020
  H       -4.1845960    -1.6320300    -0.8856740
  H       -4.1845630    -1.6320460     0.8856710
  H       -4.9567250    -0.3101180     0.0000250
  H        4.3696920    -1.4037000    -0.0000080
  H        2.4020820    -2.9609650     0.0000010
units angstrom
no_reorient  #important for SAPT in psi4, default
symmetry c1  #important for SAPT in psi4, default
}

set PROPERTIES_ORIGIN ["COM"]
properties('MP2/aug-cc-pvtz', properties = ['dipole'])
--------------------------------------------------------------------------

    Molecular point group: c1
  Charge       = 0
  Multiplicity = 1
  Basis Set: AUG-CC-PVTZ
    Blend: AUG-CC-PVTZ
  Basis Set: (AUG-CC-PVTZ AUX)
    Blend: AUG-CC-PVTZ-JKFIT

    Orbital Energies [Eh]
    ---------------------

    Doubly Occupied:

       1A    -15.606518     2A    -15.570484     3A    -15.544136
       4A    -11.293523     5A    -11.290674     6A    -11.276586
       7A    -11.264426     8A    -11.255604     9A    -11.254085
      10A    -11.243391    11A    -11.237219    12A    -11.234428
      13A    -11.216706    14A     -1.335005    15A     -1.271599
      16A     -1.159890    17A     -1.099576    18A     -1.070703
      19A     -1.028890    20A     -0.956253    21A     -0.929970
      22A     -0.862025    23A     -0.837699    24A     -0.803633
      25A     -0.781138    26A     -0.725437    27A     -0.680078
      28A     -0.658365    29A     -0.628067    30A     -0.617528
      31A     -0.593042    32A     -0.580524    33A     -0.575598
      34A     -0.564594    35A     -0.560814    36A     -0.552341
      37A     -0.550589    38A     -0.544186    39A     -0.527877
      40A     -0.508370    41A     -0.434463    42A     -0.421578
      43A     -0.394450    44A     -0.390847    45A     -0.349989
      46A     -0.280410

  @DF-RHF Final Energy:  -548.62612987719319

   => Energetics <=

    Nuclear Repulsion Energy =            741.4789897065750210
    One-Electron Energy =               -2215.0836203356780061
    Two-Electron Energy =                 924.9785007519097917
    Total Energy =                       -548.6261298771931934
  Basis Set: (AUG-CC-PVTZ AUX)
    Blend: AUG-CC-PVTZ-RI
    Molecular point group: c1

    Geometry (in Angstrom), charge = 0, multiplicity = 1:

       Center              X                  Y                   Z               Mass
    ------------   -----------------  -----------------  -----------------  -----------------
         N           -1.610443863261    -0.764576000240    -0.000000908252    14.003074004430
         N           -1.260549863261     1.435702999760     0.000001091748    14.003074004430
         N            0.975556136739    -1.441765000240     0.000003091748    14.003074004430
         C           -0.673334863261     0.232486999760     0.000007091748    12.000000000000
         C            0.755889536739    -0.154446600240     0.000002091748    12.000000000000
         C            1.780284136739     0.859333999760     0.000002091748    12.000000000000
         C           -2.855943863261    -0.193302000240    -0.000008908252    12.000000000000
         C           -2.604691863261     1.170498999760    -0.000005908252    12.000000000000
         C            3.089161136739     0.367941999760    -0.000003908252    12.000000000000
         C            1.516597136739     2.339055999760     0.000003091748    12.000000000000
         C           -4.120997863261    -0.981209000240     0.000003091748    12.000000000000
         C            3.337784136739    -1.003671000240    -0.000002908252    12.000000000000
         C            2.246409136739    -1.869238000240    -0.000000908252    12.000000000000
         H           -1.355245863261    -1.747494000240     0.000006091748     1.007825032230
         H           -3.335455863261     1.970269999760    -0.000013908252     1.007825032230
         H            3.918731136739     1.073069999760    -0.000004908252     1.007825032230
         H            0.929273136739     2.635262999760    -0.871957908252     1.007825032230
         H            0.929278136739     2.635261999760     0.871968091748     1.007825032230
         H            2.465597136739     2.883634999760     0.000002091748     1.007825032230
         H           -4.201762863261    -1.620339000240    -0.885673908252     1.007825032230
         H           -4.201729863261    -1.620355000240     0.885671091748     1.007825032230
         H           -4.973891863261    -0.298427000240     0.000025091748     1.007825032230
         H            4.352525136739    -1.392009000240    -0.000007908252     1.007825032230
         H            2.384915136739    -2.949274000240     0.000001091748     1.007825032230

  Basis Set: AUG-CC-PVTZ
    Blend: AUG-CC-PVTZ
  Basis Set: (AUG-CC-PVTZ AUX)
    Blend: AUG-CC-PVTZ-JKFIT
	 Reference Energy          =    -548.6261298771931934 [Eh]
	 Singles Energy            =      -0.0000000000000000 [Eh]
	 Same-Spin Energy          =      -0.6109138108726557 [Eh]
	 Opposite-Spin Energy      =      -1.8773851322582735 [Eh]
	 Correlation Energy        =      -2.4882989431309293 [Eh]
	 Total Energy              =    -551.1144288203241786 [Eh]

	 ================> DF-SCS-MP2 Energies <==================
	-----------------------------------------------------------
	 SCS Same-Spin Scale       =       0.3333333333333333 [-]
	 SCS Opposite-Spin Scale   =       1.2000000000000000 [-]
	 SCS Same-Spin Energy      =      -0.2036379369575519 [Eh]
	 SCS Opposite-Spin Energy  =      -2.2528621587099282 [Eh]
	 SCS Correlation Energy    =      -2.4565000956674803 [Eh]
	 SCS Total Energy          =    -551.0826299728606728 [Eh]
	-----------------------------------------------------------

  Dipole Moment: [D]
     X:     0.2199      Y:    -1.7620      Z:     0.0000     Total:     1.7757

*** Psi4 exiting successfully. Buy a developer a beer!
