                               Psi4 1.4a3.dev225

  ==> Input File <==

--------------------------------------------------------------------------
#psi4
#
memory 32 gb

molecule  {
0 1
  N       -1.5932770    -0.7762670    -0.0000010
  N       -1.2433830     1.4240120     0.0000010
  N        0.9927230    -1.4534560     0.0000030
  C       -0.5191961     0.3665310     0.0000082
  C        0.7646460    -0.1168500     0.0000020
  C        1.7974510     0.8476430     0.0000020
  C       -2.8387770    -0.2049930    -0.0000090
  C       -2.5875250     1.1588080    -0.0000060
  C        3.1063280     0.3562510    -0.0000040
  C        1.5337640     2.3273650     0.0000030
  C       -4.1038310    -0.9929000     0.0000030
  C        3.3549510    -1.0153620    -0.0000030
  C        2.2635760    -1.8809290    -0.0000010
  H       -1.3380790    -1.7591850     0.0000060
  H       -3.3182890     1.9585790    -0.0000140
  H        3.9358980     1.0613790    -0.0000050
  H        0.9464400     2.6235720    -0.8719580
  H        0.9464450     2.6235710     0.8719680
  H        2.4827640     2.8719440     0.0000020
  H       -4.1845960    -1.6320300    -0.8856740
  H       -4.1845630    -1.6320460     0.8856710
  H       -4.9567250    -0.3101180     0.0000250
  H        4.3696920    -1.4037000    -0.0000080
  H        2.4020820    -2.9609650     0.0000010
units angstrom
no_reorient  #important for SAPT in psi4, default
symmetry c1  #important for SAPT in psi4, default
}

set PROPERTIES_ORIGIN ["COM"]
properties('MP2/aug-cc-pvtz', properties = ['dipole'])
--------------------------------------------------------------------------

    Molecular point group: c1
  Charge       = 0
  Multiplicity = 1
  Basis Set: AUG-CC-PVTZ
    Blend: AUG-CC-PVTZ
  Basis Set: (AUG-CC-PVTZ AUX)
    Blend: AUG-CC-PVTZ-JKFIT

    Orbital Energies [Eh]
    ---------------------

    Doubly Occupied:

       1A    -15.585300     2A    -15.573953     3A    -15.555754
       4A    -11.299313     5A    -11.286663     6A    -11.278993
       7A    -11.276882     8A    -11.256241     9A    -11.251800
      10A    -11.243678    11A    -11.240110    12A    -11.231743
      13A    -11.219707    14A     -1.308715    15A     -1.258518
      16A     -1.157363    17A     -1.100947    18A     -1.080760
      19A     -1.020932    20A     -0.966172    21A     -0.937388
      22A     -0.882167    23A     -0.835850    24A     -0.793603
      25A     -0.768098    26A     -0.705970    27A     -0.677774
      28A     -0.661461    29A     -0.644548    30A     -0.609175
      31A     -0.595903    32A     -0.584847    33A     -0.579199
      34A     -0.573054    35A     -0.552547    36A     -0.549483
      37A     -0.547415    38A     -0.535629    39A     -0.521435
      40A     -0.514304    41A     -0.429704    42A     -0.412297
      43A     -0.404555    44A     -0.384835    45A     -0.358097
      46A     -0.272032

  @DF-RHF Final Energy:  -548.58360859795039

   => Energetics <=

    Nuclear Repulsion Energy =            740.9999527628610849
    One-Electron Energy =               -2214.1172903329697874
    Two-Electron Energy =                 924.5337289721583147
    Total Energy =                       -548.5836085979503878
  Basis Set: (AUG-CC-PVTZ AUX)
    Blend: AUG-CC-PVTZ-RI
    Molecular point group: c1

    Geometry (in Angstrom), charge = 0, multiplicity = 1:

       Center              X                  Y                   Z               Mass
    ------------   -----------------  -----------------  -----------------  -----------------
         N           -1.619356514404    -0.778096131842    -0.000000991443    14.003074004430
         N           -1.269462514404     1.422182868158     0.000001008557    14.003074004430
         N            0.966643485596    -1.455285131842     0.000003008557    14.003074004430
         C           -0.545275614404     0.364701868158     0.000008208557    12.000000000000
         C            0.738566485596    -0.118679131842     0.000002008557    12.000000000000
         C            1.771371485596     0.845813868158     0.000002008557    12.000000000000
         C           -2.864856514404    -0.206822131842    -0.000008991443    12.000000000000
         C           -2.613604514404     1.156978868158    -0.000005991443    12.000000000000
         C            3.080248485596     0.354421868158    -0.000003991443    12.000000000000
         C            1.507684485596     2.325535868158     0.000003008557    12.000000000000
         C           -4.129910514404    -0.994729131842     0.000003008557    12.000000000000
         C            3.328871485596    -1.017191131842    -0.000002991443    12.000000000000
         C            2.237496485596    -1.882758131842    -0.000000991443    12.000000000000
         H           -1.364158514404    -1.761014131842     0.000006008557     1.007825032230
         H           -3.344368514404     1.956749868158    -0.000013991443     1.007825032230
         H            3.909818485596     1.059549868158    -0.000004991443     1.007825032230
         H            0.920360485596     2.621742868158    -0.871957991443     1.007825032230
         H            0.920365485596     2.621741868158     0.871968008557     1.007825032230
         H            2.456684485596     2.870114868158     0.000002008557     1.007825032230
         H           -4.210675514404    -1.633859131842    -0.885673991443     1.007825032230
         H           -4.210642514404    -1.633875131842     0.885671008557     1.007825032230
         H           -4.982804514404    -0.311947131842     0.000025008557     1.007825032230
         H            4.343612485596    -1.405529131842    -0.000007991443     1.007825032230
         H            2.376002485596    -2.962794131842     0.000001008557     1.007825032230

  Basis Set: AUG-CC-PVTZ
    Blend: AUG-CC-PVTZ
  Basis Set: (AUG-CC-PVTZ AUX)
    Blend: AUG-CC-PVTZ-JKFIT
	 Reference Energy          =    -548.5836085979503878 [Eh]
	 Singles Energy            =      -0.0000000000000000 [Eh]
	 Same-Spin Energy          =      -0.6143360863753630 [Eh]
	 Opposite-Spin Energy      =      -1.8834195401533440 [Eh]
	 Correlation Energy        =      -2.4977556265287069 [Eh]
	 Total Energy              =    -551.0813642244791026 [Eh]

	 ================> DF-SCS-MP2 Energies <==================
	-----------------------------------------------------------
	 SCS Same-Spin Scale       =       0.3333333333333333 [-]
	 SCS Opposite-Spin Scale   =       1.2000000000000000 [-]
	 SCS Same-Spin Energy      =      -0.2047786954584543 [Eh]
	 SCS Opposite-Spin Energy  =      -2.2601034481840125 [Eh]
	 SCS Correlation Energy    =      -2.4648821436424670 [Eh]
	 SCS Total Energy          =    -551.0484907415929001 [Eh]
	-----------------------------------------------------------

  Dipole Moment: [D]
     X:     0.3252      Y:    -1.3924      Z:     0.0000     Total:     1.4298

*** Psi4 exiting successfully. Buy a developer a beer!
