                               Psi4 1.4a3.dev225

  ==> Input File <==

--------------------------------------------------------------------------
#psi4
#
memory 32 gb

molecule  {
0 1
  N       -1.5932770    -0.7762670    -0.0000010
  N       -1.2433830     1.4240120     0.0000010
  N        0.9927230    -1.4534560     0.0000030
  C       -0.6561680     0.2207960     0.0000070
  C        0.7646460    -0.1168500     0.0000020
  C        1.7974510     0.8476430     0.0000020
  C       -2.8387770    -0.2049930    -0.0000090
  C       -2.5875250     1.1588080    -0.0000060
  C        3.1063280     0.3562510    -0.0000040
  C        1.5337640     2.3273650     0.0000030
  C       -4.1038310    -0.9929000     0.0000030
  C        3.3549510    -1.0153620    -0.0000030
  C        2.4531394    -1.9446919    -0.0000016
  H       -1.3380790    -1.7591850     0.0000060
  H       -3.3182890     1.9585790    -0.0000140
  H        3.9358980     1.0613790    -0.0000050
  H        0.9464400     2.6235720    -0.8719580
  H        0.9464450     2.6235710     0.8719680
  H        2.4827640     2.8719440     0.0000020
  H       -4.1845960    -1.6320300    -0.8856740
  H       -4.1845630    -1.6320460     0.8856710
  H       -4.9567250    -0.3101180     0.0000250
  H        4.3696920    -1.4037000    -0.0000080
  H        2.4020820    -2.9609650     0.0000010
units angstrom
no_reorient  #important for SAPT in psi4, default
symmetry c1  #important for SAPT in psi4, default
}

set PROPERTIES_ORIGIN ["COM"]
properties('MP2/aug-cc-pvtz', properties = ['dipole'])
--------------------------------------------------------------------------

    Molecular point group: c1
  Charge       = 0
  Multiplicity = 1
  Basis Set: AUG-CC-PVTZ
    Blend: AUG-CC-PVTZ
  Basis Set: (AUG-CC-PVTZ AUX)
    Blend: AUG-CC-PVTZ-JKFIT

    Orbital Energies [Eh]
    ---------------------

    Doubly Occupied:

       1A    -15.607115     2A    -15.577055     3A    -15.545683
       4A    -11.293638     5A    -11.291679     6A    -11.272085
       7A    -11.266073     8A    -11.256679     9A    -11.255442
      10A    -11.237913    11A    -11.236385    12A    -11.234684
      13A    -11.216717    14A     -1.334693    15A     -1.223553
      16A     -1.160935    17A     -1.094269    18A     -1.074890
      19A     -1.034230    20A     -0.948991    21A     -0.938626
      22A     -0.866960    23A     -0.834659    24A     -0.803005
      25A     -0.781285    26A     -0.731659    27A     -0.672109
      28A     -0.663508    29A     -0.627313    30A     -0.617273
      31A     -0.597765    32A     -0.579308    33A     -0.577668
      34A     -0.565679    35A     -0.561785    36A     -0.553187
      37A     -0.545762    38A     -0.541563    39A     -0.510822
      40A     -0.500392    41A     -0.433402    42A     -0.416502
      43A     -0.398782    44A     -0.391222    45A     -0.342472
      46A     -0.286410

  @DF-RHF Final Energy:  -548.58227850591629

   => Energetics <=

    Nuclear Repulsion Energy =            738.5327552749084816
    One-Electron Energy =               -2209.2264107962109847
    Two-Electron Energy =                 922.1113770153860969
    Total Energy =                       -548.5822785059162925
  Basis Set: (AUG-CC-PVTZ AUX)
    Blend: AUG-CC-PVTZ-RI
    Molecular point group: c1

    Geometry (in Angstrom), charge = 0, multiplicity = 1:

       Center              X                  Y                   Z               Mass
    ------------   -----------------  -----------------  -----------------  -----------------
         N           -1.623002471340    -0.763572485976    -0.000000866656    14.003074004430
         N           -1.273108471340     1.436706514024     0.000001133344    14.003074004430
         N            0.962997528660    -1.440761485976     0.000003133344    14.003074004430
         C           -0.685893471340     0.233490514024     0.000007133344    12.000000000000
         C            0.734920528660    -0.104155485976     0.000002133344    12.000000000000
         C            1.767725528660     0.860337514024     0.000002133344    12.000000000000
         C           -2.868502471340    -0.192298485976    -0.000008866656    12.000000000000
         C           -2.617250471340     1.171502514024    -0.000005866656    12.000000000000
         C            3.076602528660     0.368945514024    -0.000003866656    12.000000000000
         C            1.504038528660     2.340059514024     0.000003133344    12.000000000000
         C           -4.133556471340    -0.980205485976     0.000003133344    12.000000000000
         C            3.325225528660    -1.002667485976    -0.000002866656    12.000000000000
         C            2.423413928660    -1.931997385976    -0.000001466656    12.000000000000
         H           -1.367804471340    -1.746490485976     0.000006133344     1.007825032230
         H           -3.348014471340     1.971273514024    -0.000013866656     1.007825032230
         H            3.906172528660     1.074073514024    -0.000004866656     1.007825032230
         H            0.916714528660     2.636266514024    -0.871957866656     1.007825032230
         H            0.916719528660     2.636265514024     0.871968133344     1.007825032230
         H            2.453038528660     2.884638514024     0.000002133344     1.007825032230
         H           -4.214321471340    -1.619335485976    -0.885673866656     1.007825032230
         H           -4.214288471340    -1.619351485976     0.885671133344     1.007825032230
         H           -4.986450471340    -0.297423485976     0.000025133344     1.007825032230
         H            4.339966528660    -1.391005485976    -0.000007866656     1.007825032230
         H            2.372356528660    -2.948270485976     0.000001133344     1.007825032230

  Basis Set: AUG-CC-PVTZ
    Blend: AUG-CC-PVTZ
  Basis Set: (AUG-CC-PVTZ AUX)
    Blend: AUG-CC-PVTZ-JKFIT
	 Reference Energy          =    -548.5822785059162925 [Eh]
	 Singles Energy            =      -0.0000000000000000 [Eh]
	 Same-Spin Energy          =      -0.6121115368912318 [Eh]
	 Opposite-Spin Energy      =      -1.8841886438560822 [Eh]
	 Correlation Energy        =      -2.4963001807473137 [Eh]
	 Total Energy              =    -551.0785786866636045 [Eh]

	 ================> DF-SCS-MP2 Energies <==================
	-----------------------------------------------------------
	 SCS Same-Spin Scale       =       0.3333333333333333 [-]
	 SCS Opposite-Spin Scale   =       1.2000000000000000 [-]
	 SCS Same-Spin Energy      =      -0.2040371789637439 [Eh]
	 SCS Opposite-Spin Energy  =      -2.2610263726272986 [Eh]
	 SCS Correlation Energy    =      -2.4650635515910424 [Eh]
	 SCS Total Energy          =    -551.0473420575073078 [Eh]
	-----------------------------------------------------------

  Dipole Moment: [D]
     X:     0.1835      Y:    -1.7268      Z:     0.0000     Total:     1.7365

*** Psi4 exiting successfully. Buy a developer a beer!
