                               Psi4 1.4a3.dev225

  ==> Input File <==

--------------------------------------------------------------------------
#psi4
#
memory 32 gb

molecule  {
0 1
  N       -1.5932770    -0.7762670    -0.0000010
  N       -1.2433830     1.4240120     0.0000010
  N        0.9927230    -1.4534560     0.0000030
  C       -0.6561680     0.2207960     0.0000070
  C        0.7646460    -0.1168500     0.0000020
  C        1.7974510     0.8476430     0.0000020
  C       -2.8387770    -0.2049930    -0.0000090
  C       -2.5875250     1.1588080    -0.0000060
  C        3.1063280     0.3562510    -0.0000040
  C        1.5337640     2.3273650     0.0000030
  C       -4.1038310    -0.9929000     0.0000030
  C        3.3549510    -1.0153620    -0.0000030
  C        2.2635760    -1.8809290    -0.0000010
  H       -1.3380790    -1.7591850     0.0000060
  H       -3.3182890     1.9585790    -0.0000140
  H        3.9358980     1.0613790    -0.0000050
  H        0.9464400     2.6235720    -0.8719580
  H        0.9464450     2.6235710     0.8719680
  H        2.4827640     2.8719440     0.0000020
  H       -4.1845960    -1.6320300    -0.8856740
  H       -4.1845630    -1.6320460     0.8856710
  H       -4.9567250    -0.3101180     0.0000250
  H        4.3696920    -1.4037000    -0.0000080
  H        2.4046260    -2.9808025     0.0000010
units angstrom
no_reorient  #important for SAPT in psi4, default
symmetry c1  #important for SAPT in psi4, default
}

set PROPERTIES_ORIGIN ["COM"]
properties('MP2/aug-cc-pvtz', properties = ['dipole'])
--------------------------------------------------------------------------

    Molecular point group: c1
  Charge       = 0
  Multiplicity = 1
  Basis Set: AUG-CC-PVTZ
    Blend: AUG-CC-PVTZ
  Basis Set: (AUG-CC-PVTZ AUX)
    Blend: AUG-CC-PVTZ-JKFIT

    Orbital Energies [Eh]
    ---------------------

    Doubly Occupied:

       1A    -15.607608     2A    -15.572830     3A    -15.544132
       4A    -11.293423     5A    -11.289537     6A    -11.279434
       7A    -11.265376     8A    -11.256441     9A    -11.252735
      10A    -11.243478    11A    -11.237730    12A    -11.234725
      13A    -11.215552    14A     -1.335203    15A     -1.258156
      16A     -1.160602    17A     -1.098661    18A     -1.072831
      19A     -1.029066    20A     -0.956833    21A     -0.928966
      22A     -0.865063    23A     -0.835445    24A     -0.804808
      25A     -0.778033    26A     -0.726518    27A     -0.675507
      28A     -0.660853    29A     -0.628692    30A     -0.617965
      31A     -0.592925    32A     -0.579776    33A     -0.574667
      34A     -0.564784    35A     -0.561199    36A     -0.552482
      37A     -0.548483    38A     -0.544909    39A     -0.522927
      40A     -0.507222    41A     -0.433293    42A     -0.424171
      43A     -0.394497    44A     -0.386607    45A     -0.355186
      46A     -0.279263

  @DF-RHF Final Energy:  -548.62629188714925

   => Energetics <=

    Nuclear Repulsion Energy =            741.2830811320183102
    One-Electron Energy =               -2214.7215575803138563
    Two-Electron Energy =                 924.8121845611464096
    Total Energy =                       -548.6262918871492502
  Basis Set: (AUG-CC-PVTZ AUX)
    Blend: AUG-CC-PVTZ-RI
    Molecular point group: c1

    Geometry (in Angstrom), charge = 0, multiplicity = 1:

       Center              X                  Y                   Z               Mass
    ------------   -----------------  -----------------  -----------------  -----------------
         N           -1.609875616205    -0.767877409809    -0.000000908252    14.003074004430
         N           -1.259981616205     1.432401590191     0.000001091748    14.003074004430
         N            0.976124383795    -1.445066409809     0.000003091748    14.003074004430
         C           -0.672766616205     0.229185590191     0.000007091748    12.000000000000
         C            0.748047383795    -0.108460409809     0.000002091748    12.000000000000
         C            1.780852383795     0.856032590191     0.000002091748    12.000000000000
         C           -2.855375616205    -0.196603409809    -0.000008908252    12.000000000000
         C           -2.604123616205     1.167197590191    -0.000005908252    12.000000000000
         C            3.089729383795     0.364640590191    -0.000003908252    12.000000000000
         C            1.517165383795     2.335754590191     0.000003091748    12.000000000000
         C           -4.120429616205    -0.984510409809     0.000003091748    12.000000000000
         C            3.338352383795    -1.006972409809    -0.000002908252    12.000000000000
         C            2.246977383795    -1.872539409809    -0.000000908252    12.000000000000
         H           -1.354677616205    -1.750795409809     0.000006091748     1.007825032230
         H           -3.334887616205     1.966968590191    -0.000013908252     1.007825032230
         H            3.919299383795     1.069768590191    -0.000004908252     1.007825032230
         H            0.929841383795     2.631961590191    -0.871957908252     1.007825032230
         H            0.929846383795     2.631960590191     0.871968091748     1.007825032230
         H            2.466165383795     2.880333590191     0.000002091748     1.007825032230
         H           -4.201194616205    -1.623640409809    -0.885673908252     1.007825032230
         H           -4.201161616205    -1.623656409809     0.885671091748     1.007825032230
         H           -4.973323616205    -0.301728409809     0.000025091748     1.007825032230
         H            4.353093383795    -1.395310409809    -0.000007908252     1.007825032230
         H            2.388027383795    -2.972412909809     0.000001091748     1.007825032230

  Basis Set: AUG-CC-PVTZ
    Blend: AUG-CC-PVTZ
  Basis Set: (AUG-CC-PVTZ AUX)
    Blend: AUG-CC-PVTZ-JKFIT
	 Reference Energy          =    -548.6262918871492502 [Eh]
	 Singles Energy            =      -0.0000000000000000 [Eh]
	 Same-Spin Energy          =      -0.6116696527830636 [Eh]
	 Opposite-Spin Energy      =      -1.8787620353381933 [Eh]
	 Correlation Energy        =      -2.4904316881212569 [Eh]
	 Total Energy              =    -551.1167235752704983 [Eh]

	 ================> DF-SCS-MP2 Energies <==================
	-----------------------------------------------------------
	 SCS Same-Spin Scale       =       0.3333333333333333 [-]
	 SCS Opposite-Spin Scale   =       1.2000000000000000 [-]
	 SCS Same-Spin Energy      =      -0.2038898842610212 [Eh]
	 SCS Opposite-Spin Energy  =      -2.2545144424058319 [Eh]
	 SCS Correlation Energy    =      -2.4584043266668529 [Eh]
	 SCS Total Energy          =    -551.0846962138160734 [Eh]
	-----------------------------------------------------------

  Dipole Moment: [D]
     X:     0.1495      Y:    -1.7446      Z:     0.0000     Total:     1.7509

*** Psi4 exiting successfully. Buy a developer a beer!
