                               Psi4 1.4a3.dev225

  ==> Input File <==

--------------------------------------------------------------------------
#psi4
#
memory 32 gb

molecule  {
0 1
  N       -1.5932770    -0.7762670    -0.0000010
  N       -1.2433830     1.4240120     0.0000010
  N        0.9927230    -1.4534560     0.0000030
  C       -0.6698652     0.2062225     0.0000069
  C        0.7646460    -0.1168500     0.0000020
  C        1.7974510     0.8476430     0.0000020
  C       -2.8387770    -0.2049930    -0.0000090
  C       -2.5875250     1.1588080    -0.0000060
  C        3.1063280     0.3562510    -0.0000040
  C        1.5337640     2.3273650     0.0000030
  C       -4.1038310    -0.9929000     0.0000030
  C        3.3549510    -1.0153620    -0.0000030
  C        2.2635760    -1.8809290    -0.0000010
  H       -1.3380790    -1.7591850     0.0000060
  H       -3.3182890     1.9585790    -0.0000140
  H        3.9358980     1.0613790    -0.0000050
  H        0.9464400     2.6235720    -0.8719580
  H        0.9464450     2.6235710     0.8719680
  H        2.4827640     2.8719440     0.0000020
  H       -4.1845960    -1.6320300    -0.8856740
  H       -4.1845630    -1.6320460     0.8856710
  H       -4.9567250    -0.3101180     0.0000250
  H        4.3696920    -1.4037000    -0.0000080
  H        2.4020820    -2.9609650     0.0000010
units angstrom
no_reorient  #important for SAPT in psi4, default
symmetry c1  #important for SAPT in psi4, default
}

set PROPERTIES_ORIGIN ["COM"]
properties('MP2/aug-cc-pvtz', properties = ['dipole'])
--------------------------------------------------------------------------

    Molecular point group: c1
  Charge       = 0
  Multiplicity = 1
  Basis Set: AUG-CC-PVTZ
    Blend: AUG-CC-PVTZ
  Basis Set: (AUG-CC-PVTZ AUX)
    Blend: AUG-CC-PVTZ-JKFIT

    Orbital Energies [Eh]
    ---------------------

    Doubly Occupied:

       1A    -15.609306     2A    -15.572581     3A    -15.542895
       4A    -11.293113     5A    -11.289899     6A    -11.277010
       7A    -11.263815     8A    -11.256403     9A    -11.252882
      10A    -11.243305    11A    -11.237303    12A    -11.235087
      13A    -11.215173    14A     -1.339402    15A     -1.258101
      16A     -1.160775    17A     -1.098525    18A     -1.072415
      19A     -1.029781    20A     -0.956004    21A     -0.928544
      22A     -0.863692    23A     -0.835894    24A     -0.806744
      25A     -0.781112    26A     -0.728582    27A     -0.676009
      28A     -0.661011    29A     -0.627291    30A     -0.619544
      31A     -0.594140    32A     -0.579248    33A     -0.575366
      34A     -0.564966    35A     -0.560605    36A     -0.553208
      37A     -0.548253    38A     -0.544204    39A     -0.522899
      40A     -0.506502    41A     -0.433555    42A     -0.424832
      43A     -0.393911    44A     -0.386542    45A     -0.354614
      46A     -0.279668

  @DF-RHF Final Energy:  -548.62683896905071

   => Energetics <=

    Nuclear Repulsion Energy =            741.4490852690518068
    One-Electron Energy =               -2215.0424251900394665
    Two-Electron Energy =                 924.9665009519368368
    Total Energy =                       -548.6268389690507092
  Basis Set: (AUG-CC-PVTZ AUX)
    Blend: AUG-CC-PVTZ-RI
    Molecular point group: c1

    Geometry (in Angstrom), charge = 0, multiplicity = 1:

       Center              X                  Y                   Z               Mass
    ------------   -----------------  -----------------  -----------------  -----------------
         N           -1.608911232369    -0.766982589017    -0.000000901319    14.003074004430
         N           -1.259017232369     1.433296410983     0.000001098681    14.003074004430
         N            0.977088767631    -1.444171589017     0.000003098681    14.003074004430
         C           -0.685499432369     0.215506910983     0.000006998681    12.000000000000
         C            0.749011767631    -0.107565589017     0.000002098681    12.000000000000
         C            1.781816767631     0.856927410983     0.000002098681    12.000000000000
         C           -2.854411232369    -0.195708589017    -0.000008901319    12.000000000000
         C           -2.603159232369     1.168092410983    -0.000005901319    12.000000000000
         C            3.090693767631     0.365535410983    -0.000003901319    12.000000000000
         C            1.518129767631     2.336649410983     0.000003098681    12.000000000000
         C           -4.119465232369    -0.983615589017     0.000003098681    12.000000000000
         C            3.339316767631    -1.006077589017    -0.000002901319    12.000000000000
         C            2.247941767631    -1.871644589017    -0.000000901319    12.000000000000
         H           -1.353713232369    -1.749900589017     0.000006098681     1.007825032230
         H           -3.333923232369     1.967863410983    -0.000013901319     1.007825032230
         H            3.920263767631     1.070663410983    -0.000004901319     1.007825032230
         H            0.930805767631     2.632856410983    -0.871957901319     1.007825032230
         H            0.930810767631     2.632855410983     0.871968098681     1.007825032230
         H            2.467129767631     2.881228410983     0.000002098681     1.007825032230
         H           -4.200230232369    -1.622745589017    -0.885673901319     1.007825032230
         H           -4.200197232369    -1.622761589017     0.885671098681     1.007825032230
         H           -4.972359232369    -0.300833589017     0.000025098681     1.007825032230
         H            4.354057767631    -1.394415589017    -0.000007901319     1.007825032230
         H            2.386447767631    -2.951680589017     0.000001098681     1.007825032230

  Basis Set: AUG-CC-PVTZ
    Blend: AUG-CC-PVTZ
  Basis Set: (AUG-CC-PVTZ AUX)
    Blend: AUG-CC-PVTZ-JKFIT
	 Reference Energy          =    -548.6268389690507092 [Eh]
	 Singles Energy            =      -0.0000000000000000 [Eh]
	 Same-Spin Energy          =      -0.6114956538738902 [Eh]
	 Opposite-Spin Energy      =      -1.8783442544359581 [Eh]
	 Correlation Energy        =      -2.4898399083098481 [Eh]
	 Total Energy              =    -551.1166788773605276 [Eh]

	 ================> DF-SCS-MP2 Energies <==================
	-----------------------------------------------------------
	 SCS Same-Spin Scale       =       0.3333333333333333 [-]
	 SCS Opposite-Spin Scale   =       1.2000000000000000 [-]
	 SCS Same-Spin Energy      =      -0.2038318846246300 [Eh]
	 SCS Opposite-Spin Energy  =      -2.2540131053231498 [Eh]
	 SCS Correlation Energy    =      -2.4578449899477799 [Eh]
	 SCS Total Energy          =    -551.0846839589985393 [Eh]
	-----------------------------------------------------------

  Dipole Moment: [D]
     X:     0.1526      Y:    -1.7862      Z:     0.0000     Total:     1.7927

*** Psi4 exiting successfully. Buy a developer a beer!
