                               Psi4 1.4a3.dev225

  ==> Input File <==

--------------------------------------------------------------------------
#psi4
#
memory 32 gb

molecule  {
0 1
  N       -1.5932770    -0.7762670    -0.0000010
  N       -1.2433830     1.4240120     0.0000010
  N        0.9927230    -1.4534560     0.0000030
  C       -0.6561680     0.2207960     0.0000070
  C        0.7646460    -0.1168500     0.0000020
  C        1.7974510     0.8476430     0.0000020
  C       -3.0205667    -0.1216114    -0.0000102
  C       -2.5875250     1.1588080    -0.0000060
  C        3.1063280     0.3562510    -0.0000040
  C        1.5337640     2.3273650     0.0000030
  C       -4.1038310    -0.9929000     0.0000030
  C        3.3549510    -1.0153620    -0.0000030
  C        2.2635760    -1.8809290    -0.0000010
  H       -1.3380790    -1.7591850     0.0000060
  H       -3.3182890     1.9585790    -0.0000140
  H        3.9358980     1.0613790    -0.0000050
  H        0.9464400     2.6235720    -0.8719580
  H        0.9464450     2.6235710     0.8719680
  H        2.4827640     2.8719440     0.0000020
  H       -4.1845960    -1.6320300    -0.8856740
  H       -4.1845630    -1.6320460     0.8856710
  H       -4.9567250    -0.3101180     0.0000250
  H        4.3696920    -1.4037000    -0.0000080
  H        2.4020820    -2.9609650     0.0000010
units angstrom
no_reorient  #important for SAPT in psi4, default
symmetry c1  #important for SAPT in psi4, default
}

set PROPERTIES_ORIGIN ["COM"]
properties('MP2/aug-cc-pvtz', properties = ['dipole'])
--------------------------------------------------------------------------

    Molecular point group: c1
  Charge       = 0
  Multiplicity = 1
  Basis Set: AUG-CC-PVTZ
    Blend: AUG-CC-PVTZ
  Basis Set: (AUG-CC-PVTZ AUX)
    Blend: AUG-CC-PVTZ-JKFIT

    Orbital Energies [Eh]
    ---------------------

    Doubly Occupied:

       1A    -15.585545     2A    -15.576141     3A    -15.536078
       4A    -11.303627     5A    -11.289799     6A    -11.278523
       7A    -11.267076     8A    -11.258530     9A    -11.257061
      10A    -11.248076    11A    -11.243860    12A    -11.233557
      13A    -11.217304    14A     -1.304996    15A     -1.257253
      16A     -1.134952    17A     -1.100474    18A     -1.081660
      19A     -1.046373    20A     -0.960200    21A     -0.936770
      22A     -0.873161    23A     -0.835118    24A     -0.791227
      25A     -0.756732    26A     -0.719636    27A     -0.676863
      28A     -0.663642    29A     -0.625017    30A     -0.609699
      31A     -0.607209    32A     -0.591670    33A     -0.583768
      34A     -0.574228    35A     -0.562065    36A     -0.549348
      37A     -0.547050    38A     -0.520967    39A     -0.510249
      40A     -0.498059    41A     -0.434531    42A     -0.423449
      43A     -0.389720    44A     -0.375427    45A     -0.356275
      46A     -0.293176

  @DF-RHF Final Energy:  -548.58749560220156

   => Energetics <=

    Nuclear Repulsion Energy =            738.7524351710741257
    One-Electron Energy =               -2209.7075771385639200
    Two-Electron Energy =                 922.3676463652883513
    Total Energy =                       -548.5874956022015567
  Basis Set: (AUG-CC-PVTZ AUX)
    Blend: AUG-CC-PVTZ-RI
    Molecular point group: c1

    Geometry (in Angstrom), charge = 0, multiplicity = 1:

       Center              X                  Y                   Z               Mass
    ------------   -----------------  -----------------  -----------------  -----------------
         N           -1.597258056167    -0.773773421685    -0.000000825060    14.003074004430
         N           -1.247364056167     1.426505578315     0.000001174940    14.003074004430
         N            0.988741943833    -1.450962421685     0.000003174940    14.003074004430
         C           -0.660149056167     0.223289578315     0.000007174940    12.000000000000
         C            0.760664943833    -0.114356421685     0.000002174940    12.000000000000
         C            1.793469943833     0.850136578315     0.000002174940    12.000000000000
         C           -3.024547756167    -0.119117821685    -0.000010025060    12.000000000000
         C           -2.591506056167     1.161301578315    -0.000005825060    12.000000000000
         C            3.102346943833     0.358744578315    -0.000003825060    12.000000000000
         C            1.529782943833     2.329858578315     0.000003174940    12.000000000000
         C           -4.107812056167    -0.990406421685     0.000003174940    12.000000000000
         C            3.350969943833    -1.012868421685    -0.000002825060    12.000000000000
         C            2.259594943833    -1.878435421685    -0.000000825060    12.000000000000
         H           -1.342060056167    -1.756691421685     0.000006174940     1.007825032230
         H           -3.322270056167     1.961072578315    -0.000013825060     1.007825032230
         H            3.931916943833     1.063872578315    -0.000004825060     1.007825032230
         H            0.942458943833     2.626065578315    -0.871957825060     1.007825032230
         H            0.942463943833     2.626064578315     0.871968174940     1.007825032230
         H            2.478782943833     2.874437578315     0.000002174940     1.007825032230
         H           -4.188577056167    -1.629536421685    -0.885673825060     1.007825032230
         H           -4.188544056167    -1.629552421685     0.885671174940     1.007825032230
         H           -4.960706056167    -0.307624421685     0.000025174940     1.007825032230
         H            4.365710943833    -1.401206421685    -0.000007825060     1.007825032230
         H            2.398100943833    -2.958471421685     0.000001174940     1.007825032230

  Basis Set: AUG-CC-PVTZ
    Blend: AUG-CC-PVTZ
  Basis Set: (AUG-CC-PVTZ AUX)
    Blend: AUG-CC-PVTZ-JKFIT
	 Reference Energy          =    -548.5874956022015567 [Eh]
	 Singles Energy            =      -0.0000000000000000 [Eh]
	 Same-Spin Energy          =      -0.6116444034562567 [Eh]
	 Opposite-Spin Energy      =      -1.8810511127988039 [Eh]
	 Correlation Energy        =      -2.4926955162550604 [Eh]
	 Total Energy              =    -551.0801911184565824 [Eh]

	 ================> DF-SCS-MP2 Energies <==================
	-----------------------------------------------------------
	 SCS Same-Spin Scale       =       0.3333333333333333 [-]
	 SCS Opposite-Spin Scale   =       1.2000000000000000 [-]
	 SCS Same-Spin Energy      =      -0.2038814678187522 [Eh]
	 SCS Opposite-Spin Energy  =      -2.2572613353585647 [Eh]
	 SCS Correlation Energy    =      -2.4611428031773168 [Eh]
	 SCS Total Energy          =    -551.0486384053788242 [Eh]
	-----------------------------------------------------------

  Dipole Moment: [D]
     X:     0.1685      Y:    -1.7118      Z:     0.0000     Total:     1.7201

*** Psi4 exiting successfully. Buy a developer a beer!
