                               Psi4 1.4a3.dev225

  ==> Input File <==

--------------------------------------------------------------------------
#psi4
#
memory 32 gb

molecule  {
0 1
  N       -1.5932770    -0.7762670    -0.0000010
  N       -1.2433830     1.4240120     0.0000010
  N        0.9927230    -1.4534560     0.0000030
  C       -0.6500589     0.2455412     0.0000071
  C        0.7646460    -0.1168500     0.0000020
  C        1.7974510     0.8476430     0.0000020
  C       -2.8387770    -0.2049930    -0.0000090
  C       -2.5875250     1.1588080    -0.0000060
  C        3.1063280     0.3562510    -0.0000040
  C        1.5337640     2.3273650     0.0000030
  C       -4.1038310    -0.9929000     0.0000030
  C        3.3549510    -1.0153620    -0.0000030
  C        2.2635760    -1.8809290    -0.0000010
  H       -1.3380790    -1.7591850     0.0000060
  H       -3.3182890     1.9585790    -0.0000140
  H        3.9358980     1.0613790    -0.0000050
  H        0.9464400     2.6235720    -0.8719580
  H        0.9464450     2.6235710     0.8719680
  H        2.4827640     2.8719440     0.0000020
  H       -4.1845960    -1.6320300    -0.8856740
  H       -4.1845630    -1.6320460     0.8856710
  H       -4.9567250    -0.3101180     0.0000250
  H        4.3696920    -1.4037000    -0.0000080
  H        2.4020820    -2.9609650     0.0000010
units angstrom
no_reorient  #important for SAPT in psi4, default
symmetry c1  #important for SAPT in psi4, default
}

set PROPERTIES_ORIGIN ["COM"]
properties('MP2/aug-cc-pvtz', properties = ['dipole'])
--------------------------------------------------------------------------

    Molecular point group: c1
  Charge       = 0
  Multiplicity = 1
  Basis Set: AUG-CC-PVTZ
    Blend: AUG-CC-PVTZ
  Basis Set: (AUG-CC-PVTZ AUX)
    Blend: AUG-CC-PVTZ-JKFIT

    Orbital Energies [Eh]
    ---------------------

    Doubly Occupied:

       1A    -15.604513     2A    -15.572885     3A    -15.544579
       4A    -11.293527     5A    -11.289408     6A    -11.277276
       7A    -11.266708     8A    -11.256166     9A    -11.252319
      10A    -11.243299    11A    -11.237903    12A    -11.233838
      13A    -11.215975    14A     -1.332356    15A     -1.257917
      16A     -1.162819    17A     -1.098643    18A     -1.072469
      19A     -1.028096    20A     -0.957222    21A     -0.930588
      22A     -0.866160    23A     -0.835510    24A     -0.803131
      25A     -0.776408    26A     -0.724956    27A     -0.676499
      28A     -0.660995    29A     -0.630776    30A     -0.616575
      31A     -0.594286    32A     -0.580077    33A     -0.574972
      34A     -0.565445    35A     -0.560690    36A     -0.551980
      37A     -0.548724    38A     -0.544791    39A     -0.522857
      40A     -0.508691    41A     -0.433911    42A     -0.423346
      43A     -0.396324    44A     -0.386070    45A     -0.354967
      46A     -0.279824

  @DF-RHF Final Energy:  -548.62688949573146

   => Energetics <=

    Nuclear Repulsion Energy =            741.3507041997455644
    One-Electron Energy =               -2214.8622474939729727
    Two-Electron Energy =                 924.8846537984960605
    Total Energy =                       -548.6268894957314615
  Basis Set: (AUG-CC-PVTZ AUX)
    Blend: AUG-CC-PVTZ-RI
    Molecular point group: c1

    Geometry (in Angstrom), charge = 0, multiplicity = 1:

       Center              X                  Y                   Z               Mass
    ------------   -----------------  -----------------  -----------------  -----------------
         N           -1.610284323398    -0.769708396172    -0.000000915184    14.003074004430
         N           -1.260390323398     1.430570603828     0.000001084816    14.003074004430
         N            0.975715676602    -1.446897396172     0.000003084816    14.003074004430
         C           -0.667066223398     0.252099803828     0.000007184816    12.000000000000
         C            0.747638676602    -0.110291396172     0.000002084816    12.000000000000
         C            1.780443676602     0.854201603828     0.000002084816    12.000000000000
         C           -2.855784323398    -0.198434396172    -0.000008915184    12.000000000000
         C           -2.604532323398     1.165366603828    -0.000005915184    12.000000000000
         C            3.089320676602     0.362809603828    -0.000003915184    12.000000000000
         C            1.516756676602     2.333923603828     0.000003084816    12.000000000000
         C           -4.120838323398    -0.986341396172     0.000003084816    12.000000000000
         C            3.337943676602    -1.008803396172    -0.000002915184    12.000000000000
         C            2.246568676602    -1.874370396172    -0.000000915184    12.000000000000
         H           -1.355086323398    -1.752626396172     0.000006084816     1.007825032230
         H           -3.335296323398     1.965137603828    -0.000013915184     1.007825032230
         H            3.918890676602     1.067937603828    -0.000004915184     1.007825032230
         H            0.929432676602     2.630130603828    -0.871957915184     1.007825032230
         H            0.929437676602     2.630129603828     0.871968084816     1.007825032230
         H            2.465756676602     2.878502603828     0.000002084816     1.007825032230
         H           -4.201603323398    -1.625471396172    -0.885673915184     1.007825032230
         H           -4.201570323398    -1.625487396172     0.885671084816     1.007825032230
         H           -4.973732323398    -0.303559396172     0.000025084816     1.007825032230
         H            4.352684676602    -1.397141396172    -0.000007915184     1.007825032230
         H            2.385074676602    -2.954406396172     0.000001084816     1.007825032230

  Basis Set: AUG-CC-PVTZ
    Blend: AUG-CC-PVTZ
  Basis Set: (AUG-CC-PVTZ AUX)
    Blend: AUG-CC-PVTZ-JKFIT
	 Reference Energy          =    -548.6268894957314615 [Eh]
	 Singles Energy            =      -0.0000000000000000 [Eh]
	 Same-Spin Energy          =      -0.6113408121919752 [Eh]
	 Opposite-Spin Energy      =      -1.8782415703478768 [Eh]
	 Correlation Energy        =      -2.4895823825398518 [Eh]
	 Total Energy              =    -551.1164718782713408 [Eh]

	 ================> DF-SCS-MP2 Energies <==================
	-----------------------------------------------------------
	 SCS Same-Spin Scale       =       0.3333333333333333 [-]
	 SCS Opposite-Spin Scale   =       1.2000000000000000 [-]
	 SCS Same-Spin Energy      =      -0.2037802707306584 [Eh]
	 SCS Opposite-Spin Energy  =      -2.2538898844174522 [Eh]
	 SCS Correlation Energy    =      -2.4576701551481106 [Eh]
	 SCS Total Energy          =    -551.0845596508795552 [Eh]
	-----------------------------------------------------------

  Dipole Moment: [D]
     X:     0.2007      Y:    -1.7070      Z:     0.0000     Total:     1.7188

*** Psi4 exiting successfully. Buy a developer a beer!
