                               Psi4 1.4a3.dev225

  ==> Input File <==

--------------------------------------------------------------------------
#psi4
#
memory 32 gb

molecule  {
0 1
  N       -1.5932770    -0.7762670    -0.0000010
  N       -1.2433830     1.4240120     0.0000010
  N        1.0160153    -1.4492719     0.0000029
  C       -0.6561680     0.2207960     0.0000070
  C        0.7646460    -0.1168500     0.0000020
  C        1.7974510     0.8476430     0.0000020
  C       -2.8387770    -0.2049930    -0.0000090
  C       -2.5875250     1.1588080    -0.0000060
  C        3.1063280     0.3562510    -0.0000040
  C        1.5337640     2.3273650     0.0000030
  C       -4.1038310    -0.9929000     0.0000030
  C        3.3549510    -1.0153620    -0.0000030
  C        2.2635760    -1.8809290    -0.0000010
  H       -1.3380790    -1.7591850     0.0000060
  H       -3.3182890     1.9585790    -0.0000140
  H        3.9358980     1.0613790    -0.0000050
  H        0.9464400     2.6235720    -0.8719580
  H        0.9464450     2.6235710     0.8719680
  H        2.4827640     2.8719440     0.0000020
  H       -4.1845960    -1.6320300    -0.8856740
  H       -4.1845630    -1.6320460     0.8856710
  H       -4.9567250    -0.3101180     0.0000250
  H        4.3696920    -1.4037000    -0.0000080
  H        2.4020820    -2.9609650     0.0000010
units angstrom
no_reorient  #important for SAPT in psi4, default
symmetry c1  #important for SAPT in psi4, default
}

set PROPERTIES_ORIGIN ["COM"]
properties('MP2/aug-cc-pvtz', properties = ['dipole'])
--------------------------------------------------------------------------

    Molecular point group: c1
  Charge       = 0
  Multiplicity = 1
  Basis Set: AUG-CC-PVTZ
    Blend: AUG-CC-PVTZ
  Basis Set: (AUG-CC-PVTZ AUX)
    Blend: AUG-CC-PVTZ-JKFIT

    Orbital Energies [Eh]
    ---------------------

    Doubly Occupied:

       1A    -15.608058     2A    -15.569686     3A    -15.544304
       4A    -11.294023     5A    -11.288898     6A    -11.274609
       7A    -11.265551     8A    -11.255459     9A    -11.252375
      10A    -11.242529    11A    -11.237874    12A    -11.235022
      13A    -11.215190    14A     -1.335431    15A     -1.262445
      16A     -1.160833    17A     -1.098646    18A     -1.073573
      19A     -1.029081    20A     -0.957874    21A     -0.929711
      22A     -0.865272    23A     -0.834833    24A     -0.805358
      25A     -0.779723    26A     -0.728188    27A     -0.678313
      28A     -0.660824    29A     -0.628556    30A     -0.618199
      31A     -0.595190    32A     -0.580079    33A     -0.575659
      34A     -0.565160    35A     -0.561622    36A     -0.552489
      37A     -0.548343    38A     -0.545122    39A     -0.524820
      40A     -0.508463    41A     -0.432295    42A     -0.421076
      43A     -0.394724    44A     -0.385704    45A     -0.356827
      46A     -0.278864

  @DF-RHF Final Energy:  -548.62787173129982

   => Energetics <=

    Nuclear Repulsion Energy =            741.6384361401948127
    One-Electron Energy =               -2215.4188565973745426
    Two-Electron Energy =                 925.1525487258800240
    Total Energy =                       -548.6278717312998197
  Basis Set: (AUG-CC-PVTZ AUX)
    Blend: AUG-CC-PVTZ-RI
    Molecular point group: c1

    Geometry (in Angstrom), charge = 0, multiplicity = 1:

       Center              X                  Y                   Z               Mass
    ------------   -----------------  -----------------  -----------------  -----------------
         N           -1.611745106010    -0.768331396671    -0.000000900162    14.003074004430
         N           -1.261851106010     1.431947603329     0.000001099838    14.003074004430
         N            0.997547193990    -1.441336296671     0.000002999838    14.003074004430
         C           -0.674636106010     0.228731603329     0.000007099838    12.000000000000
         C            0.746177893990    -0.108914396671     0.000002099838    12.000000000000
         C            1.778982893990     0.855578603329     0.000002099838    12.000000000000
         C           -2.857245106010    -0.197057396671    -0.000008900162    12.000000000000
         C           -2.605993106010     1.166743603329    -0.000005900162    12.000000000000
         C            3.087859893990     0.364186603329    -0.000003900162    12.000000000000
         C            1.515295893990     2.335300603329     0.000003099838    12.000000000000
         C           -4.122299106010    -0.984964396671     0.000003099838    12.000000000000
         C            3.336482893990    -1.007426396671    -0.000002900162    12.000000000000
         C            2.245107893990    -1.872993396671    -0.000000900162    12.000000000000
         H           -1.356547106010    -1.751249396671     0.000006099838     1.007825032230
         H           -3.336757106010     1.966514603329    -0.000013900162     1.007825032230
         H            3.917429893990     1.069314603329    -0.000004900162     1.007825032230
         H            0.927971893990     2.631507603329    -0.871957900162     1.007825032230
         H            0.927976893990     2.631506603329     0.871968099838     1.007825032230
         H            2.464295893990     2.879879603329     0.000002099838     1.007825032230
         H           -4.203064106010    -1.624094396671    -0.885673900162     1.007825032230
         H           -4.203031106010    -1.624110396671     0.885671099838     1.007825032230
         H           -4.975193106010    -0.302182396671     0.000025099838     1.007825032230
         H            4.351223893990    -1.395764396671    -0.000007900162     1.007825032230
         H            2.383613893990    -2.953029396671     0.000001099838     1.007825032230

  Basis Set: AUG-CC-PVTZ
    Blend: AUG-CC-PVTZ
  Basis Set: (AUG-CC-PVTZ AUX)
    Blend: AUG-CC-PVTZ-JKFIT
	 Reference Energy          =    -548.6278717312998197 [Eh]
	 Singles Energy            =      -0.0000000000000000 [Eh]
	 Same-Spin Energy          =      -0.6113910912610614 [Eh]
	 Opposite-Spin Energy      =      -1.8778270338940322 [Eh]
	 Correlation Energy        =      -2.4892181251550936 [Eh]
	 Total Energy              =    -551.1170898564548679 [Eh]

	 ================> DF-SCS-MP2 Energies <==================
	-----------------------------------------------------------
	 SCS Same-Spin Scale       =       0.3333333333333333 [-]
	 SCS Opposite-Spin Scale   =       1.2000000000000000 [-]
	 SCS Same-Spin Energy      =      -0.2037970304203538 [Eh]
	 SCS Opposite-Spin Energy  =      -2.2533924406728385 [Eh]
	 SCS Correlation Energy    =      -2.4571894710931921 [Eh]
	 SCS Total Energy          =    -551.0850612023930353 [Eh]
	-----------------------------------------------------------

  Dipole Moment: [D]
     X:     0.0866      Y:    -1.7712      Z:     0.0000     Total:     1.7733

*** Psi4 exiting successfully. Buy a developer a beer!
