                               Psi4 1.4a3.dev225

  ==> Input File <==

--------------------------------------------------------------------------
#psi4
#
memory 32 gb

molecule  {
0 1
  N       -1.5932770    -0.7762670    -0.0000010
  N       -1.2433830     1.4240120     0.0000010
  N        0.9927230    -1.4534560     0.0000030
  C       -0.6561680     0.2207960     0.0000070
  C        0.7646460    -0.1168500     0.0000020
  C        1.7974510     0.8476430     0.0000020
  C       -2.8842244    -0.1841476    -0.0000093
  C       -2.5875250     1.1588080    -0.0000060
  C        3.1063280     0.3562510    -0.0000040
  C        1.5337640     2.3273650     0.0000030
  C       -4.1038310    -0.9929000     0.0000030
  C        3.3549510    -1.0153620    -0.0000030
  C        2.2635760    -1.8809290    -0.0000010
  H       -1.3380790    -1.7591850     0.0000060
  H       -3.3182890     1.9585790    -0.0000140
  H        3.9358980     1.0613790    -0.0000050
  H        0.9464400     2.6235720    -0.8719580
  H        0.9464450     2.6235710     0.8719680
  H        2.4827640     2.8719440     0.0000020
  H       -4.1845960    -1.6320300    -0.8856740
  H       -4.1845630    -1.6320460     0.8856710
  H       -4.9567250    -0.3101180     0.0000250
  H        4.3696920    -1.4037000    -0.0000080
  H        2.4020820    -2.9609650     0.0000010
units angstrom
no_reorient  #important for SAPT in psi4, default
symmetry c1  #important for SAPT in psi4, default
}

set PROPERTIES_ORIGIN ["COM"]
properties('MP2/aug-cc-pvtz', properties = ['dipole'])
--------------------------------------------------------------------------

    Molecular point group: c1
  Charge       = 0
  Multiplicity = 1
  Basis Set: AUG-CC-PVTZ
    Blend: AUG-CC-PVTZ
  Basis Set: (AUG-CC-PVTZ AUX)
    Blend: AUG-CC-PVTZ-JKFIT

    Orbital Energies [Eh]
    ---------------------

    Doubly Occupied:

       1A    -15.602680     2A    -15.573871     3A    -15.541841
       4A    -11.296555     5A    -11.289709     6A    -11.277703
       7A    -11.264741     8A    -11.257072     9A    -11.254136
      10A    -11.244824    11A    -11.236266    12A    -11.235966
      13A    -11.216114    14A     -1.325374    15A     -1.258233
      16A     -1.153271    17A     -1.099356    18A     -1.074663
      19A     -1.033724    20A     -0.957700    21A     -0.931020
      22A     -0.867173    23A     -0.835598    24A     -0.800336
      25A     -0.772375    26A     -0.725927    27A     -0.676582
      28A     -0.661589    29A     -0.627186    30A     -0.614308
      31A     -0.593815    32A     -0.580717    33A     -0.579435
      34A     -0.569421    35A     -0.563072    36A     -0.551005
      37A     -0.548234    38A     -0.536641    39A     -0.522618
      40A     -0.508609    41A     -0.434088    42A     -0.424182
      43A     -0.388922    44A     -0.387397    45A     -0.355971
      46A     -0.283173

  @DF-RHF Final Energy:  -548.62362942136099

   => Energetics <=

    Nuclear Repulsion Energy =            740.6956345941786140
    One-Electron Energy =               -2213.5721390788830831
    Two-Electron Energy =                 924.2528750633435948
    Total Energy =                       -548.6236294213609881
  Basis Set: (AUG-CC-PVTZ AUX)
    Blend: AUG-CC-PVTZ-RI
    Molecular point group: c1

    Geometry (in Angstrom), charge = 0, multiplicity = 1:

       Center              X                  Y                   Z               Mass
    ------------   -----------------  -----------------  -----------------  -----------------
         N           -1.606710118845    -0.769438038741    -0.000000887454    14.003074004430
         N           -1.256816118845     1.430840961259     0.000001112546    14.003074004430
         N            0.979289881155    -1.446627038741     0.000003112546    14.003074004430
         C           -0.669601118845     0.227624961259     0.000007112546    12.000000000000
         C            0.751212881155    -0.110021038741     0.000002112546    12.000000000000
         C            1.784017881155     0.854471961259     0.000002112546    12.000000000000
         C           -2.897657518845    -0.177318638741    -0.000009187454    12.000000000000
         C           -2.600958118845     1.165636961259    -0.000005887454    12.000000000000
         C            3.092894881155     0.363079961259    -0.000003887454    12.000000000000
         C            1.520330881155     2.334193961259     0.000003112546    12.000000000000
         C           -4.117264118845    -0.986071038741     0.000003112546    12.000000000000
         C            3.341517881155    -1.008533038741    -0.000002887454    12.000000000000
         C            2.250142881155    -1.874100038741    -0.000000887454    12.000000000000
         H           -1.351512118845    -1.752356038741     0.000006112546     1.007825032230
         H           -3.331722118845     1.965407961259    -0.000013887454     1.007825032230
         H            3.922464881155     1.068207961259    -0.000004887454     1.007825032230
         H            0.933006881155     2.630400961259    -0.871957887454     1.007825032230
         H            0.933011881155     2.630399961259     0.871968112546     1.007825032230
         H            2.469330881155     2.878772961259     0.000002112546     1.007825032230
         H           -4.198029118845    -1.625201038741    -0.885673887454     1.007825032230
         H           -4.197996118845    -1.625217038741     0.885671112546     1.007825032230
         H           -4.970158118845    -0.303289038741     0.000025112546     1.007825032230
         H            4.356258881155    -1.396871038741    -0.000007887454     1.007825032230
         H            2.388648881155    -2.954136038741     0.000001112546     1.007825032230

  Basis Set: AUG-CC-PVTZ
    Blend: AUG-CC-PVTZ
  Basis Set: (AUG-CC-PVTZ AUX)
    Blend: AUG-CC-PVTZ-JKFIT
	 Reference Energy          =    -548.6236294213609881 [Eh]
	 Singles Energy            =      -0.0000000000000000 [Eh]
	 Same-Spin Energy          =      -0.6114537033333032 [Eh]
	 Opposite-Spin Energy      =      -1.8789541838033914 [Eh]
	 Correlation Energy        =      -2.4904078871366946 [Eh]
	 Total Energy              =    -551.1140373084977000 [Eh]

	 ================> DF-SCS-MP2 Energies <==================
	-----------------------------------------------------------
	 SCS Same-Spin Scale       =       0.3333333333333333 [-]
	 SCS Opposite-Spin Scale   =       1.2000000000000000 [-]
	 SCS Same-Spin Energy      =      -0.2038179011111010 [Eh]
	 SCS Opposite-Spin Energy  =      -2.2547450205640698 [Eh]
	 SCS Correlation Energy    =      -2.4585629216751710 [Eh]
	 SCS Total Energy          =    -551.0821923430361267 [Eh]
	-----------------------------------------------------------

  Dipole Moment: [D]
     X:     0.1838      Y:    -1.7348      Z:     0.0000     Total:     1.7445

*** Psi4 exiting successfully. Buy a developer a beer!
