                               Psi4 1.4a3.dev225

  ==> Input File <==

--------------------------------------------------------------------------
#psi4
#
memory 32 gb

molecule  {
0 1
  N       -1.5932770    -0.7762670    -0.0000010
  N       -1.2433830     1.4240120     0.0000010
  N        0.9927230    -1.4534560     0.0000030
  C       -0.6561680     0.2207960     0.0000070
  C        0.7646460    -0.1168500     0.0000020
  C        1.8107547     0.8502463    -0.0224564
  C       -2.8387770    -0.2049930    -0.0000090
  C       -2.5875250     1.1588080    -0.0000060
  C        3.1063280     0.3562510    -0.0000040
  C        1.5337640     2.3273650     0.0000030
  C       -4.1038310    -0.9929000     0.0000030
  C        3.3549510    -1.0153620    -0.0000030
  C        2.2635760    -1.8809290    -0.0000010
  H       -1.3380790    -1.7591850     0.0000060
  H       -3.3182890     1.9585790    -0.0000140
  H        3.9358980     1.0613790    -0.0000050
  H        0.9464400     2.6235720    -0.8719580
  H        0.9464450     2.6235710     0.8719680
  H        2.4827640     2.8719440     0.0000020
  H       -4.1845960    -1.6320300    -0.8856740
  H       -4.1845630    -1.6320460     0.8856710
  H       -4.9567250    -0.3101180     0.0000250
  H        4.3696920    -1.4037000    -0.0000080
  H        2.4020820    -2.9609650     0.0000010
units angstrom
no_reorient  #important for SAPT in psi4, default
symmetry c1  #important for SAPT in psi4, default
}

set PROPERTIES_ORIGIN ["COM"]
properties('MP2/aug-cc-pvtz', properties = ['dipole'])
--------------------------------------------------------------------------

    Molecular point group: c1
  Charge       = 0
  Multiplicity = 1
  Basis Set: AUG-CC-PVTZ
    Blend: AUG-CC-PVTZ
  Basis Set: (AUG-CC-PVTZ AUX)
    Blend: AUG-CC-PVTZ-JKFIT

    Orbital Energies [Eh]
    ---------------------

    Doubly Occupied:

       1A    -15.607965     2A    -15.572595     3A    -15.544631
       4A    -11.293847     5A    -11.291031     6A    -11.276539
       7A    -11.265862     8A    -11.254624     9A    -11.252497
      10A    -11.242938    11A    -11.238014    12A    -11.235056
      13A    -11.215432    14A     -1.335522    15A     -1.257824
      16A     -1.160926    17A     -1.099748    18A     -1.072433
      19A     -1.028971    20A     -0.956983    21A     -0.929702
      22A     -0.865285    23A     -0.834684    24A     -0.804917
      25A     -0.779442    26A     -0.727242    27A     -0.676541
      28A     -0.660457    29A     -0.629072    30A     -0.618152
      31A     -0.594048    32A     -0.579616    33A     -0.575363
      34A     -0.564706    35A     -0.561709    36A     -0.552755
      37A     -0.547192    38A     -0.544927    39A     -0.522723
      40A     -0.509623    41A     -0.433462    42A     -0.423580
      43A     -0.394777    44A     -0.387313    45A     -0.354738
      46A     -0.279137

  @DF-RHF Final Energy:  -548.62652629074660

   => Energetics <=

    Nuclear Repulsion Energy =            741.2682815669260208
    One-Electron Energy =               -2214.6804198531494876
    Two-Electron Energy =                 924.7856119954769838
    Total Energy =                       -548.6265262907465967
  Basis Set: (AUG-CC-PVTZ AUX)
    Blend: AUG-CC-PVTZ-RI
    Molecular point group: c1

    Geometry (in Angstrom), charge = 0, multiplicity = 1:

       Center              X                  Y                   Z               Mass
    ------------   -----------------  -----------------  -----------------  -----------------
         N           -1.610783096047    -0.768173387399     0.001556042192    14.003074004430
         N           -1.260889096047     1.432105612601     0.001558042192    14.003074004430
         N            0.975216903953    -1.445362387399     0.001560042192    14.003074004430
         C           -0.673674096047     0.228889612601     0.001564042192    12.000000000000
         C            0.747139903953    -0.108756387399     0.001559042192    12.000000000000
         C            1.793248603953     0.858339912601    -0.020899357808    12.000000000000
         C           -2.856283096047    -0.196899387399     0.001548042192    12.000000000000
         C           -2.605031096047     1.166901612601     0.001551042192    12.000000000000
         C            3.088821903953     0.364344612601     0.001553042192    12.000000000000
         C            1.516257903953     2.335458612601     0.001560042192    12.000000000000
         C           -4.121337096047    -0.984806387399     0.001560042192    12.000000000000
         C            3.337444903953    -1.007268387399     0.001554042192    12.000000000000
         C            2.246069903953    -1.872835387399     0.001556042192    12.000000000000
         H           -1.355585096047    -1.751091387399     0.001563042192     1.007825032230
         H           -3.335795096047     1.966672612601     0.001543042192     1.007825032230
         H            3.918391903953     1.069472612601     0.001552042192     1.007825032230
         H            0.928933903953     2.631665612601    -0.870400957808     1.007825032230
         H            0.928938903953     2.631664612601     0.873525042192     1.007825032230
         H            2.465257903953     2.880037612601     0.001559042192     1.007825032230
         H           -4.202102096047    -1.623936387399    -0.884116957808     1.007825032230
         H           -4.202069096047    -1.623952387399     0.887228042192     1.007825032230
         H           -4.974231096047    -0.302024387399     0.001582042192     1.007825032230
         H            4.352185903953    -1.395606387399     0.001549042192     1.007825032230
         H            2.384575903953    -2.952871387399     0.001558042192     1.007825032230

  Basis Set: AUG-CC-PVTZ
    Blend: AUG-CC-PVTZ
  Basis Set: (AUG-CC-PVTZ AUX)
    Blend: AUG-CC-PVTZ-JKFIT
	 Reference Energy          =    -548.6265262907465967 [Eh]
	 Singles Energy            =      -0.0000000000000000 [Eh]
	 Same-Spin Energy          =      -0.6116400872168753 [Eh]
	 Opposite-Spin Energy      =      -1.8785829539028154 [Eh]
	 Correlation Energy        =      -2.4902230411196906 [Eh]
	 Total Energy              =    -551.1167493318662309 [Eh]

	 ================> DF-SCS-MP2 Energies <==================
	-----------------------------------------------------------
	 SCS Same-Spin Scale       =       0.3333333333333333 [-]
	 SCS Opposite-Spin Scale   =       1.2000000000000000 [-]
	 SCS Same-Spin Energy      =      -0.2038800290722918 [Eh]
	 SCS Opposite-Spin Energy  =      -2.2542995446833785 [Eh]
	 SCS Correlation Energy    =      -2.4581795737556704 [Eh]
	 SCS Total Energy          =    -551.0847058645022116 [Eh]
	-----------------------------------------------------------

  Dipole Moment: [D]
     X:     0.1204      Y:    -1.7514      Z:     0.0025     Total:     1.7556

*** Psi4 exiting successfully. Buy a developer a beer!
