                               Psi4 1.4a3.dev225

  ==> Input File <==

--------------------------------------------------------------------------
#psi4
#
memory 32 gb

molecule  {
0 1
  N       -1.5932770    -0.7762670    -0.0000010
  N       -1.2433830     1.4240120     0.0000010
  N        0.9927230    -1.4534560     0.0000030
  C       -0.6561680     0.2207960     0.0000070
  C        0.7479706    -0.0986782     0.0000021
  C        1.7974510     0.8476430     0.0000020
  C       -2.8387770    -0.2049930    -0.0000090
  C       -2.5875250     1.1588080    -0.0000060
  C        3.1063280     0.3562510    -0.0000040
  C        1.5337640     2.3273650     0.0000030
  C       -4.1038310    -0.9929000     0.0000030
  C        3.3549510    -1.0153620    -0.0000030
  C        2.2635760    -1.8809290    -0.0000010
  H       -1.3380790    -1.7591850     0.0000060
  H       -3.3182890     1.9585790    -0.0000140
  H        3.9358980     1.0613790    -0.0000050
  H        0.9464400     2.6235720    -0.8719580
  H        0.9464450     2.6235710     0.8719680
  H        2.4827640     2.8719440     0.0000020
  H       -4.1845960    -1.6320300    -0.8856740
  H       -4.1845630    -1.6320460     0.8856710
  H       -4.9567250    -0.3101180     0.0000250
  H        4.3696920    -1.4037000    -0.0000080
  H        2.4020820    -2.9609650     0.0000010
units angstrom
no_reorient  #important for SAPT in psi4, default
symmetry c1  #important for SAPT in psi4, default
}

set PROPERTIES_ORIGIN ["COM"]
properties('MP2/aug-cc-pvtz', properties = ['dipole'])
--------------------------------------------------------------------------

    Molecular point group: c1
  Charge       = 0
  Multiplicity = 1
  Basis Set: AUG-CC-PVTZ
    Blend: AUG-CC-PVTZ
  Basis Set: (AUG-CC-PVTZ AUX)
    Blend: AUG-CC-PVTZ-JKFIT

    Orbital Energies [Eh]
    ---------------------

    Doubly Occupied:

       1A    -15.608357     2A    -15.572927     3A    -15.544942
       4A    -11.292901     5A    -11.289005     6A    -11.276790
       7A    -11.266504     8A    -11.256280     9A    -11.252628
      10A    -11.243009    11A    -11.238343    12A    -11.235432
      13A    -11.214692    14A     -1.336104    15A     -1.252031
      16A     -1.161488    17A     -1.097040    18A     -1.074778
      19A     -1.029172    20A     -0.958187    21A     -0.929033
      22A     -0.866597    23A     -0.834018    24A     -0.805436
      25A     -0.778376    26A     -0.728896    27A     -0.674694
      28A     -0.660944    29A     -0.630103    30A     -0.618793
      31A     -0.594651    32A     -0.579273    33A     -0.575085
      34A     -0.565616    35A     -0.561766    36A     -0.552792
      37A     -0.547551    38A     -0.545294    39A     -0.520256
      40A     -0.508094    41A     -0.432869    42A     -0.423480
      43A     -0.395266    44A     -0.384969    45A     -0.356572
      46A     -0.277996

  @DF-RHF Final Energy:  -548.62486321532253

   => Energetics <=

    Nuclear Repulsion Energy =            741.3805225435286275
    One-Electron Energy =               -2214.9127154447814974
    Two-Electron Energy =                 924.9073296859304492
    Total Energy =                       -548.6248632153225344
  Basis Set: (AUG-CC-PVTZ AUX)
    Blend: AUG-CC-PVTZ-RI
    Molecular point group: c1

    Geometry (in Angstrom), charge = 0, multiplicity = 1:

       Center              X                  Y                   Z               Mass
    ------------   -----------------  -----------------  -----------------  -----------------
         N           -1.608704765754    -0.769252688818    -0.000000915184    14.003074004430
         N           -1.258810765754     1.431026311182     0.000001084816    14.003074004430
         N            0.977295234246    -1.446441688818     0.000003084816    14.003074004430
         C           -0.671595765754     0.227810311182     0.000007084816    12.000000000000
         C            0.732542834246    -0.091663888818     0.000002184816    12.000000000000
         C            1.782023234246     0.854657311182     0.000002084816    12.000000000000
         C           -2.854204765754    -0.197978688818    -0.000008915184    12.000000000000
         C           -2.602952765754     1.165822311182    -0.000005915184    12.000000000000
         C            3.090900234246     0.363265311182    -0.000003915184    12.000000000000
         C            1.518336234246     2.334379311182     0.000003084816    12.000000000000
         C           -4.119258765754    -0.985885688818     0.000003084816    12.000000000000
         C            3.339523234246    -1.008347688818    -0.000002915184    12.000000000000
         C            2.248148234246    -1.873914688818    -0.000000915184    12.000000000000
         H           -1.353506765754    -1.752170688818     0.000006084816     1.007825032230
         H           -3.333716765754     1.965593311182    -0.000013915184     1.007825032230
         H            3.920470234246     1.068393311182    -0.000004915184     1.007825032230
         H            0.931012234246     2.630586311182    -0.871957915184     1.007825032230
         H            0.931017234246     2.630585311182     0.871968084816     1.007825032230
         H            2.467336234246     2.878958311182     0.000002084816     1.007825032230
         H           -4.200023765754    -1.625015688818    -0.885673915184     1.007825032230
         H           -4.199990765754    -1.625031688818     0.885671084816     1.007825032230
         H           -4.972152765754    -0.303103688818     0.000025084816     1.007825032230
         H            4.354264234246    -1.396685688818    -0.000007915184     1.007825032230
         H            2.386654234246    -2.953950688818     0.000001084816     1.007825032230

  Basis Set: AUG-CC-PVTZ
    Blend: AUG-CC-PVTZ
  Basis Set: (AUG-CC-PVTZ AUX)
    Blend: AUG-CC-PVTZ-JKFIT
	 Reference Energy          =    -548.6248632153225344 [Eh]
	 Singles Energy            =      -0.0000000000000000 [Eh]
	 Same-Spin Energy          =      -0.6121286841269743 [Eh]
	 Opposite-Spin Energy      =      -1.8794426492965495 [Eh]
	 Correlation Energy        =      -2.4915713334235239 [Eh]
	 Total Energy              =    -551.1164345487460423 [Eh]

	 ================> DF-SCS-MP2 Energies <==================
	-----------------------------------------------------------
	 SCS Same-Spin Scale       =       0.3333333333333333 [-]
	 SCS Opposite-Spin Scale   =       1.2000000000000000 [-]
	 SCS Same-Spin Energy      =      -0.2040428947089914 [Eh]
	 SCS Opposite-Spin Energy  =      -2.2553311791558595 [Eh]
	 SCS Correlation Energy    =      -2.4593740738648511 [Eh]
	 SCS Total Energy          =    -551.0842372891873993 [Eh]
	-----------------------------------------------------------

  Dipole Moment: [D]
     X:     0.0508      Y:    -1.7416      Z:     0.0000     Total:     1.7423

*** Psi4 exiting successfully. Buy a developer a beer!
