                               Psi4 1.4a3.dev225

  ==> Input File <==

--------------------------------------------------------------------------
#psi4
#
memory 32 gb

molecule  {
0 1
  N       -1.5932770    -0.7762670    -0.0000010
  N       -1.2433830     1.4240120     0.0000010
  N        0.9927230    -1.4534560     0.0000030
  C       -0.6561680     0.2207960     0.0000070
  C        0.7646460    -0.1168500     0.0000020
  C        1.7974510     0.8476430     0.0000020
  C       -2.8387770    -0.2049930    -0.0000090
  C       -2.5875250     1.1588080    -0.0000060
  C        3.1063280     0.3562510    -0.0000040
  C        1.5337640     2.3273650     0.0000030
  C       -4.1038310    -0.9929000     0.0000030
  C        3.3549510    -1.0153620    -0.0000030
  C        2.2479060    -1.8933568    -0.0000010
  H       -1.3380790    -1.7591850     0.0000060
  H       -3.3182890     1.9585790    -0.0000140
  H        3.9358980     1.0613790    -0.0000050
  H        0.9464400     2.6235720    -0.8719580
  H        0.9464450     2.6235710     0.8719680
  H        2.4827640     2.8719440     0.0000020
  H       -4.1845960    -1.6320300    -0.8856740
  H       -4.1845630    -1.6320460     0.8856710
  H       -4.9567250    -0.3101180     0.0000250
  H        4.3696920    -1.4037000    -0.0000080
  H        2.4020820    -2.9609650     0.0000010
units angstrom
no_reorient  #important for SAPT in psi4, default
symmetry c1  #important for SAPT in psi4, default
}

set PROPERTIES_ORIGIN ["COM"]
properties('MP2/aug-cc-pvtz', properties = ['dipole'])
--------------------------------------------------------------------------

    Molecular point group: c1
  Charge       = 0
  Multiplicity = 1
  Basis Set: AUG-CC-PVTZ
    Blend: AUG-CC-PVTZ
  Basis Set: (AUG-CC-PVTZ AUX)
    Blend: AUG-CC-PVTZ-JKFIT

    Orbital Energies [Eh]
    ---------------------

    Doubly Occupied:

       1A    -15.607252     2A    -15.572261     3A    -15.543579
       4A    -11.293192     5A    -11.288822     6A    -11.278276
       7A    -11.264931     8A    -11.256030     9A    -11.252836
      10A    -11.245361    11A    -11.237492    12A    -11.234432
      13A    -11.215486    14A     -1.334896    15A     -1.259869
      16A     -1.160227    17A     -1.099034    18A     -1.071689
      19A     -1.027869    20A     -0.957596    21A     -0.928794
      22A     -0.863834    23A     -0.836313    24A     -0.804478
      25A     -0.779549    26A     -0.727299    27A     -0.677556
      28A     -0.659401    29A     -0.629155    30A     -0.617713
      31A     -0.596210    32A     -0.579654    33A     -0.575531
      34A     -0.564653    35A     -0.561132    36A     -0.552253
      37A     -0.548371    38A     -0.544747    39A     -0.523010
      40A     -0.509072    41A     -0.432382    42A     -0.422746
      43A     -0.394088    44A     -0.386191    45A     -0.355397
      46A     -0.278029

  @DF-RHF Final Energy:  -548.62674337527210

   => Energetics <=

    Nuclear Repulsion Energy =            741.3001304762113932
    One-Electron Energy =               -2214.7563729597227393
    Two-Electron Energy =                 924.8294991082391334
    Total Energy =                       -548.6267433752720990
  Basis Set: (AUG-CC-PVTZ AUX)
    Blend: AUG-CC-PVTZ-RI
    Molecular point group: c1

    Geometry (in Angstrom), charge = 0, multiplicity = 1:

       Center              X                  Y                   Z               Mass
    ------------   -----------------  -----------------  -----------------  -----------------
         N           -1.608774466088    -0.767131341759    -0.000000908252    14.003074004430
         N           -1.258880466088     1.433147658241     0.000001091748    14.003074004430
         N            0.977225533912    -1.444320341759     0.000003091748    14.003074004430
         C           -0.671665466088     0.229931658241     0.000007091748    12.000000000000
         C            0.749148533912    -0.107714341759     0.000002091748    12.000000000000
         C            1.781953533912     0.856778658241     0.000002091748    12.000000000000
         C           -2.854274466088    -0.195857341759    -0.000008908252    12.000000000000
         C           -2.603022466088     1.167943658241    -0.000005908252    12.000000000000
         C            3.090830533912     0.365386658241    -0.000003908252    12.000000000000
         C            1.518266533912     2.336500658241     0.000003091748    12.000000000000
         C           -4.119328466088    -0.983764341759     0.000003091748    12.000000000000
         C            3.339453533912    -1.006226341759    -0.000002908252    12.000000000000
         C            2.232408533912    -1.884221141759    -0.000000908252    12.000000000000
         H           -1.353576466088    -1.750049341759     0.000006091748     1.007825032230
         H           -3.333786466088     1.967714658241    -0.000013908252     1.007825032230
         H            3.920400533912     1.070514658241    -0.000004908252     1.007825032230
         H            0.930942533912     2.632707658241    -0.871957908252     1.007825032230
         H            0.930947533912     2.632706658241     0.871968091748     1.007825032230
         H            2.467266533912     2.881079658241     0.000002091748     1.007825032230
         H           -4.200093466088    -1.622894341759    -0.885673908252     1.007825032230
         H           -4.200060466088    -1.622910341759     0.885671091748     1.007825032230
         H           -4.972222466088    -0.300982341759     0.000025091748     1.007825032230
         H            4.354194533912    -1.394564341759    -0.000007908252     1.007825032230
         H            2.386584533912    -2.951829341759     0.000001091748     1.007825032230

  Basis Set: AUG-CC-PVTZ
    Blend: AUG-CC-PVTZ
  Basis Set: (AUG-CC-PVTZ AUX)
    Blend: AUG-CC-PVTZ-JKFIT
	 Reference Energy          =    -548.6267433752720990 [Eh]
	 Singles Energy            =      -0.0000000000000000 [Eh]
	 Same-Spin Energy          =      -0.6115453981168689 [Eh]
	 Opposite-Spin Energy      =      -1.8784375553022243 [Eh]
	 Correlation Energy        =      -2.4899829534190934 [Eh]
	 Total Energy              =    -551.1167263286912430 [Eh]

	 ================> DF-SCS-MP2 Energies <==================
	-----------------------------------------------------------
	 SCS Same-Spin Scale       =       0.3333333333333333 [-]
	 SCS Opposite-Spin Scale   =       1.2000000000000000 [-]
	 SCS Same-Spin Energy      =      -0.2038484660389563 [Eh]
	 SCS Opposite-Spin Energy  =      -2.2541250663626693 [Eh]
	 SCS Correlation Energy    =      -2.4579735324016254 [Eh]
	 SCS Total Energy          =    -551.0847169076737373 [Eh]
	-----------------------------------------------------------

  Dipole Moment: [D]
     X:     0.1567      Y:    -1.7866      Z:     0.0000     Total:     1.7934

*** Psi4 exiting successfully. Buy a developer a beer!
