                               Psi4 1.4a3.dev225

  ==> Input File <==

--------------------------------------------------------------------------
#psi4
#
memory 32 gb

molecule  {
0 1
  N       -1.5932770    -0.7762670    -0.0000010
  N       -1.2433830     1.4240120     0.0000010
  N        0.9927230    -1.4534560     0.0000030
  C       -0.6561680     0.2207960     0.0000070
  C        0.7646460    -0.1168500     0.0000020
  C        1.7974510     0.8476430     0.0000020
  C       -2.8387770    -0.2049930    -0.0000090
  C       -2.5875250     1.1588080    -0.0000060
  C        3.1063280     0.3562510    -0.0000040
  C        1.5337640     2.3273650     0.0000030
  C       -4.1038310    -0.9929000     0.0000030
  C        3.3549510    -1.0153620    -0.0000030
  C        2.2161851    -1.8649883    -0.0000009
  H       -1.3380790    -1.7591850     0.0000060
  H       -3.3182890     1.9585790    -0.0000140
  H        3.9358980     1.0613790    -0.0000050
  H        0.9464400     2.6235720    -0.8719580
  H        0.9464450     2.6235710     0.8719680
  H        2.4827640     2.8719440     0.0000020
  H       -4.1845960    -1.6320300    -0.8856740
  H       -4.1845630    -1.6320460     0.8856710
  H       -4.9567250    -0.3101180     0.0000250
  H        4.3696920    -1.4037000    -0.0000080
  H        2.4020820    -2.9609650     0.0000010
units angstrom
no_reorient  #important for SAPT in psi4, default
symmetry c1  #important for SAPT in psi4, default
}

set PROPERTIES_ORIGIN ["COM"]
properties('MP2/aug-cc-pvtz', properties = ['dipole'])
--------------------------------------------------------------------------

    Molecular point group: c1
  Charge       = 0
  Multiplicity = 1
  Basis Set: AUG-CC-PVTZ
    Blend: AUG-CC-PVTZ
  Basis Set: (AUG-CC-PVTZ AUX)
    Blend: AUG-CC-PVTZ-JKFIT

    Orbital Energies [Eh]
    ---------------------

    Doubly Occupied:

       1A    -15.607587     2A    -15.569963     3A    -15.543430
       4A    -11.293239     5A    -11.288402     6A    -11.278137
       7A    -11.264998     8A    -11.256011     9A    -11.252372
      10A    -11.245363    11A    -11.237583    12A    -11.234612
      13A    -11.215388    14A     -1.335396    15A     -1.271574
      16A     -1.160346    17A     -1.102058    18A     -1.071538
      19A     -1.027265    20A     -0.959424    21A     -0.927293
      22A     -0.864406    23A     -0.835636    24A     -0.805191
      25A     -0.778435    26A     -0.727087    27A     -0.678107
      28A     -0.661668    29A     -0.628803    30A     -0.618185
      31A     -0.592931    32A     -0.580917    33A     -0.574915
      34A     -0.563842    35A     -0.560739    36A     -0.552258
      37A     -0.549245    38A     -0.544966    39A     -0.527815
      40A     -0.508741    41A     -0.431571    42A     -0.422227
      43A     -0.394171    44A     -0.387599    45A     -0.357697
      46A     -0.276991

  @DF-RHF Final Energy:  -548.62550098347629

   => Energetics <=

    Nuclear Repulsion Energy =            742.2080444476800949
    One-Electron Energy =               -2216.5348406558941861
    Two-Electron Energy =                 925.7012952247378053
    Total Energy =                       -548.6255009834762859
  Basis Set: (AUG-CC-PVTZ AUX)
    Blend: AUG-CC-PVTZ-RI
    Molecular point group: c1

    Geometry (in Angstrom), charge = 0, multiplicity = 1:

       Center              X                  Y                   Z               Mass
    ------------   -----------------  -----------------  -----------------  -----------------
         N           -1.606575383815    -0.769098015638    -0.000000915184    14.003074004430
         N           -1.256681383815     1.431180984362     0.000001084816    14.003074004430
         N            0.979424616185    -1.446287015638     0.000003084816    14.003074004430
         C           -0.669466383815     0.227964984362     0.000007084816    12.000000000000
         C            0.751347616185    -0.109681015638     0.000002084816    12.000000000000
         C            1.784152616185     0.854811984362     0.000002084816    12.000000000000
         C           -2.852075383815    -0.197824015638    -0.000008915184    12.000000000000
         C           -2.600823383815     1.165976984362    -0.000005915184    12.000000000000
         C            3.093029616185     0.363419984362    -0.000003915184    12.000000000000
         C            1.520465616185     2.334533984362     0.000003084816    12.000000000000
         C           -4.117129383815    -0.985731015638     0.000003084816    12.000000000000
         C            3.341652616185    -1.008193015638    -0.000002915184    12.000000000000
         C            2.202886716185    -1.857819315638    -0.000000815184    12.000000000000
         H           -1.351377383815    -1.752016015638     0.000006084816     1.007825032230
         H           -3.331587383815     1.965747984362    -0.000013915184     1.007825032230
         H            3.922599616185     1.068547984362    -0.000004915184     1.007825032230
         H            0.933141616185     2.630740984362    -0.871957915184     1.007825032230
         H            0.933146616185     2.630739984362     0.871968084816     1.007825032230
         H            2.469465616185     2.879112984362     0.000002084816     1.007825032230
         H           -4.197894383815    -1.624861015638    -0.885673915184     1.007825032230
         H           -4.197861383815    -1.624877015638     0.885671084816     1.007825032230
         H           -4.970023383815    -0.302949015638     0.000025084816     1.007825032230
         H            4.356393616185    -1.396531015638    -0.000007915184     1.007825032230
         H            2.388783616185    -2.953796015638     0.000001084816     1.007825032230

  Basis Set: AUG-CC-PVTZ
    Blend: AUG-CC-PVTZ
  Basis Set: (AUG-CC-PVTZ AUX)
    Blend: AUG-CC-PVTZ-JKFIT
	 Reference Energy          =    -548.6255009834762859 [Eh]
	 Singles Energy            =      -0.0000000000000000 [Eh]
	 Same-Spin Energy          =      -0.6112275574815137 [Eh]
	 Opposite-Spin Energy      =      -1.8776951429967164 [Eh]
	 Correlation Energy        =      -2.4889227004782302 [Eh]
	 Total Energy              =    -551.1144236839545556 [Eh]

	 ================> DF-SCS-MP2 Energies <==================
	-----------------------------------------------------------
	 SCS Same-Spin Scale       =       0.3333333333333333 [-]
	 SCS Opposite-Spin Scale   =       1.2000000000000000 [-]
	 SCS Same-Spin Energy      =      -0.2037425191605046 [Eh]
	 SCS Opposite-Spin Energy  =      -2.2532341715960595 [Eh]
	 SCS Correlation Energy    =      -2.4569766907565640 [Eh]
	 SCS Total Energy          =    -551.0824776742329050 [Eh]
	-----------------------------------------------------------

  Dipole Moment: [D]
     X:     0.1177      Y:    -1.7604      Z:     0.0000     Total:     1.7643

*** Psi4 exiting successfully. Buy a developer a beer!
