                               Psi4 1.4a3.dev225

  ==> Input File <==

--------------------------------------------------------------------------
#psi4
#
memory 32 gb

molecule  {
0 1
  N       -1.5932770    -0.7762670    -0.0000010
  N       -1.2433830     1.4240120     0.0000010
  N        0.9927230    -1.4534560     0.0000030
  C       -0.6561680     0.2207960     0.0000070
  C        0.7646460    -0.1168500     0.0000020
  C        1.7974510     0.8476430     0.0000020
  C       -2.8387770    -0.2049930    -0.0000090
  C       -2.5875250     1.1588080    -0.0000060
  C        3.1063280     0.3562510    -0.0000040
  C        1.5337640     2.3273650     0.0000030
  C       -4.1038310    -0.9929000     0.0000030
  C        3.3549510    -1.0153620    -0.0000030
  C        2.2635760    -1.8809290    -0.0000010
  H       -1.3380790    -1.7591850     0.0000060
  H       -3.3182890     1.9585790    -0.0000140
  H        3.9358980     1.0613790    -0.0000050
  H        0.9464400     2.6235720    -0.8719580
  H        0.9464450     2.6235710     0.8719680
  H        2.4827640     2.8719440     0.0000020
  H       -4.2488868    -1.5946933    -0.9034556
  H       -4.1845630    -1.6320460     0.8856710
  H       -4.9567250    -0.3101180     0.0000250
  H        4.3696920    -1.4037000    -0.0000080
  H        2.4020820    -2.9609650     0.0000010
units angstrom
no_reorient  #important for SAPT in psi4, default
symmetry c1  #important for SAPT in psi4, default
}

set PROPERTIES_ORIGIN ["COM"]
properties('MP2/aug-cc-pvtz', properties = ['dipole'])
--------------------------------------------------------------------------

    Molecular point group: c1
  Charge       = 0
  Multiplicity = 1
  Basis Set: AUG-CC-PVTZ
    Blend: AUG-CC-PVTZ
  Basis Set: (AUG-CC-PVTZ AUX)
    Blend: AUG-CC-PVTZ-JKFIT

    Orbital Energies [Eh]
    ---------------------

    Doubly Occupied:

       1A    -15.607619     2A    -15.572677     3A    -15.544174
       4A    -11.293467     5A    -11.289407     6A    -11.277149
       7A    -11.265581     8A    -11.256343     9A    -11.252723
      10A    -11.243327    11A    -11.237331    12A    -11.235019
      13A    -11.215553    14A     -1.335203    15A     -1.258124
      16A     -1.160580    17A     -1.098611    18A     -1.072987
      19A     -1.028885    20A     -0.956955    21A     -0.929436
      22A     -0.865140    23A     -0.835929    24A     -0.804782
      25A     -0.779047    26A     -0.727717    27A     -0.676242
      28A     -0.661054    29A     -0.628394    30A     -0.618429
      31A     -0.593869    32A     -0.580844    33A     -0.575375
      34A     -0.564821    35A     -0.561233    36A     -0.554119
      37A     -0.548018    38A     -0.540622    39A     -0.522938
      40A     -0.507697    41A     -0.433414    42A     -0.424257
      43A     -0.394556    44A     -0.386555    45A     -0.355210
      46A     -0.279519

  @DF-RHF Final Energy:  -548.62634751859218

   => Energetics <=

    Nuclear Repulsion Energy =            741.3038868241195587
    One-Electron Energy =               -2214.7585986039971431
    Two-Electron Energy =                 924.8283642612852873
    Total Energy =                       -548.6263475185921834
  Basis Set: (AUG-CC-PVTZ AUX)
    Blend: AUG-CC-PVTZ-RI
    Molecular point group: c1

    Geometry (in Angstrom), charge = 0, multiplicity = 1:

       Center              X                  Y                   Z               Mass
    ------------   -----------------  -----------------  -----------------  -----------------
         N           -1.609486479206    -0.768210299210     0.000102622820    14.003074004430
         N           -1.259592479206     1.432068700790     0.000104622820    14.003074004430
         N            0.976513520794    -1.445399299210     0.000106622820    14.003074004430
         C           -0.672377479206     0.228852700790     0.000110622820    12.000000000000
         C            0.748436520794    -0.108793299210     0.000105622820    12.000000000000
         C            1.781241520794     0.855699700790     0.000105622820    12.000000000000
         C           -2.854986479206    -0.196936299210     0.000094622820    12.000000000000
         C           -2.603734479206     1.166864700790     0.000097622820    12.000000000000
         C            3.090118520794     0.364307700790     0.000099622820    12.000000000000
         C            1.517554520794     2.335421700790     0.000106622820    12.000000000000
         C           -4.120040479206    -0.984843299210     0.000106622820    12.000000000000
         C            3.338741520794    -1.007305299210     0.000100622820    12.000000000000
         C            2.247366520794    -1.872872299210     0.000102622820    12.000000000000
         H           -1.354288479206    -1.751128299210     0.000109622820     1.007825032230
         H           -3.334498479206     1.966635700790     0.000089622820     1.007825032230
         H            3.919688520794     1.069435700790     0.000098622820     1.007825032230
         H            0.930230520794     2.631628700790    -0.871854377180     1.007825032230
         H            0.930235520794     2.631627700790     0.872071622820     1.007825032230
         H            2.466554520794     2.880000700790     0.000105622820     1.007825032230
         H           -4.265096279206    -1.586636599210    -0.903351977180     1.007825032230
         H           -4.200772479206    -1.623989299210     0.885774622820     1.007825032230
         H           -4.972934479206    -0.302061299210     0.000128622820     1.007825032230
         H            4.353482520794    -1.395643299210     0.000095622820     1.007825032230
         H            2.385872520794    -2.952908299210     0.000104622820     1.007825032230

  Basis Set: AUG-CC-PVTZ
    Blend: AUG-CC-PVTZ
  Basis Set: (AUG-CC-PVTZ AUX)
    Blend: AUG-CC-PVTZ-JKFIT
	 Reference Energy          =    -548.6263475185921834 [Eh]
	 Singles Energy            =      -0.0000000000000000 [Eh]
	 Same-Spin Energy          =      -0.6116601047132961 [Eh]
	 Opposite-Spin Energy      =      -1.8786282691792113 [Eh]
	 Correlation Energy        =      -2.4902883738925077 [Eh]
	 Total Energy              =    -551.1166358924847373 [Eh]

	 ================> DF-SCS-MP2 Energies <==================
	-----------------------------------------------------------
	 SCS Same-Spin Scale       =       0.3333333333333333 [-]
	 SCS Opposite-Spin Scale   =       1.2000000000000000 [-]
	 SCS Same-Spin Energy      =      -0.2038867015710987 [Eh]
	 SCS Opposite-Spin Energy  =      -2.2543539230150533 [Eh]
	 SCS Correlation Energy    =      -2.4582406245861521 [Eh]
	 SCS Total Energy          =    -551.0845881431782800 [Eh]
	-----------------------------------------------------------

  Dipole Moment: [D]
     X:     0.1515      Y:    -1.7367      Z:    -0.0133     Total:     1.7433

*** Psi4 exiting successfully. Buy a developer a beer!
