                               Psi4 1.4a3.dev225

  ==> Input File <==

--------------------------------------------------------------------------
#psi4
#
memory 32 gb

molecule  {
0 1
  N       -1.5932770    -0.7762670    -0.0000010
  N       -1.2433830     1.4240120     0.0000010
  N        0.9927230    -1.4534560     0.0000030
  C       -0.6561680     0.2207960     0.0000070
  C        0.7646460    -0.1168500     0.0000020
  C        1.7974510     0.8476430     0.0000020
  C       -2.8387770    -0.2049930    -0.0000090
  C       -2.5384707     1.1684866    -0.0000057
  C        3.1063280     0.3562510    -0.0000040
  C        1.5337640     2.3273650     0.0000030
  C       -4.1038310    -0.9929000     0.0000030
  C        3.3549510    -1.0153620    -0.0000030
  C        2.2635760    -1.8809290    -0.0000010
  H       -1.3380790    -1.7591850     0.0000060
  H       -3.3182890     1.9585790    -0.0000140
  H        3.9358980     1.0613790    -0.0000050
  H        0.9464400     2.6235720    -0.8719580
  H        0.9464450     2.6235710     0.8719680
  H        2.4827640     2.8719440     0.0000020
  H       -4.1845960    -1.6320300    -0.8856740
  H       -4.1845630    -1.6320460     0.8856710
  H       -4.9567250    -0.3101180     0.0000250
  H        4.3696920    -1.4037000    -0.0000080
  H        2.4020820    -2.9609650     0.0000010
units angstrom
no_reorient  #important for SAPT in psi4, default
symmetry c1  #important for SAPT in psi4, default
}

set PROPERTIES_ORIGIN ["COM"]
properties('MP2/aug-cc-pvtz', properties = ['dipole'])
--------------------------------------------------------------------------

    Molecular point group: c1
  Charge       = 0
  Multiplicity = 1
  Basis Set: AUG-CC-PVTZ
    Blend: AUG-CC-PVTZ
  Basis Set: (AUG-CC-PVTZ AUX)
    Blend: AUG-CC-PVTZ-JKFIT

    Orbital Energies [Eh]
    ---------------------

    Doubly Occupied:

       1A    -15.611002     2A    -15.571205     3A    -15.543344
       4A    -11.291854     5A    -11.288874     6A    -11.276473
       7A    -11.265415     8A    -11.255622     9A    -11.251469
      10A    -11.241872    11A    -11.239022    12A    -11.236774
      13A    -11.215454    14A     -1.341397    15A     -1.257589
      16A     -1.172973    17A     -1.097975    18A     -1.072142
      19A     -1.027411    20A     -0.956990    21A     -0.928401
      22A     -0.863693    23A     -0.834542    24A     -0.810851
      25A     -0.776381    26A     -0.727904    27A     -0.676275
      28A     -0.660644    29A     -0.628978    30A     -0.619933
      31A     -0.591269    32A     -0.579731    33A     -0.576047
      34A     -0.565505    35A     -0.561400    36A     -0.554055
      37A     -0.548947    38A     -0.544898    39A     -0.522830
      40A     -0.505978    41A     -0.432969    42A     -0.424832
      43A     -0.402439    44A     -0.386345    45A     -0.354533
      46A     -0.273183

  @DF-RHF Final Energy:  -548.62310123956706

   => Energetics <=

    Nuclear Repulsion Energy =            742.1496233534850262
    One-Electron Energy =               -2216.4106088571693363
    Two-Electron Energy =                 925.6378842641173605
    Total Energy =                       -548.6231012395670632
  Basis Set: (AUG-CC-PVTZ AUX)
    Blend: AUG-CC-PVTZ-RI
    Molecular point group: c1

    Geometry (in Angstrom), charge = 0, multiplicity = 1:

       Center              X                  Y                   Z               Mass
    ------------   -----------------  -----------------  -----------------  -----------------
         N           -1.613261541195    -0.768663889460    -0.000000929049    14.003074004430
         N           -1.263367541195     1.431615110540     0.000001070951    14.003074004430
         N            0.972738458805    -1.445852889460     0.000003070951    14.003074004430
         C           -0.676152541195     0.228399110540     0.000007070951    12.000000000000
         C            0.744661458805    -0.109246889460     0.000002070951    12.000000000000
         C            1.777466458805     0.855246110540     0.000002070951    12.000000000000
         C           -2.858761541195    -0.197389889460    -0.000008929049    12.000000000000
         C           -2.558455241195     1.176089710540    -0.000005629049    12.000000000000
         C            3.086343458805     0.363854110540    -0.000003929049    12.000000000000
         C            1.513779458805     2.334968110540     0.000003070951    12.000000000000
         C           -4.123815541195    -0.985296889460     0.000003070951    12.000000000000
         C            3.334966458805    -1.007758889460    -0.000002929049    12.000000000000
         C            2.243591458805    -1.873325889460    -0.000000929049    12.000000000000
         H           -1.358063541195    -1.751581889460     0.000006070951     1.007825032230
         H           -3.338273541195     1.966182110540    -0.000013929049     1.007825032230
         H            3.915913458805     1.068982110540    -0.000004929049     1.007825032230
         H            0.926455458805     2.631175110540    -0.871957929049     1.007825032230
         H            0.926460458805     2.631174110540     0.871968070951     1.007825032230
         H            2.462779458805     2.879547110540     0.000002070951     1.007825032230
         H           -4.204580541195    -1.624426889460    -0.885673929049     1.007825032230
         H           -4.204547541195    -1.624442889460     0.885671070951     1.007825032230
         H           -4.976709541195    -0.302514889460     0.000025070951     1.007825032230
         H            4.349707458805    -1.396096889460    -0.000007929049     1.007825032230
         H            2.382097458805    -2.953361889460     0.000001070951     1.007825032230

  Basis Set: AUG-CC-PVTZ
    Blend: AUG-CC-PVTZ
  Basis Set: (AUG-CC-PVTZ AUX)
    Blend: AUG-CC-PVTZ-JKFIT
	 Reference Energy          =    -548.6231012395670632 [Eh]
	 Singles Energy            =      -0.0000000000000000 [Eh]
	 Same-Spin Energy          =      -0.6124647757137989 [Eh]
	 Opposite-Spin Energy      =      -1.8788963539325345 [Eh]
	 Correlation Energy        =      -2.4913611296463332 [Eh]
	 Total Energy              =    -551.1144623692133564 [Eh]

	 ================> DF-SCS-MP2 Energies <==================
	-----------------------------------------------------------
	 SCS Same-Spin Scale       =       0.3333333333333333 [-]
	 SCS Opposite-Spin Scale   =       1.2000000000000000 [-]
	 SCS Same-Spin Energy      =      -0.2041549252379329 [Eh]
	 SCS Opposite-Spin Energy  =      -2.2546756247190411 [Eh]
	 SCS Correlation Energy    =      -2.4588305499569740 [Eh]
	 SCS Total Energy          =    -551.0819317895239919 [Eh]
	-----------------------------------------------------------

  Dipole Moment: [D]
     X:     0.0678      Y:    -1.7389      Z:     0.0000     Total:     1.7402

*** Psi4 exiting successfully. Buy a developer a beer!
