                               Psi4 1.4a3.dev225

  ==> Input File <==

--------------------------------------------------------------------------
#psi4
#
memory 32 gb

molecule  {
0 1
  N       -1.5932770    -0.7762670    -0.0000010
  N       -1.2433830     1.4240120     0.0000010
  N        1.0854043    -1.4342902     0.0000026
  C       -0.6561680     0.2207960     0.0000070
  C        0.7646460    -0.1168500     0.0000020
  C        1.7974510     0.8476430     0.0000020
  C       -2.8387770    -0.2049930    -0.0000090
  C       -2.5875250     1.1588080    -0.0000060
  C        3.1063280     0.3562510    -0.0000040
  C        1.5337640     2.3273650     0.0000030
  C       -4.1038310    -0.9929000     0.0000030
  C        3.3549510    -1.0153620    -0.0000030
  C        2.2635760    -1.8809290    -0.0000010
  H       -1.3380790    -1.7591850     0.0000060
  H       -3.3182890     1.9585790    -0.0000140
  H        3.9358980     1.0613790    -0.0000050
  H        0.9464400     2.6235720    -0.8719580
  H        0.9464450     2.6235710     0.8719680
  H        2.4827640     2.8719440     0.0000020
  H       -4.1845960    -1.6320300    -0.8856740
  H       -4.1845630    -1.6320460     0.8856710
  H       -4.9567250    -0.3101180     0.0000250
  H        4.3696920    -1.4037000    -0.0000080
  H        2.4020820    -2.9609650     0.0000010
units angstrom
no_reorient  #important for SAPT in psi4, default
symmetry c1  #important for SAPT in psi4, default
}

set PROPERTIES_ORIGIN ["COM"]
properties('MP2/aug-cc-pvtz', properties = ['dipole'])
--------------------------------------------------------------------------

    Molecular point group: c1
  Charge       = 0
  Multiplicity = 1
  Basis Set: AUG-CC-PVTZ
    Blend: AUG-CC-PVTZ
  Basis Set: (AUG-CC-PVTZ AUX)
    Blend: AUG-CC-PVTZ-JKFIT

    Orbital Energies [Eh]
    ---------------------

    Doubly Occupied:

       1A    -15.609477     2A    -15.560429     3A    -15.544926
       4A    -11.296079     5A    -11.287757     6A    -11.266792
       7A    -11.266157     8A    -11.252973     9A    -11.251516
      10A    -11.240288    11A    -11.238372    12A    -11.235992
      13A    -11.214284    14A     -1.336354    15A     -1.276948
      16A     -1.161681    17A     -1.100147    18A     -1.074111
      19A     -1.029002    20A     -0.960667    21A     -0.930878
      22A     -0.865972    23A     -0.831287    24A     -0.807155
      25A     -0.782555    26A     -0.731190    27A     -0.684742
      28A     -0.660754    29A     -0.627624    30A     -0.619123
      31A     -0.598326    32A     -0.581639    33A     -0.576896
      34A     -0.566535    35A     -0.562290    36A     -0.552669
      37A     -0.547596    38A     -0.545638    39A     -0.531364
      40A     -0.510377    41A     -0.431519    42A     -0.407929
      43A     -0.395656    44A     -0.383855    45A     -0.361691
      46A     -0.277822

  @DF-RHF Final Energy:  -548.62359270149113

   => Energetics <=

    Nuclear Repulsion Energy =            742.4669123529947683
    One-Electron Energy =               -2217.0269390319704144
    Two-Electron Energy =                 925.9364339774845121
    Total Energy =                       -548.6235927014911340
  Basis Set: (AUG-CC-PVTZ AUX)
    Blend: AUG-CC-PVTZ-RI
    Molecular point group: c1

    Geometry (in Angstrom), charge = 0, multiplicity = 1:

       Center              X                  Y                   Z               Mass
    ------------   -----------------  -----------------  -----------------  -----------------
         N           -1.617358541596    -0.769543387159    -0.000000875892    14.003074004430
         N           -1.267464541596     1.430735612841     0.000001124108    14.003074004430
         N            1.061322758404    -1.427566587159     0.000002724108    14.003074004430
         C           -0.680249541596     0.227519612841     0.000007124108    12.000000000000
         C            0.740564458404    -0.110126387159     0.000002124108    12.000000000000
         C            1.773369458404     0.854366612841     0.000002124108    12.000000000000
         C           -2.862858541596    -0.198269387159    -0.000008875892    12.000000000000
         C           -2.611606541596     1.165531612841    -0.000005875892    12.000000000000
         C            3.082246458404     0.362974612841    -0.000003875892    12.000000000000
         C            1.509682458404     2.334088612841     0.000003124108    12.000000000000
         C           -4.127912541596    -0.986176387159     0.000003124108    12.000000000000
         C            3.330869458404    -1.008638387159    -0.000002875892    12.000000000000
         C            2.239494458404    -1.874205387159    -0.000000875892    12.000000000000
         H           -1.362160541596    -1.752461387159     0.000006124108     1.007825032230
         H           -3.342370541596     1.965302612841    -0.000013875892     1.007825032230
         H            3.911816458404     1.068102612841    -0.000004875892     1.007825032230
         H            0.922358458404     2.630295612841    -0.871957875892     1.007825032230
         H            0.922363458404     2.630294612841     0.871968124108     1.007825032230
         H            2.458682458404     2.878667612841     0.000002124108     1.007825032230
         H           -4.208677541596    -1.625306387159    -0.885673875892     1.007825032230
         H           -4.208644541596    -1.625322387159     0.885671124108     1.007825032230
         H           -4.980806541596    -0.303394387159     0.000025124108     1.007825032230
         H            4.345610458404    -1.396976387159    -0.000007875892     1.007825032230
         H            2.378000458404    -2.954241387159     0.000001124108     1.007825032230

  Basis Set: AUG-CC-PVTZ
    Blend: AUG-CC-PVTZ
  Basis Set: (AUG-CC-PVTZ AUX)
    Blend: AUG-CC-PVTZ-JKFIT
	 Reference Energy          =    -548.6235927014911340 [Eh]
	 Singles Energy            =      -0.0000000000000000 [Eh]
	 Same-Spin Energy          =      -0.6107835277311875 [Eh]
	 Opposite-Spin Energy      =      -1.8759403030358972 [Eh]
	 Correlation Energy        =      -2.4867238307670849 [Eh]
	 Total Energy              =    -551.1103165322582527 [Eh]

	 ================> DF-SCS-MP2 Energies <==================
	-----------------------------------------------------------
	 SCS Same-Spin Scale       =       0.3333333333333333 [-]
	 SCS Opposite-Spin Scale   =       1.2000000000000000 [-]
	 SCS Same-Spin Energy      =      -0.2035945092437292 [Eh]
	 SCS Opposite-Spin Energy  =      -2.2511283636430766 [Eh]
	 SCS Correlation Energy    =      -2.4547228728868058 [Eh]
	 SCS Total Energy          =    -551.0783155743779389 [Eh]
	-----------------------------------------------------------

  Dipole Moment: [D]
     X:    -0.1415      Y:    -1.8235      Z:     0.0000     Total:     1.8290

*** Psi4 exiting successfully. Buy a developer a beer!
