                               Psi4 1.4a3.dev225

  ==> Input File <==

--------------------------------------------------------------------------
#psi4
#
memory 32 gb

molecule  {
0 1
  N       -1.5932770    -0.7762670    -0.0000010
  N       -1.2433830     1.4240120     0.0000010
  N        0.9927230    -1.4534560     0.0000030
  C       -0.6618443     0.1959480     0.0000069
  C        0.7646460    -0.1168500     0.0000020
  C        1.7974510     0.8476430     0.0000020
  C       -2.8387770    -0.2049930    -0.0000090
  C       -2.5875250     1.1588080    -0.0000060
  C        3.1063280     0.3562510    -0.0000040
  C        1.5337640     2.3273650     0.0000030
  C       -4.1038310    -0.9929000     0.0000030
  C        3.3549510    -1.0153620    -0.0000030
  C        2.2635760    -1.8809290    -0.0000010
  H       -1.3380790    -1.7591850     0.0000060
  H       -3.3182890     1.9585790    -0.0000140
  H        3.9358980     1.0613790    -0.0000050
  H        0.9464400     2.6235720    -0.8719580
  H        0.9464450     2.6235710     0.8719680
  H        2.4827640     2.8719440     0.0000020
  H       -4.1845960    -1.6320300    -0.8856740
  H       -4.1845630    -1.6320460     0.8856710
  H       -4.9567250    -0.3101180     0.0000250
  H        4.3696920    -1.4037000    -0.0000080
  H        2.4020820    -2.9609650     0.0000010
units angstrom
no_reorient  #important for SAPT in psi4, default
symmetry c1  #important for SAPT in psi4, default
}

set PROPERTIES_ORIGIN ["COM"]
properties('MP2/aug-cc-pvtz', properties = ['dipole'])
--------------------------------------------------------------------------

    Molecular point group: c1
  Charge       = 0
  Multiplicity = 1
  Basis Set: AUG-CC-PVTZ
    Blend: AUG-CC-PVTZ
  Basis Set: (AUG-CC-PVTZ AUX)
    Blend: AUG-CC-PVTZ-JKFIT

    Orbital Energies [Eh]
    ---------------------

    Doubly Occupied:

       1A    -15.610432     2A    -15.572454     3A    -15.543419
       4A    -11.293201     5A    -11.289446     6A    -11.277012
       7A    -11.263812     8A    -11.256496     9A    -11.253088
      10A    -11.243323    11A    -11.237431    12A    -11.235491
      13A    -11.215064    14A     -1.338505    15A     -1.258351
      16A     -1.158111    17A     -1.098562    18A     -1.073553
      19A     -1.030020    20A     -0.956625    21A     -0.928188
      22A     -0.864109    23A     -0.836273    24A     -0.806543
      25A     -0.781295    26A     -0.729343    27A     -0.676070
      28A     -0.660776    29A     -0.627091    30A     -0.619413
      31A     -0.594167    32A     -0.579368    33A     -0.575479
      34A     -0.566131    35A     -0.559751    36A     -0.552964
      37A     -0.548255    38A     -0.544550    39A     -0.522813
      40A     -0.506453    41A     -0.432643    42A     -0.424958
      43A     -0.392778    44A     -0.386953    45A     -0.355166
      46A     -0.278436

  @DF-RHF Final Energy:  -548.62548350877546

   => Energetics <=

    Nuclear Repulsion Energy =            741.4349604468568486
    One-Electron Energy =               -2215.0121571628515085
    Two-Electron Energy =                 924.9517132072191998
    Total Energy =                       -548.6254835087754600
  Basis Set: (AUG-CC-PVTZ AUX)
    Blend: AUG-CC-PVTZ-RI
    Molecular point group: c1

    Geometry (in Angstrom), charge = 0, multiplicity = 1:

       Center              X                  Y                   Z               Mass
    ------------   -----------------  -----------------  -----------------  -----------------
         N           -1.609467289070    -0.766270299303    -0.000000901319    14.003074004430
         N           -1.259573289070     1.434008700697     0.000001098681    14.003074004430
         N            0.976532710930    -1.443459299303     0.000003098681    14.003074004430
         C           -0.678034589070     0.205944700697     0.000006998681    12.000000000000
         C            0.748455710930    -0.106853299303     0.000002098681    12.000000000000
         C            1.781260710930     0.857639700697     0.000002098681    12.000000000000
         C           -2.854967289070    -0.194996299303    -0.000008901319    12.000000000000
         C           -2.603715289070     1.168804700697    -0.000005901319    12.000000000000
         C            3.090137710930     0.366247700697    -0.000003901319    12.000000000000
         C            1.517573710930     2.337361700697     0.000003098681    12.000000000000
         C           -4.120021289070    -0.982903299303     0.000003098681    12.000000000000
         C            3.338760710930    -1.005365299303    -0.000002901319    12.000000000000
         C            2.247385710930    -1.870932299303    -0.000000901319    12.000000000000
         H           -1.354269289070    -1.749188299303     0.000006098681     1.007825032230
         H           -3.334479289070     1.968575700697    -0.000013901319     1.007825032230
         H            3.919707710930     1.071375700697    -0.000004901319     1.007825032230
         H            0.930249710930     2.633568700697    -0.871957901319     1.007825032230
         H            0.930254710930     2.633567700697     0.871968098681     1.007825032230
         H            2.466573710930     2.881940700697     0.000002098681     1.007825032230
         H           -4.200786289070    -1.622033299303    -0.885673901319     1.007825032230
         H           -4.200753289070    -1.622049299303     0.885671098681     1.007825032230
         H           -4.972915289070    -0.300121299303     0.000025098681     1.007825032230
         H            4.353501710930    -1.393703299303    -0.000007901319     1.007825032230
         H            2.385891710930    -2.950968299303     0.000001098681     1.007825032230

  Basis Set: AUG-CC-PVTZ
    Blend: AUG-CC-PVTZ
  Basis Set: (AUG-CC-PVTZ AUX)
    Blend: AUG-CC-PVTZ-JKFIT
	 Reference Energy          =    -548.6254835087754600 [Eh]
	 Singles Energy            =      -0.0000000000000000 [Eh]
	 Same-Spin Energy          =      -0.6119208979506836 [Eh]
	 Opposite-Spin Energy      =      -1.8789907618487904 [Eh]
	 Correlation Energy        =      -2.4909116597994743 [Eh]
	 Total Energy              =    -551.1163951685749680 [Eh]

	 ================> DF-SCS-MP2 Energies <==================
	-----------------------------------------------------------
	 SCS Same-Spin Scale       =       0.3333333333333333 [-]
	 SCS Opposite-Spin Scale   =       1.2000000000000000 [-]
	 SCS Same-Spin Energy      =      -0.2039736326502279 [Eh]
	 SCS Opposite-Spin Energy  =      -2.2547889142185484 [Eh]
	 SCS Correlation Energy    =      -2.4587625468687762 [Eh]
	 SCS Total Energy          =    -551.0842460556442575 [Eh]
	-----------------------------------------------------------

  Dipole Moment: [D]
     X:     0.1173      Y:    -1.7982      Z:     0.0000     Total:     1.8020

*** Psi4 exiting successfully. Buy a developer a beer!
