                               Psi4 1.4a3.dev225

  ==> Input File <==

--------------------------------------------------------------------------
#psi4
#
memory 32 gb

molecule  {
0 1
  N       -1.5932770    -0.7762670    -0.0000010
  N       -1.2433830     1.4240120     0.0000010
  N        0.9927230    -1.4534560     0.0000030
  C       -0.6561680     0.2207960     0.0000070
  C        0.7646460    -0.1168500     0.0000020
  C        1.7974510     0.8476430     0.0000020
  C       -2.8387770    -0.2049930    -0.0000090
  C       -2.6365793     1.1491294    -0.0000063
  C        3.1063280     0.3562510    -0.0000040
  C        1.5337640     2.3273650     0.0000030
  C       -4.1038310    -0.9929000     0.0000030
  C        3.3549510    -1.0153620    -0.0000030
  C        2.2635760    -1.8809290    -0.0000010
  H       -1.3380790    -1.7591850     0.0000060
  H       -3.3182890     1.9585790    -0.0000140
  H        3.9358980     1.0613790    -0.0000050
  H        0.9464400     2.6235720    -0.8719580
  H        0.9464450     2.6235710     0.8719680
  H        2.4827640     2.8719440     0.0000020
  H       -4.1845960    -1.6320300    -0.8856740
  H       -4.1845630    -1.6320460     0.8856710
  H       -4.9567250    -0.3101180     0.0000250
  H        4.3696920    -1.4037000    -0.0000080
  H        2.4020820    -2.9609650     0.0000010
units angstrom
no_reorient  #important for SAPT in psi4, default
symmetry c1  #important for SAPT in psi4, default
}

set PROPERTIES_ORIGIN ["COM"]
properties('MP2/aug-cc-pvtz', properties = ['dipole'])
--------------------------------------------------------------------------

    Molecular point group: c1
  Charge       = 0
  Multiplicity = 1
  Basis Set: AUG-CC-PVTZ
    Blend: AUG-CC-PVTZ
  Basis Set: (AUG-CC-PVTZ AUX)
    Blend: AUG-CC-PVTZ-JKFIT

    Orbital Energies [Eh]
    ---------------------

    Doubly Occupied:

       1A    -15.604591     2A    -15.573864     3A    -15.544539
       4A    -11.294695     5A    -11.289798     6A    -11.277674
       7A    -11.265575     8A    -11.256886     9A    -11.253691
      10A    -11.244479    11A    -11.236449    12A    -11.233039
      13A    -11.215530    14A     -1.330134    15A     -1.258511
      16A     -1.149641    17A     -1.098990    18A     -1.073762
      19A     -1.030945    20A     -0.956758    21A     -0.930248
      22A     -0.866573    23A     -0.837059    24A     -0.799690
      25A     -0.781166    26A     -0.726513    27A     -0.676225
      28A     -0.660972    29A     -0.630000    30A     -0.616340
      31A     -0.598159    32A     -0.579721    33A     -0.575206
      34A     -0.567703    35A     -0.556221    36A     -0.551060
      37A     -0.547751    38A     -0.544320    39A     -0.522761
      40A     -0.508788    41A     -0.432987    42A     -0.422203
      43A     -0.390687    44A     -0.383689    45A     -0.355494
      46A     -0.285086

  @DF-RHF Final Energy:  -548.62504726534985

   => Energetics <=

    Nuclear Repulsion Energy =            740.6696000894759209
    One-Electron Energy =               -2213.5169590234854695
    Two-Electron Energy =                 924.2223116686598132
    Total Energy =                       -548.6250472653498491
  Basis Set: (AUG-CC-PVTZ AUX)
    Blend: AUG-CC-PVTZ-RI
    Molecular point group: c1

    Geometry (in Angstrom), charge = 0, multiplicity = 1:

       Center              X                  Y                   Z               Mass
    ------------   -----------------  -----------------  -----------------  -----------------
         N           -1.606460066991    -0.767321932725    -0.000000887454    14.003074004430
         N           -1.256566066991     1.432957067275     0.000001112546    14.003074004430
         N            0.979539933009    -1.444510932725     0.000003112546    14.003074004430
         C           -0.669351066991     0.229741067275     0.000007112546    12.000000000000
         C            0.751462933009    -0.107904932725     0.000002112546    12.000000000000
         C            1.784267933009     0.856588067275     0.000002112546    12.000000000000
         C           -2.851960066991    -0.196047932725    -0.000008887454    12.000000000000
         C           -2.649762366991     1.158074467275    -0.000006187454    12.000000000000
         C            3.093144933009     0.365196067275    -0.000003887454    12.000000000000
         C            1.520580933009     2.336310067275     0.000003112546    12.000000000000
         C           -4.117014066991    -0.983954932725     0.000003112546    12.000000000000
         C            3.341767933009    -1.006416932725    -0.000002887454    12.000000000000
         C            2.250392933009    -1.871983932725    -0.000000887454    12.000000000000
         H           -1.351262066991    -1.750239932725     0.000006112546     1.007825032230
         H           -3.331472066991     1.967524067275    -0.000013887454     1.007825032230
         H            3.922714933009     1.070324067275    -0.000004887454     1.007825032230
         H            0.933256933009     2.632517067275    -0.871957887454     1.007825032230
         H            0.933261933009     2.632516067275     0.871968112546     1.007825032230
         H            2.469580933009     2.880889067275     0.000002112546     1.007825032230
         H           -4.197779066991    -1.623084932725    -0.885673887454     1.007825032230
         H           -4.197746066991    -1.623100932725     0.885671112546     1.007825032230
         H           -4.969908066991    -0.301172932725     0.000025112546     1.007825032230
         H            4.356508933009    -1.394754932725    -0.000007887454     1.007825032230
         H            2.388898933009    -2.952019932725     0.000001112546     1.007825032230

  Basis Set: AUG-CC-PVTZ
    Blend: AUG-CC-PVTZ
  Basis Set: (AUG-CC-PVTZ AUX)
    Blend: AUG-CC-PVTZ-JKFIT
	 Reference Energy          =    -548.6250472653498491 [Eh]
	 Singles Energy            =      -0.0000000000000000 [Eh]
	 Same-Spin Energy          =      -0.6108864685827193 [Eh]
	 Opposite-Spin Energy      =      -1.8785949591471371 [Eh]
	 Correlation Energy        =      -2.4894814277298565 [Eh]
	 Total Energy              =    -551.1145286930797056 [Eh]

	 ================> DF-SCS-MP2 Energies <==================
	-----------------------------------------------------------
	 SCS Same-Spin Scale       =       0.3333333333333333 [-]
	 SCS Opposite-Spin Scale   =       1.2000000000000000 [-]
	 SCS Same-Spin Energy      =      -0.2036288228609064 [Eh]
	 SCS Opposite-Spin Energy  =      -2.2543139509765644 [Eh]
	 SCS Correlation Energy    =      -2.4579427738374706 [Eh]
	 SCS Total Energy          =    -551.0829900391872798 [Eh]
	-----------------------------------------------------------

  Dipole Moment: [D]
     X:     0.2504      Y:    -1.7611      Z:     0.0000     Total:     1.7788

*** Psi4 exiting successfully. Buy a developer a beer!
