                               Psi4 1.4a3.dev225

  ==> Input File <==

--------------------------------------------------------------------------
#psi4
#
memory 32 gb

molecule  {
0 1
  N       -1.5932770    -0.7762670    -0.0000010
  N       -1.2433830     1.4240120     0.0000010
  N        0.9927230    -1.4534560     0.0000030
  C       -0.6561680     0.2207960     0.0000070
  C        0.7680102    -0.1365650     0.0000020
  C        1.7974510     0.8476430     0.0000020
  C       -2.8387770    -0.2049930    -0.0000090
  C       -2.5875250     1.1588080    -0.0000060
  C        3.1063280     0.3562510    -0.0000040
  C        1.5337640     2.3273650     0.0000030
  C       -4.1038310    -0.9929000     0.0000030
  C        3.3549510    -1.0153620    -0.0000030
  C        2.2635760    -1.8809290    -0.0000010
  H       -1.3380790    -1.7591850     0.0000060
  H       -3.3182890     1.9585790    -0.0000140
  H        3.9358980     1.0613790    -0.0000050
  H        0.9464400     2.6235720    -0.8719580
  H        0.9464450     2.6235710     0.8719680
  H        2.4827640     2.8719440     0.0000020
  H       -4.1845960    -1.6320300    -0.8856740
  H       -4.1845630    -1.6320460     0.8856710
  H       -4.9567250    -0.3101180     0.0000250
  H        4.3696920    -1.4037000    -0.0000080
  H        2.4020820    -2.9609650     0.0000010
units angstrom
no_reorient  #important for SAPT in psi4, default
symmetry c1  #important for SAPT in psi4, default
}

set PROPERTIES_ORIGIN ["COM"]
properties('MP2/aug-cc-pvtz', properties = ['dipole'])
--------------------------------------------------------------------------

    Molecular point group: c1
  Charge       = 0
  Multiplicity = 1
  Basis Set: AUG-CC-PVTZ
    Blend: AUG-CC-PVTZ
  Basis Set: (AUG-CC-PVTZ AUX)
    Blend: AUG-CC-PVTZ-JKFIT

    Orbital Energies [Eh]
    ---------------------

    Doubly Occupied:

       1A    -15.607135     2A    -15.571838     3A    -15.544104
       4A    -11.293437     5A    -11.289945     6A    -11.276909
       7A    -11.264968     8A    -11.255693     9A    -11.253612
      10A    -11.243297    11A    -11.237508    12A    -11.234584
      13A    -11.215990    14A     -1.335055    15A     -1.263241
      16A     -1.160279    17A     -1.098898    18A     -1.072141
      19A     -1.029009    20A     -0.956627    21A     -0.929625
      22A     -0.863871    23A     -0.836542    24A     -0.804333
      25A     -0.779770    26A     -0.726486    27A     -0.677819
      28A     -0.659805    29A     -0.628596    30A     -0.617738
      31A     -0.593786    32A     -0.579966    33A     -0.575255
      34A     -0.564822    35A     -0.561103    36A     -0.552394
      37A     -0.549223    38A     -0.544665    39A     -0.524766
      40A     -0.507948    41A     -0.433877    42A     -0.423357
      43A     -0.394315    44A     -0.388299    45A     -0.353046
      46A     -0.279674

  @DF-RHF Final Energy:  -548.62737956619117

   => Energetics <=

    Nuclear Repulsion Energy =            741.4208639418342273
    One-Electron Energy =               -2214.9857833705736994
    Two-Electron Energy =                 924.9375398625481921
    Total Energy =                       -548.6273795661911663
  Basis Set: (AUG-CC-PVTZ AUX)
    Blend: AUG-CC-PVTZ-RI
    Molecular point group: c1

    Geometry (in Angstrom), charge = 0, multiplicity = 1:

       Center              X                  Y                   Z               Mass
    ------------   -----------------  -----------------  -----------------  -----------------
         N           -1.610094030533    -0.766626149525    -0.000000908252    14.003074004430
         N           -1.260200030533     1.433652850475     0.000001091748    14.003074004430
         N            0.975905969467    -1.443815149525     0.000003091748    14.003074004430
         C           -0.672985030533     0.230436850475     0.000007091748    12.000000000000
         C            0.751193169467    -0.126924149525     0.000002091748    12.000000000000
         C            1.780633969467     0.857283850475     0.000002091748    12.000000000000
         C           -2.855594030533    -0.195352149525    -0.000008908252    12.000000000000
         C           -2.604342030533     1.168448850475    -0.000005908252    12.000000000000
         C            3.089510969467     0.365891850475    -0.000003908252    12.000000000000
         C            1.516946969467     2.337005850475     0.000003091748    12.000000000000
         C           -4.120648030533    -0.983259149525     0.000003091748    12.000000000000
         C            3.338133969467    -1.005721149525    -0.000002908252    12.000000000000
         C            2.246758969467    -1.871288149525    -0.000000908252    12.000000000000
         H           -1.354896030533    -1.749544149525     0.000006091748     1.007825032230
         H           -3.335106030533     1.968219850475    -0.000013908252     1.007825032230
         H            3.919080969467     1.071019850475    -0.000004908252     1.007825032230
         H            0.929622969467     2.633212850475    -0.871957908252     1.007825032230
         H            0.929627969467     2.633211850475     0.871968091748     1.007825032230
         H            2.465946969467     2.881584850475     0.000002091748     1.007825032230
         H           -4.201413030533    -1.622389149525    -0.885673908252     1.007825032230
         H           -4.201380030533    -1.622405149525     0.885671091748     1.007825032230
         H           -4.973542030533    -0.300477149525     0.000025091748     1.007825032230
         H            4.352874969467    -1.394059149525    -0.000007908252     1.007825032230
         H            2.385264969467    -2.951324149525     0.000001091748     1.007825032230

  Basis Set: AUG-CC-PVTZ
    Blend: AUG-CC-PVTZ
  Basis Set: (AUG-CC-PVTZ AUX)
    Blend: AUG-CC-PVTZ-JKFIT
	 Reference Energy          =    -548.6273795661911663 [Eh]
	 Singles Energy            =      -0.0000000000000000 [Eh]
	 Same-Spin Energy          =      -0.6113492396658988 [Eh]
	 Opposite-Spin Energy      =      -1.8780798984192206 [Eh]
	 Correlation Energy        =      -2.4894291380851197 [Eh]
	 Total Energy              =    -551.1168087042763091 [Eh]

	 ================> DF-SCS-MP2 Energies <==================
	-----------------------------------------------------------
	 SCS Same-Spin Scale       =       0.3333333333333333 [-]
	 SCS Opposite-Spin Scale   =       1.2000000000000000 [-]
	 SCS Same-Spin Energy      =      -0.2037830798886329 [Eh]
	 SCS Opposite-Spin Energy  =      -2.2536958781030645 [Eh]
	 SCS Correlation Energy    =      -2.4574789579916976 [Eh]
	 SCS Total Energy          =    -551.0848585241828914 [Eh]
	-----------------------------------------------------------

  Dipole Moment: [D]
     X:     0.1824      Y:    -1.7554      Z:     0.0000     Total:     1.7648

*** Psi4 exiting successfully. Buy a developer a beer!
