                               Psi4 1.4a3.dev225

  ==> Input File <==

--------------------------------------------------------------------------
#psi4
#
memory 32 gb

molecule  {
0 1
  N       -1.5932770    -0.7762670    -0.0000010
  N       -1.2433830     1.4240120     0.0000010
  N        0.9927230    -1.4534560     0.0000030
  C       -0.6561680     0.2207960     0.0000070
  C        0.7646460    -0.1168500     0.0000020
  C        1.7974510     0.8476430     0.0000020
  C       -2.8387770    -0.2049930    -0.0000090
  C       -2.5875250     1.1588080    -0.0000060
  C        3.1063280     0.3562510    -0.0000040
  C        1.5337640     2.3273650     0.0000030
  C       -4.1038310    -0.9929000     0.0000030
  C        3.3549510    -1.0153620    -0.0000030
  C        2.3419260    -1.8187898    -0.0000011
  H       -1.3380790    -1.7591850     0.0000060
  H       -3.3182890     1.9585790    -0.0000140
  H        3.9358980     1.0613790    -0.0000050
  H        0.9464400     2.6235720    -0.8719580
  H        0.9464450     2.6235710     0.8719680
  H        2.4827640     2.8719440     0.0000020
  H       -4.1845960    -1.6320300    -0.8856740
  H       -4.1845630    -1.6320460     0.8856710
  H       -4.9567250    -0.3101180     0.0000250
  H        4.3696920    -1.4037000    -0.0000080
  H        2.4020820    -2.9609650     0.0000010
units angstrom
no_reorient  #important for SAPT in psi4, default
symmetry c1  #important for SAPT in psi4, default
}

set PROPERTIES_ORIGIN ["COM"]
properties('MP2/aug-cc-pvtz', properties = ['dipole'])
--------------------------------------------------------------------------

    Molecular point group: c1
  Charge       = 0
  Multiplicity = 1
  Basis Set: AUG-CC-PVTZ
    Blend: AUG-CC-PVTZ
  Basis Set: (AUG-CC-PVTZ AUX)
    Blend: AUG-CC-PVTZ-JKFIT

    Orbital Energies [Eh]
    ---------------------

    Doubly Occupied:

       1A    -15.608973     2A    -15.574337     3A    -15.546384
       4A    -11.294137     5A    -11.292017     6A    -11.270119
       7A    -11.267207     8A    -11.257461     9A    -11.252127
      10A    -11.238695    11A    -11.235850    12A    -11.230921
      13A    -11.215668    14A     -1.336359    15A     -1.250303
      16A     -1.162072    17A     -1.099984    18A     -1.078840
      19A     -1.034908    20A     -0.953782    21A     -0.932645
      22A     -0.870994    23A     -0.833671    24A     -0.805817
      25A     -0.774899    26A     -0.725572    27A     -0.673925
      28A     -0.667639    29A     -0.628609    30A     -0.618890
      31A     -0.586669    32A     -0.580182    33A     -0.571093
      34A     -0.565850    35A     -0.561395    36A     -0.553383
      37A     -0.547371    38A     -0.544675    39A     -0.523254
      40A     -0.495782    41A     -0.439165    42A     -0.428697
      43A     -0.397332    44A     -0.390957    45A     -0.352186
      46A     -0.285009

  @DF-RHF Final Energy:  -548.61164017421265

   => Energetics <=

    Nuclear Repulsion Energy =            741.9245304685823612
    One-Electron Energy =               -2215.9607346627858533
    Two-Electron Energy =                 925.4245640199908394
    Total Energy =                       -548.6116401742126527
  Basis Set: (AUG-CC-PVTZ AUX)
    Blend: AUG-CC-PVTZ-RI
    Molecular point group: c1

    Geometry (in Angstrom), charge = 0, multiplicity = 1:

       Center              X                  Y                   Z               Mass
    ------------   -----------------  -----------------  -----------------  -----------------
         N           -1.615292494118    -0.772300771625    -0.000000901319    14.003074004430
         N           -1.265398494118     1.427978228375     0.000001098681    14.003074004430
         N            0.970707505882    -1.449489771625     0.000003098681    14.003074004430
         C           -0.678183494118     0.224762228375     0.000007098681    12.000000000000
         C            0.742630505882    -0.112883771625     0.000002098681    12.000000000000
         C            1.775435505882     0.851609228375     0.000002098681    12.000000000000
         C           -2.860792494118    -0.201026771625    -0.000008901319    12.000000000000
         C           -2.609540494118     1.162774228375    -0.000005901319    12.000000000000
         C            3.084312505882     0.360217228375    -0.000003901319    12.000000000000
         C            1.511748505882     2.331331228375     0.000003098681    12.000000000000
         C           -4.125846494118    -0.988933771625     0.000003098681    12.000000000000
         C            3.332935505882    -1.011395771625    -0.000002901319    12.000000000000
         C            2.319910505882    -1.814823571625    -0.000001001319    12.000000000000
         H           -1.360094494118    -1.755218771625     0.000006098681     1.007825032230
         H           -3.340304494118     1.962545228375    -0.000013901319     1.007825032230
         H            3.913882505882     1.065345228375    -0.000004901319     1.007825032230
         H            0.924424505882     2.627538228375    -0.871957901319     1.007825032230
         H            0.924429505882     2.627537228375     0.871968098681     1.007825032230
         H            2.460748505882     2.875910228375     0.000002098681     1.007825032230
         H           -4.206611494118    -1.628063771625    -0.885673901319     1.007825032230
         H           -4.206578494118    -1.628079771625     0.885671098681     1.007825032230
         H           -4.978740494118    -0.306151771625     0.000025098681     1.007825032230
         H            4.347676505882    -1.399733771625    -0.000007901319     1.007825032230
         H            2.380066505882    -2.956998771625     0.000001098681     1.007825032230

  Basis Set: AUG-CC-PVTZ
    Blend: AUG-CC-PVTZ
  Basis Set: (AUG-CC-PVTZ AUX)
    Blend: AUG-CC-PVTZ-JKFIT
	 Reference Energy          =    -548.6116401742126527 [Eh]
	 Singles Energy            =      -0.0000000000000000 [Eh]
	 Same-Spin Energy          =      -0.6117036519393888 [Eh]
	 Opposite-Spin Energy      =      -1.8799330337522884 [Eh]
	 Correlation Energy        =      -2.4916366856916774 [Eh]
	 Total Energy              =    -551.1032768599043266 [Eh]

	 ================> DF-SCS-MP2 Energies <==================
	-----------------------------------------------------------
	 SCS Same-Spin Scale       =       0.3333333333333333 [-]
	 SCS Opposite-Spin Scale   =       1.2000000000000000 [-]
	 SCS Same-Spin Energy      =      -0.2039012173131296 [Eh]
	 SCS Opposite-Spin Energy  =      -2.2559196405027460 [Eh]
	 SCS Correlation Energy    =      -2.4598208578158753 [Eh]
	 SCS Total Energy          =    -551.0714610320285374 [Eh]
	-----------------------------------------------------------

  Dipole Moment: [D]
     X:     0.1153      Y:    -1.5991      Z:     0.0000     Total:     1.6033

*** Psi4 exiting successfully. Buy a developer a beer!
