                               Psi4 1.4a3.dev225

  ==> Input File <==

--------------------------------------------------------------------------
#psi4
#
memory 32 gb

molecule  {
0 1
  N       -1.5932770    -0.7762670    -0.0000010
  N       -1.2433830     1.4240120     0.0000010
  N        0.9927230    -1.4534560     0.0000030
  C       -0.6561680     0.2207960     0.0000070
  C        0.7646460    -0.1168500     0.0000020
  C        1.7974510     0.8476430     0.0000020
  C       -2.8387770    -0.2049930    -0.0000090
  C       -2.5875250     1.1588080    -0.0000060
  C        3.1063280     0.3562510    -0.0000040
  C        1.5337640     2.3273650     0.0000030
  C       -4.1038310    -0.9929000     0.0000030
  C        3.3549510    -1.0153620    -0.0000030
  C        2.2635760    -1.8809290    -0.0000010
  H       -1.3380790    -1.7591850     0.0000060
  H       -3.3182890     1.9585790    -0.0000140
  H        3.9358980     1.0613790    -0.0000050
  H        0.9464400     2.6235720    -0.8719580
  H        0.9464450     2.6235710     0.8719680
  H        2.4827640     2.8719440     0.0000020
  H       -4.1845960    -1.6320300    -0.8856740
  H       -4.1845630    -1.6320460     0.8856710
  H       -4.9567250    -0.3101180     0.0000250
  H        4.3696920    -1.4037000    -0.0000080
  H        2.3995380    -2.9411275     0.0000010
units angstrom
no_reorient  #important for SAPT in psi4, default
symmetry c1  #important for SAPT in psi4, default
}

set PROPERTIES_ORIGIN ["COM"]
properties('MP2/aug-cc-pvtz', properties = ['dipole'])
--------------------------------------------------------------------------

    Molecular point group: c1
  Charge       = 0
  Multiplicity = 1
  Basis Set: AUG-CC-PVTZ
    Blend: AUG-CC-PVTZ
  Basis Set: (AUG-CC-PVTZ AUX)
    Blend: AUG-CC-PVTZ-JKFIT

    Orbital Energies [Eh]
    ---------------------

    Doubly Occupied:

       1A    -15.607493     2A    -15.572452     3A    -15.544004
       4A    -11.293284     5A    -11.289209     6A    -11.274779
       7A    -11.265271     8A    -11.256174     9A    -11.252607
      10A    -11.243090    11A    -11.237667    12A    -11.234628
      13A    -11.215448    14A     -1.335084    15A     -1.258035
      16A     -1.160489    17A     -1.098483    18A     -1.073198
      19A     -1.029123    20A     -0.956993    21A     -0.929800
      22A     -0.865112    23A     -0.836365    24A     -0.804700
      25A     -0.779659    26A     -0.727934    27A     -0.677099
      28A     -0.660794    29A     -0.629177    30A     -0.617856
      31A     -0.595573    32A     -0.579640    33A     -0.575612
      34A     -0.564947    35A     -0.561320    36A     -0.552391
      37A     -0.548371    38A     -0.544819    39A     -0.522699
      40A     -0.507990    41A     -0.433438    42A     -0.424272
      43A     -0.394382    44A     -0.386378    45A     -0.355028
      46A     -0.279143

  @DF-RHF Final Energy:  -548.62711928555223

   => Energetics <=

    Nuclear Repulsion Energy =            741.4999024486982080
    One-Electron Energy =               -2215.1500228753920965
    Two-Electron Energy =                 925.0230011411415489
    Total Energy =                       -548.6271192855522258
  Basis Set: (AUG-CC-PVTZ AUX)
    Blend: AUG-CC-PVTZ-RI
    Molecular point group: c1

    Geometry (in Angstrom), charge = 0, multiplicity = 1:

       Center              X                  Y                   Z               Mass
    ------------   -----------------  -----------------  -----------------  -----------------
         N           -1.609845991981    -0.768108412376    -0.000000908252    14.003074004430
         N           -1.259951991981     1.432170587624     0.000001091748    14.003074004430
         N            0.976154008019    -1.445297412376     0.000003091748    14.003074004430
         C           -0.672736991981     0.228954587624     0.000007091748    12.000000000000
         C            0.748077008019    -0.108691412376     0.000002091748    12.000000000000
         C            1.780882008019     0.855801587624     0.000002091748    12.000000000000
         C           -2.855345991981    -0.196834412376    -0.000008908252    12.000000000000
         C           -2.604093991981     1.166966587624    -0.000005908252    12.000000000000
         C            3.089759008019     0.364409587624    -0.000003908252    12.000000000000
         C            1.517195008019     2.335523587624     0.000003091748    12.000000000000
         C           -4.120399991981    -0.984741412376     0.000003091748    12.000000000000
         C            3.338382008019    -1.007203412376    -0.000002908252    12.000000000000
         C            2.247007008019    -1.872770412376    -0.000000908252    12.000000000000
         H           -1.354647991981    -1.751026412376     0.000006091748     1.007825032230
         H           -3.334857991981     1.966737587624    -0.000013908252     1.007825032230
         H            3.919329008019     1.069537587624    -0.000004908252     1.007825032230
         H            0.929871008019     2.631730587624    -0.871957908252     1.007825032230
         H            0.929876008019     2.631729587624     0.871968091748     1.007825032230
         H            2.466195008019     2.880102587624     0.000002091748     1.007825032230
         H           -4.201164991981    -1.623871412376    -0.885673908252     1.007825032230
         H           -4.201131991981    -1.623887412376     0.885671091748     1.007825032230
         H           -4.973293991981    -0.301959412376     0.000025091748     1.007825032230
         H            4.353123008019    -1.395541412376    -0.000007908252     1.007825032230
         H            2.382969008019    -2.932968912376     0.000001091748     1.007825032230

  Basis Set: AUG-CC-PVTZ
    Blend: AUG-CC-PVTZ
  Basis Set: (AUG-CC-PVTZ AUX)
    Blend: AUG-CC-PVTZ-JKFIT
	 Reference Energy          =    -548.6271192855522258 [Eh]
	 Singles Energy            =      -0.0000000000000000 [Eh]
	 Same-Spin Energy          =      -0.6115724809813546 [Eh]
	 Opposite-Spin Energy      =      -1.8784344329901730 [Eh]
	 Correlation Energy        =      -2.4900069139715275 [Eh]
	 Total Energy              =    -551.1171261995237955 [Eh]

	 ================> DF-SCS-MP2 Energies <==================
	-----------------------------------------------------------
	 SCS Same-Spin Scale       =       0.3333333333333333 [-]
	 SCS Opposite-Spin Scale   =       1.2000000000000000 [-]
	 SCS Same-Spin Energy      =      -0.2038574936604515 [Eh]
	 SCS Opposite-Spin Energy  =      -2.2541213195882075 [Eh]
	 SCS Correlation Energy    =      -2.4579788132486589 [Eh]
	 SCS Total Energy          =    -551.0850980988009269 [Eh]
	-----------------------------------------------------------

  Dipole Moment: [D]
     X:     0.1624      Y:    -1.7626      Z:     0.0000     Total:     1.7700

*** Psi4 exiting successfully. Buy a developer a beer!
