                               Psi4 1.4a3.dev225

  ==> Input File <==

--------------------------------------------------------------------------
#psi4
#
memory 32 gb

molecule  {
0 1
  N       -1.5932770    -0.7762670    -0.0000010
  N       -1.2433830     1.4240120     0.0000010
  N        0.9927230    -1.4534560     0.0000030
  C       -0.6561680     0.2207960     0.0000070
  C        0.7316148    -0.0802181     0.0000022
  C        1.7974510     0.8476430     0.0000020
  C       -2.8387770    -0.2049930    -0.0000090
  C       -2.5875250     1.1588080    -0.0000060
  C        3.1063280     0.3562510    -0.0000040
  C        1.5337640     2.3273650     0.0000030
  C       -4.1038310    -0.9929000     0.0000030
  C        3.3549510    -1.0153620    -0.0000030
  C        2.2635760    -1.8809290    -0.0000010
  H       -1.3380790    -1.7591850     0.0000060
  H       -3.3182890     1.9585790    -0.0000140
  H        3.9358980     1.0613790    -0.0000050
  H        0.9464400     2.6235720    -0.8719580
  H        0.9464450     2.6235710     0.8719680
  H        2.4827640     2.8719440     0.0000020
  H       -4.1845960    -1.6320300    -0.8856740
  H       -4.1845630    -1.6320460     0.8856710
  H       -4.9567250    -0.3101180     0.0000250
  H        4.3696920    -1.4037000    -0.0000080
  H        2.4020820    -2.9609650     0.0000010
units angstrom
no_reorient  #important for SAPT in psi4, default
symmetry c1  #important for SAPT in psi4, default
}

set PROPERTIES_ORIGIN ["COM"]
properties('MP2/aug-cc-pvtz', properties = ['dipole'])
--------------------------------------------------------------------------

    Molecular point group: c1
  Charge       = 0
  Multiplicity = 1
  Basis Set: AUG-CC-PVTZ
    Blend: AUG-CC-PVTZ
  Basis Set: (AUG-CC-PVTZ AUX)
    Blend: AUG-CC-PVTZ-JKFIT

    Orbital Energies [Eh]
    ---------------------

    Doubly Occupied:

       1A    -15.609151     2A    -15.573149     3A    -15.545790
       4A    -11.292304     5A    -11.288631     6A    -11.276466
       7A    -11.267704     8A    -11.256264     9A    -11.252643
      10A    -11.242745    11A    -11.238995    12A    -11.236185
      13A    -11.213895    14A     -1.337088    15A     -1.246300
      16A     -1.162436    17A     -1.095617    18A     -1.076625
      19A     -1.029220    20A     -0.959666    21A     -0.928520
      22A     -0.868098    23A     -0.832384    24A     -0.806096
      25A     -0.777780    26A     -0.730649    27A     -0.673217
      28A     -0.660929    29A     -0.631264    30A     -0.619710
      31A     -0.594993    32A     -0.578979    33A     -0.575138
      34A     -0.566289    35A     -0.562193    36A     -0.553119
      37A     -0.547817    38A     -0.544526    39A     -0.517777
      40A     -0.508400    41A     -0.432937    42A     -0.421837
      43A     -0.396136    44A     -0.383577    45A     -0.358037
      46A     -0.276682

  @DF-RHF Final Energy:  -548.62127894895002

   => Energetics <=

    Nuclear Repulsion Energy =            741.3797778884930949
    One-Electron Energy =               -2214.9061938176437252
    Two-Electron Energy =                 924.9051369802004956
    Total Energy =                       -548.6212789489500210
  Basis Set: (AUG-CC-PVTZ AUX)
    Blend: AUG-CC-PVTZ-RI
    Molecular point group: c1

    Geometry (in Angstrom), charge = 0, multiplicity = 1:

       Center              X                  Y                   Z               Mass
    ------------   -----------------  -----------------  -----------------  -----------------
         N           -1.607570883997    -0.770532453221    -0.000000922117    14.003074004430
         N           -1.257676883997     1.429746546779     0.000001077883    14.003074004430
         N            0.978429116003    -1.447721453221     0.000003077883    14.003074004430
         C           -0.670461883997     0.226530546779     0.000007077883    12.000000000000
         C            0.717320916003    -0.074483553221     0.000002277883    12.000000000000
         C            1.783157116003     0.853377546779     0.000002077883    12.000000000000
         C           -2.853070883997    -0.199258453221    -0.000008922117    12.000000000000
         C           -2.601818883997     1.164542546779    -0.000005922117    12.000000000000
         C            3.092034116003     0.361985546779    -0.000003922117    12.000000000000
         C            1.519470116003     2.333099546779     0.000003077883    12.000000000000
         C           -4.118124883997    -0.987165453221     0.000003077883    12.000000000000
         C            3.340657116003    -1.009627453221    -0.000002922117    12.000000000000
         C            2.249282116003    -1.875194453221    -0.000000922117    12.000000000000
         H           -1.352372883997    -1.753450453221     0.000006077883     1.007825032230
         H           -3.332582883997     1.964313546779    -0.000013922117     1.007825032230
         H            3.921604116003     1.067113546779    -0.000004922117     1.007825032230
         H            0.932146116003     2.629306546779    -0.871957922117     1.007825032230
         H            0.932151116003     2.629305546779     0.871968077883     1.007825032230
         H            2.468470116003     2.877678546779     0.000002077883     1.007825032230
         H           -4.198889883997    -1.626295453221    -0.885673922117     1.007825032230
         H           -4.198856883997    -1.626311453221     0.885671077883     1.007825032230
         H           -4.971018883997    -0.304383453221     0.000025077883     1.007825032230
         H            4.355398116003    -1.397965453221    -0.000007922117     1.007825032230
         H            2.387788116003    -2.955230453221     0.000001077883     1.007825032230

  Basis Set: AUG-CC-PVTZ
    Blend: AUG-CC-PVTZ
  Basis Set: (AUG-CC-PVTZ AUX)
    Blend: AUG-CC-PVTZ-JKFIT
	 Reference Energy          =    -548.6212789489500210 [Eh]
	 Singles Energy            =      -0.0000000000000000 [Eh]
	 Same-Spin Energy          =      -0.6126792123164407 [Eh]
	 Opposite-Spin Energy      =      -1.8804034006602615 [Eh]
	 Correlation Energy        =      -2.4930826129767021 [Eh]
	 Total Energy              =    -551.1143615619266711 [Eh]

	 ================> DF-SCS-MP2 Energies <==================
	-----------------------------------------------------------
	 SCS Same-Spin Scale       =       0.3333333333333333 [-]
	 SCS Opposite-Spin Scale   =       1.2000000000000000 [-]
	 SCS Same-Spin Energy      =      -0.2042264041054802 [Eh]
	 SCS Opposite-Spin Energy  =      -2.2564840807923137 [Eh]
	 SCS Correlation Energy    =      -2.4607104848977941 [Eh]
	 SCS Total Energy          =    -551.0819894338478662 [Eh]
	-----------------------------------------------------------

  Dipole Moment: [D]
     X:    -0.0560      Y:    -1.7301      Z:     0.0000     Total:     1.7310

*** Psi4 exiting successfully. Buy a developer a beer!
