                               Psi4 1.4a3.dev225

  ==> Input File <==

--------------------------------------------------------------------------
#psi4
#
memory 32 gb

molecule  {
0 1
  N       -1.5932770    -0.7762670    -0.0000010
  N       -1.2433830     1.4240120     0.0000010
  N        0.9927230    -1.4534560     0.0000030
  C       -0.6561680     0.2207960     0.0000070
  C        0.7646460    -0.1168500     0.0000020
  C        1.7974510     0.8476430     0.0000020
  C       -2.7478821    -0.2466838    -0.0000084
  C       -2.5875250     1.1588080    -0.0000060
  C        3.1063280     0.3562510    -0.0000040
  C        1.5337640     2.3273650     0.0000030
  C       -4.1038310    -0.9929000     0.0000030
  C        3.3549510    -1.0153620    -0.0000030
  C        2.2635760    -1.8809290    -0.0000010
  H       -1.3380790    -1.7591850     0.0000060
  H       -3.3182890     1.9585790    -0.0000140
  H        3.9358980     1.0613790    -0.0000050
  H        0.9464400     2.6235720    -0.8719580
  H        0.9464450     2.6235710     0.8719680
  H        2.4827640     2.8719440     0.0000020
  H       -4.1845960    -1.6320300    -0.8856740
  H       -4.1845630    -1.6320460     0.8856710
  H       -4.9567250    -0.3101180     0.0000250
  H        4.3696920    -1.4037000    -0.0000080
  H        2.4020820    -2.9609650     0.0000010
units angstrom
no_reorient  #important for SAPT in psi4, default
symmetry c1  #important for SAPT in psi4, default
}

set PROPERTIES_ORIGIN ["COM"]
properties('MP2/aug-cc-pvtz', properties = ['dipole'])
--------------------------------------------------------------------------

    Molecular point group: c1
  Charge       = 0
  Multiplicity = 1
  Basis Set: AUG-CC-PVTZ
    Blend: AUG-CC-PVTZ
  Basis Set: (AUG-CC-PVTZ AUX)
    Blend: AUG-CC-PVTZ-JKFIT

    Orbital Energies [Eh]
    ---------------------

    Doubly Occupied:

       1A    -15.616431     2A    -15.569506     3A    -15.549046
       4A    -11.288498     5A    -11.285725     6A    -11.275561
       7A    -11.268072     8A    -11.254363     9A    -11.249082
      10A    -11.242292    11A    -11.239524    12A    -11.232536
      13A    -11.213964    14A     -1.361396    15A     -1.257164
      16A     -1.176271    17A     -1.096438    18A     -1.069937
      19A     -1.020076    20A     -0.955423    21A     -0.926717
      22A     -0.861489    23A     -0.837396    24A     -0.815700
      25A     -0.792370    26A     -0.728262    27A     -0.675452
      28A     -0.659272    29A     -0.633779    30A     -0.629395
      31A     -0.595632    32A     -0.577853    33A     -0.572327
      34A     -0.566922    35A     -0.556126    36A     -0.555572
      37A     -0.547490    38A     -0.539648    39A     -0.522670
      40A     -0.504625    41A     -0.431112    42A     -0.423945
      43A     -0.407042    44A     -0.384324    45A     -0.352784
      46A     -0.270431

  @DF-RHF Final Energy:  -548.61472521028884

   => Energetics <=

    Nuclear Repulsion Energy =            742.8908890870706045
    One-Electron Energy =               -2217.8319472541570576
    Two-Electron Energy =                 926.3263329567975006
    Total Energy =                       -548.6147252102888388
  Basis Set: (AUG-CC-PVTZ AUX)
    Blend: AUG-CC-PVTZ-RI
    Molecular point group: c1

    Geometry (in Angstrom), charge = 0, multiplicity = 1:

       Center              X                  Y                   Z               Mass
    ------------   -----------------  -----------------  -----------------  -----------------
         N           -1.616162181523    -0.765102655796    -0.000000949847    14.003074004430
         N           -1.266268181523     1.435176344204     0.000001050153    14.003074004430
         N            0.969837818477    -1.442291655796     0.000003050153    14.003074004430
         C           -0.679053181523     0.231960344204     0.000007050153    12.000000000000
         C            0.741760818477    -0.105685655796     0.000002050153    12.000000000000
         C            1.774565818477     0.858807344204     0.000002050153    12.000000000000
         C           -2.770767281523    -0.235519455796    -0.000008349847    12.000000000000
         C           -2.610410181523     1.169972344204    -0.000005949847    12.000000000000
         C            3.083442818477     0.367415344204    -0.000003949847    12.000000000000
         C            1.510878818477     2.338529344204     0.000003050153    12.000000000000
         C           -4.126716181523    -0.981735655796     0.000003050153    12.000000000000
         C            3.332065818477    -1.004197655796    -0.000002949847    12.000000000000
         C            2.240690818477    -1.869764655796    -0.000000949847    12.000000000000
         H           -1.360964181523    -1.748020655796     0.000006050153     1.007825032230
         H           -3.341174181523     1.969743344204    -0.000013949847     1.007825032230
         H            3.913012818477     1.072543344204    -0.000004949847     1.007825032230
         H            0.923554818477     2.634736344204    -0.871957949847     1.007825032230
         H            0.923559818477     2.634735344204     0.871968050153     1.007825032230
         H            2.459878818477     2.883108344204     0.000002050153     1.007825032230
         H           -4.207481181523    -1.620865655796    -0.885673949847     1.007825032230
         H           -4.207448181523    -1.620881655796     0.885671050153     1.007825032230
         H           -4.979610181523    -0.298953655796     0.000025050153     1.007825032230
         H            4.346806818477    -1.392535655796    -0.000007949847     1.007825032230
         H            2.379196818477    -2.949800655796     0.000001050153     1.007825032230

  Basis Set: AUG-CC-PVTZ
    Blend: AUG-CC-PVTZ
  Basis Set: (AUG-CC-PVTZ AUX)
    Blend: AUG-CC-PVTZ-JKFIT
	 Reference Energy          =    -548.6147252102888388 [Eh]
	 Singles Energy            =      -0.0000000000000000 [Eh]
	 Same-Spin Energy          =      -0.6121293407646907 [Eh]
	 Opposite-Spin Energy      =      -1.8782717397203077 [Eh]
	 Correlation Energy        =      -2.4904010804849985 [Eh]
	 Total Energy              =    -551.1051262907737964 [Eh]

	 ================> DF-SCS-MP2 Energies <==================
	-----------------------------------------------------------
	 SCS Same-Spin Scale       =       0.3333333333333333 [-]
	 SCS Opposite-Spin Scale   =       1.2000000000000000 [-]
	 SCS Same-Spin Energy      =      -0.2040431135882302 [Eh]
	 SCS Opposite-Spin Energy  =      -2.2539260876643690 [Eh]
	 SCS Correlation Energy    =      -2.4579692012525993 [Eh]
	 SCS Total Energy          =    -551.0726944115414199 [Eh]
	-----------------------------------------------------------

  Dipole Moment: [D]
     X:     0.0523      Y:    -1.8178      Z:     0.0000     Total:     1.8185

*** Psi4 exiting successfully. Buy a developer a beer!
