                               Psi4 1.4a3.dev225

  ==> Input File <==

--------------------------------------------------------------------------
#psi4
#
memory 32 gb

molecule  {
0 1
  N       -1.5932770    -0.7762670    -0.0000010
  N       -1.2433830     1.4240120     0.0000010
  N        0.9927230    -1.4534560     0.0000030
  C       -0.6561680     0.2207960     0.0000070
  C        0.7646460    -0.1168500     0.0000020
  C        1.7974510     0.8476430     0.0000020
  C       -2.8387770    -0.2049930    -0.0000090
  C       -2.5875250     1.1588080    -0.0000060
  C        3.1063280     0.3562510    -0.0000040
  C        1.5337640     2.3273650     0.0000030
  C       -4.1038310    -0.9929000     0.0000030
  C        3.3549510    -1.0153620    -0.0000030
  C        2.2635760    -1.8809290    -0.0000010
  H       -1.3380790    -1.7591850     0.0000060
  H       -3.3182890     1.9585790    -0.0000140
  H        3.9358980     1.0613790    -0.0000050
  H        0.9464400     2.6235720    -0.8719580
  H        0.9464450     2.6235710     0.8719680
  H        2.4827640     2.8719440     0.0000020
  H       -4.1845960    -1.6320300    -0.8856740
  H       -4.1845630    -1.6320460     0.8856710
  H       -4.9567250    -0.3101180     0.0000250
  H        4.3696920    -1.4037000    -0.0000080
  H        2.4020820    -2.9609650     0.0000010
units angstrom
no_reorient  #important for SAPT in psi4, default
symmetry c1  #important for SAPT in psi4, default
}

set PROPERTIES_ORIGIN ["COM"]
properties('MP2/aug-cc-pvtz', properties = ['dipole'])
--------------------------------------------------------------------------

    Molecular point group: c1
  Charge       = 0
  Multiplicity = 1
  Basis Set: AUG-CC-PVTZ
    Blend: AUG-CC-PVTZ
  Basis Set: (AUG-CC-PVTZ AUX)
    Blend: AUG-CC-PVTZ-JKFIT

    Orbital Energies [Eh]
    ---------------------

    Doubly Occupied:

       1A    -15.607549     2A    -15.572634     3A    -15.544066
       4A    -11.293352     5A    -11.289369     6A    -11.277122
       7A    -11.265322     8A    -11.256304     9A    -11.252667
      10A    -11.243277    11A    -11.237698    12A    -11.234675
      13A    -11.215498    14A     -1.335142    15A     -1.258086
      16A     -1.160543    17A     -1.098567    18A     -1.073000
      19A     -1.029089    20A     -0.956902    21A     -0.929363
      22A     -0.865078    23A     -0.835878    24A     -0.804752
      25A     -0.778813    26A     -0.727206    27A     -0.676284
      28A     -0.660824    29A     -0.628923    30A     -0.617909
      31A     -0.594225    32A     -0.579705    33A     -0.575175
      34A     -0.564875    35A     -0.561273    36A     -0.552435
      37A     -0.548426    38A     -0.544863    39A     -0.522809
      40A     -0.507620    41A     -0.433366    42A     -0.424224
      43A     -0.394438    44A     -0.386489    45A     -0.355102
      46A     -0.279201

  @DF-RHF Final Energy:  -548.62696195036847

   => Energetics <=

    Nuclear Repulsion Energy =            741.3902575220804465
    One-Electron Energy =               -2214.9342066159229034
    Two-Electron Energy =                 924.9169871434739889
    Total Energy =                       -548.6269619503684680
  Basis Set: (AUG-CC-PVTZ AUX)
    Blend: AUG-CC-PVTZ-RI
    Molecular point group: c1

    Geometry (in Angstrom), charge = 0, multiplicity = 1:

       Center              X                  Y                   Z               Mass
    ------------   -----------------  -----------------  -----------------  -----------------
         N           -1.609860804093    -0.767992911092    -0.000000908252    14.003074004430
         N           -1.259966804093     1.432286088908     0.000001091748    14.003074004430
         N            0.976139195907    -1.445181911092     0.000003091748    14.003074004430
         C           -0.672751804093     0.229070088908     0.000007091748    12.000000000000
         C            0.748062195907    -0.108575911092     0.000002091748    12.000000000000
         C            1.780867195907     0.855917088908     0.000002091748    12.000000000000
         C           -2.855360804093    -0.196718911092    -0.000008908252    12.000000000000
         C           -2.604108804093     1.167082088908    -0.000005908252    12.000000000000
         C            3.089744195907     0.364525088908    -0.000003908252    12.000000000000
         C            1.517180195907     2.335639088908     0.000003091748    12.000000000000
         C           -4.120414804093    -0.984625911092     0.000003091748    12.000000000000
         C            3.338367195907    -1.007087911092    -0.000002908252    12.000000000000
         C            2.246992195907    -1.872654911092    -0.000000908252    12.000000000000
         H           -1.354662804093    -1.750910911092     0.000006091748     1.007825032230
         H           -3.334872804093     1.966853088908    -0.000013908252     1.007825032230
         H            3.919314195907     1.069653088908    -0.000004908252     1.007825032230
         H            0.929856195907     2.631846088908    -0.871957908252     1.007825032230
         H            0.929861195907     2.631845088908     0.871968091748     1.007825032230
         H            2.466180195907     2.880218088908     0.000002091748     1.007825032230
         H           -4.201179804093    -1.623755911092    -0.885673908252     1.007825032230
         H           -4.201146804093    -1.623771911092     0.885671091748     1.007825032230
         H           -4.973308804093    -0.301843911092     0.000025091748     1.007825032230
         H            4.353108195907    -1.395425911092    -0.000007908252     1.007825032230
         H            2.385498195907    -2.952690911092     0.000001091748     1.007825032230

  Basis Set: AUG-CC-PVTZ
    Blend: AUG-CC-PVTZ
  Basis Set: (AUG-CC-PVTZ AUX)
    Blend: AUG-CC-PVTZ-JKFIT
	 Reference Energy          =    -548.6269619503684680 [Eh]
	 Singles Energy            =      -0.0000000000000000 [Eh]
	 Same-Spin Energy          =      -0.6116191481177430 [Eh]
	 Opposite-Spin Energy      =      -1.8785897705138639 [Eh]
	 Correlation Energy        =      -2.4902089186316068 [Eh]
	 Total Energy              =    -551.1171708690001196 [Eh]

	 ================> DF-SCS-MP2 Energies <==================
	-----------------------------------------------------------
	 SCS Same-Spin Scale       =       0.3333333333333333 [-]
	 SCS Opposite-Spin Scale   =       1.2000000000000000 [-]
	 SCS Same-Spin Energy      =      -0.2038730493725810 [Eh]
	 SCS Opposite-Spin Energy  =      -2.2543077246166368 [Eh]
	 SCS Correlation Energy    =      -2.4581807739892176 [Eh]
	 SCS Total Energy          =    -551.0851427243576381 [Eh]
	-----------------------------------------------------------

  Dipole Moment: [D]
     X:     0.1561      Y:    -1.7540      Z:     0.0000     Total:     1.7610

*** Psi4 exiting successfully. Buy a developer a beer!
