                               Psi4 1.4a3.dev225

  ==> Input File <==

--------------------------------------------------------------------------
#psi4
#
memory 32 gb

molecule  {
0 1
  N       -1.5932770    -0.7762670    -0.0000010
  N       -1.2433830     1.4240120     0.0000010
  N        0.9927230    -1.4534560     0.0000030
  C       -0.6561680     0.2207960     0.0000070
  C        0.7646460    -0.1168500     0.0000020
  C        1.7974510     0.8476430     0.0000020
  C       -2.8387770    -0.2049930    -0.0000090
  C       -2.5875250     1.1588080    -0.0000060
  C        3.1063280     0.3562510    -0.0000040
  C        1.5337640     2.3273650     0.0000030
  C       -4.1038310    -0.9929000     0.0000030
  C        3.3549510    -1.0153620    -0.0000030
  C        2.2635760    -1.8809290    -0.0000010
  H       -1.3380790    -1.7591850     0.0000060
  H       -3.3182890     1.9585790    -0.0000140
  H        3.9358980     1.0613790    -0.0000050
  H        0.9464400     2.6235720    -0.8719580
  H        0.9464450     2.6235710     0.8719680
  H        2.4827640     2.8719440     0.0000020
  H       -4.1845960    -1.6320300    -0.8856740
  H       -4.1845630    -1.6320460     0.8856710
  H       -4.9567250    -0.3101180     0.0000250
  H        4.3696920    -1.4037000    -0.0000080
  H        2.3957220    -2.9113711     0.0000009
units angstrom
no_reorient  #important for SAPT in psi4, default
symmetry c1  #important for SAPT in psi4, default
}

set PROPERTIES_ORIGIN ["COM"]
properties('MP2/aug-cc-pvtz', properties = ['dipole'])
--------------------------------------------------------------------------

    Molecular point group: c1
  Charge       = 0
  Multiplicity = 1
  Basis Set: AUG-CC-PVTZ
    Blend: AUG-CC-PVTZ
  Basis Set: (AUG-CC-PVTZ AUX)
    Blend: AUG-CC-PVTZ-JKFIT

    Orbital Energies [Eh]
    ---------------------

    Doubly Occupied:

       1A    -15.607416     2A    -15.572205     3A    -15.543918
       4A    -11.293190     5A    -11.288985     6A    -11.271219
       7A    -11.265201     8A    -11.255994     9A    -11.252531
      10A    -11.242834    11A    -11.237625    12A    -11.234563
      13A    -11.215384    14A     -1.335005    15A     -1.257991
      16A     -1.160413    17A     -1.098377    18A     -1.073552
      19A     -1.029197    20A     -0.957176    21A     -0.930536
      22A     -0.865202    23A     -0.837205    24A     -0.804631
      25A     -0.781055    26A     -0.729094    27A     -0.678376
      28A     -0.660752    29A     -0.629600    30A     -0.617783
      31A     -0.597623    32A     -0.579551    33A     -0.576147
      34A     -0.565025    35A     -0.561360    36A     -0.552332
      37A     -0.548297    38A     -0.544760    39A     -0.522550
      40A     -0.508496    41A     -0.433545    42A     -0.424336
      43A     -0.394306    44A     -0.386223    45A     -0.354933
      46A     -0.279065

  @DF-RHF Final Energy:  -548.62625920670143

   => Energetics <=

    Nuclear Repulsion Energy =            741.6692577203798464
    One-Electron Energy =               -2215.4799191742154107
    Two-Electron Energy =                 925.1844022471341304
    Total Energy =                       -548.6262592067014339
  Basis Set: (AUG-CC-PVTZ AUX)
    Blend: AUG-CC-PVTZ-RI
    Molecular point group: c1

    Geometry (in Angstrom), charge = 0, multiplicity = 1:

       Center              X                  Y                   Z               Mass
    ------------   -----------------  -----------------  -----------------  -----------------
         N           -1.609823773814    -0.768281665175    -0.000000907669    14.003074004430
         N           -1.259929773814     1.431997334825     0.000001092331    14.003074004430
         N            0.976176226186    -1.445470665175     0.000003092331    14.003074004430
         C           -0.672714773814     0.228781334825     0.000007092331    12.000000000000
         C            0.748099226186    -0.108864665175     0.000002092331    12.000000000000
         C            1.780904226186     0.855628334825     0.000002092331    12.000000000000
         C           -2.855323773814    -0.197007665175    -0.000008907669    12.000000000000
         C           -2.604071773814     1.166793334825    -0.000005907669    12.000000000000
         C            3.089781226186     0.364236334825    -0.000003907669    12.000000000000
         C            1.517217226186     2.335350334825     0.000003092331    12.000000000000
         C           -4.120377773814    -0.984914665175     0.000003092331    12.000000000000
         C            3.338404226186    -1.007376665175    -0.000002907669    12.000000000000
         C            2.247029226186    -1.872943665175    -0.000000907669    12.000000000000
         H           -1.354625773814    -1.751199665175     0.000006092331     1.007825032230
         H           -3.334835773814     1.966564334825    -0.000013907669     1.007825032230
         H            3.919351226186     1.069364334825    -0.000004907669     1.007825032230
         H            0.929893226186     2.631557334825    -0.871957907669     1.007825032230
         H            0.929898226186     2.631556334825     0.871968092331     1.007825032230
         H            2.466217226186     2.879929334825     0.000002092331     1.007825032230
         H           -4.201142773814    -1.624044665175    -0.885673907669     1.007825032230
         H           -4.201109773814    -1.624060665175     0.885671092331     1.007825032230
         H           -4.973271773814    -0.302132665175     0.000025092331     1.007825032230
         H            4.353145226186    -1.395714665175    -0.000007907669     1.007825032230
         H            2.379175226186    -2.903385765175     0.000000992331     1.007825032230

  Basis Set: AUG-CC-PVTZ
    Blend: AUG-CC-PVTZ
  Basis Set: (AUG-CC-PVTZ AUX)
    Blend: AUG-CC-PVTZ-JKFIT
	 Reference Energy          =    -548.6262592067014339 [Eh]
	 Singles Energy            =      -0.0000000000000000 [Eh]
	 Same-Spin Energy          =      -0.6115103319929187 [Eh]
	 Opposite-Spin Energy      =      -1.8782346687011056 [Eh]
	 Correlation Energy        =      -2.4897450006940245 [Eh]
	 Total Energy              =    -551.1160042073954628 [Eh]

	 ================> DF-SCS-MP2 Energies <==================
	-----------------------------------------------------------
	 SCS Same-Spin Scale       =       0.3333333333333333 [-]
	 SCS Opposite-Spin Scale   =       1.2000000000000000 [-]
	 SCS Same-Spin Energy      =      -0.2038367773309729 [Eh]
	 SCS Opposite-Spin Energy  =      -2.2538816024413264 [Eh]
	 SCS Correlation Energy    =      -2.4577183797722992 [Eh]
	 SCS Total Energy          =    -551.0839775864736794 [Eh]
	-----------------------------------------------------------

  Dipole Moment: [D]
     X:     0.1712      Y:    -1.7736      Z:     0.0000     Total:     1.7819

*** Psi4 exiting successfully. Buy a developer a beer!
