                               Psi4 1.4a3.dev225

  ==> Input File <==

--------------------------------------------------------------------------
#psi4
#
memory 32 gb

molecule  {
0 1
  N       -1.5932770    -0.7762670    -0.0000010
  N       -1.2433830     1.4240120     0.0000010
  N        0.9927230    -1.4534560     0.0000030
  C       -0.6561680     0.2207960     0.0000070
  C        0.7646460    -0.1168500     0.0000020
  C        1.7974510     0.8476430     0.0000020
  C       -2.8387770    -0.2049930    -0.0000090
  C       -2.6856336     1.1394508    -0.0000065
  C        3.1063280     0.3562510    -0.0000040
  C        1.5337640     2.3273650     0.0000030
  C       -4.1038310    -0.9929000     0.0000030
  C        3.3549510    -1.0153620    -0.0000030
  C        2.2635760    -1.8809290    -0.0000010
  H       -1.3380790    -1.7591850     0.0000060
  H       -3.3182890     1.9585790    -0.0000140
  H        3.9358980     1.0613790    -0.0000050
  H        0.9464400     2.6235720    -0.8719580
  H        0.9464450     2.6235710     0.8719680
  H        2.4827640     2.8719440     0.0000020
  H       -4.1845960    -1.6320300    -0.8856740
  H       -4.1845630    -1.6320460     0.8856710
  H       -4.9567250    -0.3101180     0.0000250
  H        4.3696920    -1.4037000    -0.0000080
  H        2.4020820    -2.9609650     0.0000010
units angstrom
no_reorient  #important for SAPT in psi4, default
symmetry c1  #important for SAPT in psi4, default
}

set PROPERTIES_ORIGIN ["COM"]
properties('MP2/aug-cc-pvtz', properties = ['dipole'])
--------------------------------------------------------------------------

    Molecular point group: c1
  Charge       = 0
  Multiplicity = 1
  Basis Set: AUG-CC-PVTZ
    Blend: AUG-CC-PVTZ
  Basis Set: (AUG-CC-PVTZ AUX)
    Blend: AUG-CC-PVTZ-JKFIT

    Orbital Energies [Eh]
    ---------------------

    Doubly Occupied:

       1A    -15.602110     2A    -15.574898     3A    -15.544732
       4A    -11.295840     5A    -11.290155     6A    -11.278127
       7A    -11.266211     8A    -11.257365     9A    -11.254540
      10A    -11.245483    11A    -11.235298    12A    -11.231977
      13A    -11.215535    14A     -1.326081    15A     -1.258843
      16A     -1.140348    17A     -1.099231    18A     -1.074427
      19A     -1.032939    20A     -0.956555    21A     -0.931018
      22A     -0.868063    23A     -0.838091    24A     -0.795996
      25A     -0.783187    26A     -0.725888    27A     -0.676118
      28A     -0.661215    29A     -0.632897    30A     -0.615129
      31A     -0.602053    32A     -0.579755    33A     -0.575633
      34A     -0.569404    35A     -0.552437    36A     -0.549893
      37A     -0.547116    38A     -0.541651    39A     -0.522675
      40A     -0.509534    41A     -0.432633    42A     -0.418342
      43A     -0.390608    44A     -0.378533    45A     -0.355611
      46A     -0.290719

  @DF-RHF Final Energy:  -548.61826787017174

   => Energetics <=

    Nuclear Repulsion Energy =            739.9808666417059158
    One-Electron Energy =               -2212.1484833708709630
    Two-Electron Energy =                 923.5493488589933122
    Total Energy =                       -548.6182678701717350
  Basis Set: (AUG-CC-PVTZ AUX)
    Blend: AUG-CC-PVTZ-RI
    Molecular point group: c1

    Geometry (in Angstrom), charge = 0, multiplicity = 1:

       Center              X                  Y                   Z               Mass
    ------------   -----------------  -----------------  -----------------  -----------------
         N           -1.603059329888    -0.766650954358    -0.000000873589    14.003074004430
         N           -1.253165329888     1.433628045642     0.000001126411    14.003074004430
         N            0.982940670112    -1.443839954358     0.000003126411    14.003074004430
         C           -0.665950329888     0.230412045642     0.000007126411    12.000000000000
         C            0.754863670112    -0.107233954358     0.000002126411    12.000000000000
         C            1.787668670112     0.857259045642     0.000002126411    12.000000000000
         C           -2.848559329888    -0.195376954358    -0.000008873589    12.000000000000
         C           -2.695415929888     1.149066845642    -0.000006373589    12.000000000000
         C            3.096545670112     0.365867045642    -0.000003873589    12.000000000000
         C            1.523981670112     2.336981045642     0.000003126411    12.000000000000
         C           -4.113613329888    -0.983283954358     0.000003126411    12.000000000000
         C            3.345168670112    -1.005745954358    -0.000002873589    12.000000000000
         C            2.253793670112    -1.871312954358    -0.000000873589    12.000000000000
         H           -1.347861329888    -1.749568954358     0.000006126411     1.007825032230
         H           -3.328071329888     1.968195045642    -0.000013873589     1.007825032230
         H            3.926115670112     1.070995045642    -0.000004873589     1.007825032230
         H            0.936657670112     2.633188045642    -0.871957873589     1.007825032230
         H            0.936662670112     2.633187045642     0.871968126411     1.007825032230
         H            2.472981670112     2.881560045642     0.000002126411     1.007825032230
         H           -4.194378329888    -1.622413954358    -0.885673873589     1.007825032230
         H           -4.194345329888    -1.622429954358     0.885671126411     1.007825032230
         H           -4.966507329888    -0.300501954358     0.000025126411     1.007825032230
         H            4.359909670112    -1.394083954358    -0.000007873589     1.007825032230
         H            2.392299670112    -2.951348954358     0.000001126411     1.007825032230

  Basis Set: AUG-CC-PVTZ
    Blend: AUG-CC-PVTZ
  Basis Set: (AUG-CC-PVTZ AUX)
    Blend: AUG-CC-PVTZ-JKFIT
	 Reference Energy          =    -548.6182678701717350 [Eh]
	 Singles Energy            =      -0.0000000000000000 [Eh]
	 Same-Spin Energy          =      -0.6103103699225019 [Eh]
	 Opposite-Spin Energy      =      -1.8789138858889851 [Eh]
	 Correlation Energy        =      -2.4892242558114868 [Eh]
	 Total Energy              =    -551.1074921259831854 [Eh]

	 ================> DF-SCS-MP2 Energies <==================
	-----------------------------------------------------------
	 SCS Same-Spin Scale       =       0.3333333333333333 [-]
	 SCS Opposite-Spin Scale   =       1.2000000000000000 [-]
	 SCS Same-Spin Energy      =      -0.2034367899741673 [Eh]
	 SCS Opposite-Spin Energy  =      -2.2546966630667820 [Eh]
	 SCS Correlation Energy    =      -2.4581334530409493 [Eh]
	 SCS Total Energy          =    -551.0764013232127354 [Eh]
	-----------------------------------------------------------

  Dipole Moment: [D]
     X:     0.3456      Y:    -1.7614      Z:     0.0000     Total:     1.7950

*** Psi4 exiting successfully. Buy a developer a beer!
