                               Psi4 1.4a3.dev225

  ==> Input File <==

--------------------------------------------------------------------------
#psi4
#
memory 32 gb

molecule  {
0 1
  N       -1.5932770    -0.7762670    -0.0000010
  N       -1.2433830     1.4240120     0.0000010
  N        0.9927230    -1.4534560     0.0000030
  C       -0.6561680     0.2207960     0.0000070
  C        0.7646460    -0.1168500     0.0000020
  C        1.7974510     0.8476430     0.0000020
  C       -2.8387770    -0.2049930    -0.0000090
  C       -2.5875250     1.1588080    -0.0000060
  C        3.1063280     0.3562510    -0.0000040
  C        1.5337640     2.3273650     0.0000030
  C       -4.1038310    -0.9929000     0.0000030
  C        3.3549510    -1.0153620    -0.0000030
  C        2.4202760    -1.7566506    -0.0000013
  H       -1.3380790    -1.7591850     0.0000060
  H       -3.3182890     1.9585790    -0.0000140
  H        3.9358980     1.0613790    -0.0000050
  H        0.9464400     2.6235720    -0.8719580
  H        0.9464450     2.6235710     0.8719680
  H        2.4827640     2.8719440     0.0000020
  H       -4.1845960    -1.6320300    -0.8856740
  H       -4.1845630    -1.6320460     0.8856710
  H       -4.9567250    -0.3101180     0.0000250
  H        4.3696920    -1.4037000    -0.0000080
  H        2.4020820    -2.9609650     0.0000010
units angstrom
no_reorient  #important for SAPT in psi4, default
symmetry c1  #important for SAPT in psi4, default
}

set PROPERTIES_ORIGIN ["COM"]
properties('MP2/aug-cc-pvtz', properties = ['dipole'])
--------------------------------------------------------------------------

    Molecular point group: c1
  Charge       = 0
  Multiplicity = 1
  Basis Set: AUG-CC-PVTZ
    Blend: AUG-CC-PVTZ
  Basis Set: (AUG-CC-PVTZ AUX)
    Blend: AUG-CC-PVTZ-JKFIT

    Orbital Energies [Eh]
    ---------------------

    Doubly Occupied:

       1A    -15.610209     2A    -15.575730     3A    -15.548366
       4A    -11.294988     5A    -11.294121     6A    -11.268863
       7A    -11.261181     8A    -11.258464     9A    -11.252185
      10A    -11.239568    11A    -11.236886    12A    -11.216134
      13A    -11.216046    14A     -1.337454    15A     -1.245261
      16A     -1.163412    17A     -1.112643    18A     -1.079245
      19A     -1.039432    20A     -0.951800    21A     -0.936038
      22A     -0.875385    23A     -0.831489    24A     -0.806269
      25A     -0.770895    26A     -0.721417    27A     -0.677456
      28A     -0.672112    29A     -0.628861    30A     -0.619806
      31A     -0.584862    32A     -0.581168    33A     -0.567931
      34A     -0.566808    35A     -0.560661    36A     -0.554368
      37A     -0.546967    38A     -0.540999    39A     -0.526987
      40A     -0.473641    41A     -0.444420    42A     -0.430625
      43A     -0.406826    44A     -0.394572    45A     -0.348553
      46A     -0.290022

  @DF-RHF Final Energy:  -548.56100968294436

   => Energetics <=

    Nuclear Repulsion Energy =            742.6406377401708596
    One-Electron Energy =               -2217.2810408726209062
    Two-Electron Energy =                 926.0793934495056874
    Total Energy =                       -548.5610096829443592
  Basis Set: (AUG-CC-PVTZ AUX)
    Blend: AUG-CC-PVTZ-RI
    Molecular point group: c1

    Geometry (in Angstrom), charge = 0, multiplicity = 1:

       Center              X                  Y                   Z               Mass
    ------------   -----------------  -----------------  -----------------  -----------------
         N           -1.620724184142    -0.776608632159    -0.000000887454    14.003074004430
         N           -1.270830184142     1.423670367841     0.000001112546    14.003074004430
         N            0.965275815858    -1.453797632159     0.000003112546    14.003074004430
         C           -0.683615184142     0.220454367841     0.000007112546    12.000000000000
         C            0.737198815858    -0.117191632159     0.000002112546    12.000000000000
         C            1.770003815858     0.847301367841     0.000002112546    12.000000000000
         C           -2.866224184142    -0.205334632159    -0.000008887454    12.000000000000
         C           -2.614972184142     1.158466367841    -0.000005887454    12.000000000000
         C            3.078880815858     0.355909367841    -0.000003887454    12.000000000000
         C            1.506316815858     2.327023367841     0.000003112546    12.000000000000
         C           -4.131278184142    -0.993241632159     0.000003112546    12.000000000000
         C            3.327503815858    -1.015703632159    -0.000002887454    12.000000000000
         C            2.392828815858    -1.756992232159    -0.000001187454    12.000000000000
         H           -1.365526184142    -1.759526632159     0.000006112546     1.007825032230
         H           -3.345736184142     1.958237367841    -0.000013887454     1.007825032230
         H            3.908450815858     1.061037367841    -0.000004887454     1.007825032230
         H            0.918992815858     2.623230367841    -0.871957887454     1.007825032230
         H            0.918997815858     2.623229367841     0.871968112546     1.007825032230
         H            2.455316815858     2.871602367841     0.000002112546     1.007825032230
         H           -4.212043184142    -1.632371632159    -0.885673887454     1.007825032230
         H           -4.212010184142    -1.632387632159     0.885671112546     1.007825032230
         H           -4.984172184142    -0.310459632159     0.000025112546     1.007825032230
         H            4.342244815858    -1.404041632159    -0.000007887454     1.007825032230
         H            2.374634815858    -2.961306632159     0.000001112546     1.007825032230

  Basis Set: AUG-CC-PVTZ
    Blend: AUG-CC-PVTZ
  Basis Set: (AUG-CC-PVTZ AUX)
    Blend: AUG-CC-PVTZ-JKFIT
	 Reference Energy          =    -548.5610096829443592 [Eh]
	 Singles Energy            =      -0.0000000000000000 [Eh]
	 Same-Spin Energy          =      -0.6115099278697602 [Eh]
	 Opposite-Spin Energy      =      -1.8821500318632975 [Eh]
	 Correlation Energy        =      -2.4936599597330575 [Eh]
	 Total Energy              =    -551.0546696426773678 [Eh]

	 ================> DF-SCS-MP2 Energies <==================
	-----------------------------------------------------------
	 SCS Same-Spin Scale       =       0.3333333333333333 [-]
	 SCS Opposite-Spin Scale   =       1.2000000000000000 [-]
	 SCS Same-Spin Energy      =      -0.2038366426232534 [Eh]
	 SCS Opposite-Spin Energy  =      -2.2585800382359569 [Eh]
	 SCS Correlation Energy    =      -2.4624166808592101 [Eh]
	 SCS Total Energy          =    -551.0234263638035372 [Eh]
	-----------------------------------------------------------

  Dipole Moment: [D]
     X:     0.0329      Y:    -1.4467      Z:     0.0000     Total:     1.4471

*** Psi4 exiting successfully. Buy a developer a beer!
