                               Psi4 1.4a3.dev225

  ==> Input File <==

--------------------------------------------------------------------------
#psi4
#
memory 32 gb

molecule  {
0 1
  N       -1.5932770    -0.7762670    -0.0000010
  N       -1.2433830     1.4240120     0.0000010
  N        0.9927230    -1.4534560     0.0000030
  C       -0.6561680     0.2207960     0.0000070
  C        0.7646460    -0.1168500     0.0000020
  C        1.7974510     0.8476430     0.0000020
  C       -2.8387770    -0.2049930    -0.0000090
  C       -2.5875250     1.1588080    -0.0000060
  C        3.1063280     0.3562510    -0.0000040
  C        1.5337640     2.3273650     0.0000030
  C       -4.1038310    -0.9929000     0.0000030
  C        3.3549510    -1.0153620    -0.0000030
  C        2.2825323    -1.8873053    -0.0000011
  H       -1.3380790    -1.7591850     0.0000060
  H       -3.3182890     1.9585790    -0.0000140
  H        3.9358980     1.0613790    -0.0000050
  H        0.9464400     2.6235720    -0.8719580
  H        0.9464450     2.6235710     0.8719680
  H        2.4827640     2.8719440     0.0000020
  H       -4.1845960    -1.6320300    -0.8856740
  H       -4.1845630    -1.6320460     0.8856710
  H       -4.9567250    -0.3101180     0.0000250
  H        4.3696920    -1.4037000    -0.0000080
  H        2.4020820    -2.9609650     0.0000010
units angstrom
no_reorient  #important for SAPT in psi4, default
symmetry c1  #important for SAPT in psi4, default
}

set PROPERTIES_ORIGIN ["COM"]
properties('MP2/aug-cc-pvtz', properties = ['dipole'])
--------------------------------------------------------------------------

    Molecular point group: c1
  Charge       = 0
  Multiplicity = 1
  Basis Set: AUG-CC-PVTZ
    Blend: AUG-CC-PVTZ
  Basis Set: (AUG-CC-PVTZ AUX)
    Blend: AUG-CC-PVTZ-JKFIT

    Orbital Energies [Eh]
    ---------------------

    Doubly Occupied:

       1A    -15.607540     2A    -15.573532     3A    -15.544312
       4A    -11.293409     5A    -11.289747     6A    -11.276610
       7A    -11.265450     8A    -11.256386     9A    -11.252858
      10A    -11.242446    11A    -11.237746    12A    -11.234706
      13A    -11.215572    14A     -1.335090    15A     -1.253324
      16A     -1.160626    17A     -1.097342    18A     -1.073545
      19A     -1.029774    20A     -0.955953    21A     -0.930245
      22A     -0.865323    23A     -0.835882    24A     -0.804579
      25A     -0.778990    26A     -0.727395    27A     -0.675616
      28A     -0.660509    29A     -0.628937    30A     -0.617834
      31A     -0.594800    32A     -0.579345    33A     -0.575584
      34A     -0.565164    35A     -0.561401    36A     -0.552518
      37A     -0.548010    38A     -0.544801    39A     -0.521064
      40A     -0.507107    41A     -0.433919    42A     -0.424525
      43A     -0.394584    44A     -0.386514    45A     -0.353843
      46A     -0.280081

  @DF-RHF Final Energy:  -548.62580779714176

   => Energetics <=

    Nuclear Repulsion Energy =            741.0771782510138337
    One-Electron Energy =               -2214.3168940698974438
    Two-Electron Energy =                 924.6139080217419632
    Total Energy =                       -548.6258077971417606
  Basis Set: (AUG-CC-PVTZ AUX)
    Blend: AUG-CC-PVTZ-RI
    Molecular point group: c1

    Geometry (in Angstrom), charge = 0, multiplicity = 1:

       Center              X                  Y                   Z               Mass
    ------------   -----------------  -----------------  -----------------  -----------------
         N           -1.611174968045    -0.767550867887    -0.000000901319    14.003074004430
         N           -1.261280968045     1.432728132113     0.000001098681    14.003074004430
         N            0.974825031955    -1.444739867887     0.000003098681    14.003074004430
         C           -0.674065968045     0.229512132113     0.000007098681    12.000000000000
         C            0.746748031955    -0.108133867887     0.000002098681    12.000000000000
         C            1.779553031955     0.856359132113     0.000002098681    12.000000000000
         C           -2.856674968045    -0.196276867887    -0.000008901319    12.000000000000
         C           -2.605422968045     1.167524132113    -0.000005901319    12.000000000000
         C            3.088430031955     0.364967132113    -0.000003901319    12.000000000000
         C            1.515866031955     2.336081132113     0.000003098681    12.000000000000
         C           -4.121728968045    -0.984183867887     0.000003098681    12.000000000000
         C            3.337053031955    -1.006645867887    -0.000002901319    12.000000000000
         C            2.264634331955    -1.878589167887    -0.000001001319    12.000000000000
         H           -1.355976968045    -1.750468867887     0.000006098681     1.007825032230
         H           -3.336186968045     1.967295132113    -0.000013901319     1.007825032230
         H            3.918000031955     1.070095132113    -0.000004901319     1.007825032230
         H            0.928542031955     2.632288132113    -0.871957901319     1.007825032230
         H            0.928547031955     2.632287132113     0.871968098681     1.007825032230
         H            2.464866031955     2.880660132113     0.000002098681     1.007825032230
         H           -4.202493968045    -1.623313867887    -0.885673901319     1.007825032230
         H           -4.202460968045    -1.623329867887     0.885671098681     1.007825032230
         H           -4.974622968045    -0.301401867887     0.000025098681     1.007825032230
         H            4.351794031955    -1.394983867887    -0.000007901319     1.007825032230
         H            2.384184031955    -2.952248867887     0.000001098681     1.007825032230

  Basis Set: AUG-CC-PVTZ
    Blend: AUG-CC-PVTZ
  Basis Set: (AUG-CC-PVTZ AUX)
    Blend: AUG-CC-PVTZ-JKFIT
	 Reference Energy          =    -548.6258077971417606 [Eh]
	 Singles Energy            =      -0.0000000000000000 [Eh]
	 Same-Spin Energy          =      -0.6117329406153585 [Eh]
	 Opposite-Spin Energy      =      -1.8790082269082005 [Eh]
	 Correlation Energy        =      -2.4907411675235589 [Eh]
	 Total Energy              =    -551.1165489646652986 [Eh]

	 ================> DF-SCS-MP2 Energies <==================
	-----------------------------------------------------------
	 SCS Same-Spin Scale       =       0.3333333333333333 [-]
	 SCS Opposite-Spin Scale   =       1.2000000000000000 [-]
	 SCS Same-Spin Energy      =      -0.2039109802051195 [Eh]
	 SCS Opposite-Spin Energy  =      -2.2548098722898406 [Eh]
	 SCS Correlation Energy    =      -2.4587208524949600 [Eh]
	 SCS Total Energy          =    -551.0845286496366953 [Eh]
	-----------------------------------------------------------

  Dipole Moment: [D]
     X:     0.1664      Y:    -1.7507      Z:     0.0000     Total:     1.7586

*** Psi4 exiting successfully. Buy a developer a beer!
