                               Psi4 1.4a3.dev225

  ==> Input File <==

--------------------------------------------------------------------------
#psi4
#
memory 32 gb

molecule  {
0 1
  N       -1.5932770    -0.7762670    -0.0000010
  N       -1.2433830     1.4240120     0.0000010
  N        0.9927230    -1.4534560     0.0000030
  C       -0.7931399     0.0750610     0.0000058
  C        0.7646460    -0.1168500     0.0000020
  C        1.7974510     0.8476430     0.0000020
  C       -2.8387770    -0.2049930    -0.0000090
  C       -2.5875250     1.1588080    -0.0000060
  C        3.1063280     0.3562510    -0.0000040
  C        1.5337640     2.3273650     0.0000030
  C       -4.1038310    -0.9929000     0.0000030
  C        3.3549510    -1.0153620    -0.0000030
  C        2.2635760    -1.8809290    -0.0000010
  H       -1.3380790    -1.7591850     0.0000060
  H       -3.3182890     1.9585790    -0.0000140
  H        3.9358980     1.0613790    -0.0000050
  H        0.9464400     2.6235720    -0.8719580
  H        0.9464450     2.6235710     0.8719680
  H        2.4827640     2.8719440     0.0000020
  H       -4.1845960    -1.6320300    -0.8856740
  H       -4.1845630    -1.6320460     0.8856710
  H       -4.9567250    -0.3101180     0.0000250
  H        4.3696920    -1.4037000    -0.0000080
  H        2.4020820    -2.9609650     0.0000010
units angstrom
no_reorient  #important for SAPT in psi4, default
symmetry c1  #important for SAPT in psi4, default
}

set PROPERTIES_ORIGIN ["COM"]
properties('MP2/aug-cc-pvtz', properties = ['dipole'])
--------------------------------------------------------------------------

    Molecular point group: c1
  Charge       = 0
  Multiplicity = 1
  Basis Set: AUG-CC-PVTZ
    Blend: AUG-CC-PVTZ
  Basis Set: (AUG-CC-PVTZ AUX)
    Blend: AUG-CC-PVTZ-JKFIT

    Orbital Energies [Eh]
    ---------------------

    Doubly Occupied:

       1A    -15.621784     2A    -15.572946     3A    -15.531208
       4A    -11.295754     5A    -11.291171     6A    -11.276564
       7A    -11.257775     8A    -11.255434     9A    -11.248380
      10A    -11.244097    11A    -11.239407    12A    -11.233047
      13A    -11.212726    14A     -1.397439    15A     -1.258575
      16A     -1.162122    17A     -1.098904    18A     -1.067935
      19A     -1.034567    20A     -0.949065    21A     -0.921137
      22A     -0.855140    23A     -0.839116    24A     -0.834173
      25A     -0.801635    26A     -0.730485    27A     -0.673228
      28A     -0.662567    29A     -0.646279    30A     -0.617345
      31A     -0.593320    32A     -0.577214    33A     -0.575706
      34A     -0.569928    35A     -0.560321    36A     -0.551481
      37A     -0.546815    38A     -0.531197    39A     -0.523466
      40A     -0.485339    41A     -0.431197    42A     -0.428338
      43A     -0.398253    44A     -0.384685    45A     -0.348352
      46A     -0.280267

  @DF-RHF Final Energy:  -548.56648749997680

   => Energetics <=

    Nuclear Repulsion Energy =            742.2955172318397672
    One-Electron Energy =               -2216.4922383588827870
    Two-Electron Energy =                 925.6302336270662181
    Total Energy =                       -548.5664874999768017
  Basis Set: (AUG-CC-PVTZ AUX)
    Blend: AUG-CC-PVTZ-RI
    Molecular point group: c1

    Geometry (in Angstrom), charge = 0, multiplicity = 1:

       Center              X                  Y                   Z               Mass
    ------------   -----------------  -----------------  -----------------  -----------------
         N           -1.600365093782    -0.757889690343    -0.000000825060    14.003074004430
         N           -1.250471093782     1.442389309657     0.000001174940    14.003074004430
         N            0.985634906218    -1.435078690343     0.000003174940    14.003074004430
         C           -0.800227993782     0.093438309657     0.000005974940    12.000000000000
         C            0.757557906218    -0.098472690343     0.000002174940    12.000000000000
         C            1.790362906218     0.866020309657     0.000002174940    12.000000000000
         C           -2.845865093782    -0.186615690343    -0.000008825060    12.000000000000
         C           -2.594613093782     1.177185309657    -0.000005825060    12.000000000000
         C            3.099239906218     0.374628309657    -0.000003825060    12.000000000000
         C            1.526675906218     2.345742309657     0.000003174940    12.000000000000
         C           -4.110919093782    -0.974522690343     0.000003174940    12.000000000000
         C            3.347862906218    -0.996984690343    -0.000002825060    12.000000000000
         C            2.256487906218    -1.862551690343    -0.000000825060    12.000000000000
         H           -1.345167093782    -1.740807690343     0.000006174940     1.007825032230
         H           -3.325377093782     1.976956309657    -0.000013825060     1.007825032230
         H            3.928809906218     1.079756309657    -0.000004825060     1.007825032230
         H            0.939351906218     2.641949309657    -0.871957825060     1.007825032230
         H            0.939356906218     2.641948309657     0.871968174940     1.007825032230
         H            2.475675906218     2.890321309657     0.000002174940     1.007825032230
         H           -4.191684093782    -1.613652690343    -0.885673825060     1.007825032230
         H           -4.191651093782    -1.613668690343     0.885671174940     1.007825032230
         H           -4.963813093782    -0.291740690343     0.000025174940     1.007825032230
         H            4.362603906218    -1.385322690343    -0.000007825060     1.007825032230
         H            2.394993906218    -2.942587690343     0.000001174940     1.007825032230

  Basis Set: AUG-CC-PVTZ
    Blend: AUG-CC-PVTZ
  Basis Set: (AUG-CC-PVTZ AUX)
    Blend: AUG-CC-PVTZ-JKFIT
	 Reference Energy          =    -548.5664874999768017 [Eh]
	 Singles Energy            =      -0.0000000000000000 [Eh]
	 Same-Spin Energy          =      -0.6108307018091516 [Eh]
	 Opposite-Spin Energy      =      -1.8774174631782761 [Eh]
	 Correlation Energy        =      -2.4882481649874277 [Eh]
	 Total Energy              =    -551.0547356649642552 [Eh]

	 ================> DF-SCS-MP2 Energies <==================
	-----------------------------------------------------------
	 SCS Same-Spin Scale       =       0.3333333333333333 [-]
	 SCS Opposite-Spin Scale   =       1.2000000000000000 [-]
	 SCS Same-Spin Energy      =      -0.2036102339363838 [Eh]
	 SCS Opposite-Spin Energy  =      -2.2529009558139310 [Eh]
	 SCS Correlation Energy    =      -2.4565111897503149 [Eh]
	 SCS Total Energy          =    -551.0229986897271601 [Eh]
	-----------------------------------------------------------

  Dipole Moment: [D]
     X:     0.2867      Y:    -2.0816      Z:     0.0000     Total:     2.1013

*** Psi4 exiting successfully. Buy a developer a beer!
