                               Psi4 1.4a3.dev225

  ==> Input File <==

--------------------------------------------------------------------------
#psi4
#
memory 32 gb

molecule  {
0 1
  N       -1.5932770    -0.7762670    -0.0000010
  N       -1.2433830     1.4240120     0.0000010
  N        0.9927230    -1.4534560     0.0000030
  C       -0.6219250     0.2572298     0.0000073
  C        0.7646460    -0.1168500     0.0000020
  C        1.7974510     0.8476430     0.0000020
  C       -2.8387770    -0.2049930    -0.0000090
  C       -2.5875250     1.1588080    -0.0000060
  C        3.1063280     0.3562510    -0.0000040
  C        1.5337640     2.3273650     0.0000030
  C       -4.1038310    -0.9929000     0.0000030
  C        3.3549510    -1.0153620    -0.0000030
  C        2.2635760    -1.8809290    -0.0000010
  H       -1.3380790    -1.7591850     0.0000060
  H       -3.3182890     1.9585790    -0.0000140
  H        3.9358980     1.0613790    -0.0000050
  H        0.9464400     2.6235720    -0.8719580
  H        0.9464450     2.6235710     0.8719680
  H        2.4827640     2.8719440     0.0000020
  H       -4.1845960    -1.6320300    -0.8856740
  H       -4.1845630    -1.6320460     0.8856710
  H       -4.9567250    -0.3101180     0.0000250
  H        4.3696920    -1.4037000    -0.0000080
  H        2.4020820    -2.9609650     0.0000010
units angstrom
no_reorient  #important for SAPT in psi4, default
symmetry c1  #important for SAPT in psi4, default
}

set PROPERTIES_ORIGIN ["COM"]
properties('MP2/aug-cc-pvtz', properties = ['dipole'])
--------------------------------------------------------------------------

    Molecular point group: c1
  Charge       = 0
  Multiplicity = 1
  Basis Set: AUG-CC-PVTZ
    Blend: AUG-CC-PVTZ
  Basis Set: (AUG-CC-PVTZ AUX)
    Blend: AUG-CC-PVTZ-JKFIT

    Orbital Energies [Eh]
    ---------------------

    Doubly Occupied:

       1A    -15.602822     2A    -15.572845     3A    -15.546919
       4A    -11.294158     5A    -11.288212     6A    -11.277462
       7A    -11.268820     8A    -11.256124     9A    -11.252221
      10A    -11.243271    11A    -11.238575    12A    -11.233726
      13A    -11.216374    14A     -1.326047    15A     -1.258099
      16A     -1.159896    17A     -1.098787    18A     -1.074618
      19A     -1.027239    20A     -0.959205    21A     -0.931384
      22A     -0.868847    23A     -0.835836    24A     -0.800756
      25A     -0.773997    26A     -0.722657    27A     -0.676906
      28A     -0.660426    29A     -0.633296    30A     -0.614579
      31A     -0.594490    32A     -0.580907    33A     -0.574916
      34A     -0.568095    35A     -0.558705    36A     -0.550657
      37A     -0.549077    38A     -0.545504    39A     -0.522552
      40A     -0.509883    41A     -0.432649    42A     -0.422371
      43A     -0.396491    44A     -0.386109    45A     -0.356118
      46A     -0.277782

  @DF-RHF Final Energy:  -548.62307009744973

   => Energetics <=

    Nuclear Repulsion Energy =            741.2640699193434557
    One-Electron Energy =               -2214.6934527946709750
    Two-Electron Energy =                 924.8063127778777925
    Total Energy =                       -548.6230700974497267
  Basis Set: (AUG-CC-PVTZ AUX)
    Blend: AUG-CC-PVTZ-RI
    Molecular point group: c1

    Geometry (in Angstrom), charge = 0, multiplicity = 1:

       Center              X                  Y                   Z               Mass
    ------------   -----------------  -----------------  -----------------  -----------------
         N           -1.612234733404    -0.770518719746    -0.000000929049    14.003074004430
         N           -1.262340733404     1.429760280254     0.000001070951    14.003074004430
         N            0.973765266596    -1.447707719746     0.000003070951    14.003074004430
         C           -0.640882733404     0.262978080254     0.000007370951    12.000000000000
         C            0.745688266596    -0.111101719746     0.000002070951    12.000000000000
         C            1.778493266596     0.853391280254     0.000002070951    12.000000000000
         C           -2.857734733404    -0.199244719746    -0.000008929049    12.000000000000
         C           -2.606482733404     1.164556280254    -0.000005929049    12.000000000000
         C            3.087370266596     0.361999280254    -0.000003929049    12.000000000000
         C            1.514806266596     2.333113280254     0.000003070951    12.000000000000
         C           -4.122788733404    -0.987151719746     0.000003070951    12.000000000000
         C            3.335993266596    -1.009613719746    -0.000002929049    12.000000000000
         C            2.244618266596    -1.875180719746    -0.000000929049    12.000000000000
         H           -1.357036733404    -1.753436719746     0.000006070951     1.007825032230
         H           -3.337246733404     1.964327280254    -0.000013929049     1.007825032230
         H            3.916940266596     1.067127280254    -0.000004929049     1.007825032230
         H            0.927482266596     2.629320280254    -0.871957929049     1.007825032230
         H            0.927487266596     2.629319280254     0.871968070951     1.007825032230
         H            2.463806266596     2.877692280254     0.000002070951     1.007825032230
         H           -4.203553733404    -1.626281719746    -0.885673929049     1.007825032230
         H           -4.203520733404    -1.626297719746     0.885671070951     1.007825032230
         H           -4.975682733404    -0.304369719746     0.000025070951     1.007825032230
         H            4.350734266596    -1.397951719746    -0.000007929049     1.007825032230
         H            2.383124266596    -2.955216719746     0.000001070951     1.007825032230

  Basis Set: AUG-CC-PVTZ
    Blend: AUG-CC-PVTZ
  Basis Set: (AUG-CC-PVTZ AUX)
    Blend: AUG-CC-PVTZ-JKFIT
	 Reference Energy          =    -548.6230700974497267 [Eh]
	 Singles Energy            =      -0.0000000000000000 [Eh]
	 Same-Spin Energy          =      -0.6120212993072411 [Eh]
	 Opposite-Spin Energy      =      -1.8793746689215396 [Eh]
	 Correlation Energy        =      -2.4913959682287805 [Eh]
	 Total Energy              =    -551.1144660656784708 [Eh]

	 ================> DF-SCS-MP2 Energies <==================
	-----------------------------------------------------------
	 SCS Same-Spin Scale       =       0.3333333333333333 [-]
	 SCS Opposite-Spin Scale   =       1.2000000000000000 [-]
	 SCS Same-Spin Energy      =      -0.2040070997690804 [Eh]
	 SCS Opposite-Spin Energy  =      -2.2552496027058475 [Eh]
	 SCS Correlation Energy    =      -2.4592567024749279 [Eh]
	 SCS Total Energy          =    -551.0823267999246582 [Eh]
	-----------------------------------------------------------

  Dipole Moment: [D]
     X:     0.1774      Y:    -1.6718      Z:     0.0000     Total:     1.6812

*** Psi4 exiting successfully. Buy a developer a beer!
