                               Psi4 1.4a3.dev225

  ==> Input File <==

--------------------------------------------------------------------------
#psi4
#
memory 32 gb

molecule  {
0 1
  N       -1.5932770    -0.7762670    -0.0000010
  N       -1.2433830     1.4240120     0.0000010
  N        0.9927230    -1.4534560     0.0000030
  C       -0.6836782     0.0704308     0.0000066
  C        0.7646460    -0.1168500     0.0000020
  C        1.7974510     0.8476430     0.0000020
  C       -2.8387770    -0.2049930    -0.0000090
  C       -2.5875250     1.1588080    -0.0000060
  C        3.1063280     0.3562510    -0.0000040
  C        1.5337640     2.3273650     0.0000030
  C       -4.1038310    -0.9929000     0.0000030
  C        3.3549510    -1.0153620    -0.0000030
  C        2.2635760    -1.8809290    -0.0000010
  H       -1.3380790    -1.7591850     0.0000060
  H       -3.3182890     1.9585790    -0.0000140
  H        3.9358980     1.0613790    -0.0000050
  H        0.9464400     2.6235720    -0.8719580
  H        0.9464450     2.6235710     0.8719680
  H        2.4827640     2.8719440     0.0000020
  H       -4.1845960    -1.6320300    -0.8856740
  H       -4.1845630    -1.6320460     0.8856710
  H       -4.9567250    -0.3101180     0.0000250
  H        4.3696920    -1.4037000    -0.0000080
  H        2.4020820    -2.9609650     0.0000010
units angstrom
no_reorient  #important for SAPT in psi4, default
symmetry c1  #important for SAPT in psi4, default
}

set PROPERTIES_ORIGIN ["COM"]
properties('MP2/aug-cc-pvtz', properties = ['dipole'])
--------------------------------------------------------------------------

    Molecular point group: c1
  Charge       = 0
  Multiplicity = 1
  Basis Set: AUG-CC-PVTZ
    Blend: AUG-CC-PVTZ
  Basis Set: (AUG-CC-PVTZ AUX)
    Blend: AUG-CC-PVTZ-JKFIT

    Orbital Energies [Eh]
    ---------------------

    Doubly Occupied:

       1A    -15.622675     2A    -15.572683     3A    -15.538017
       4A    -11.292670     5A    -11.291404     6A    -11.277137
       7A    -11.258267     8A    -11.256216     9A    -11.254653
      10A    -11.244574    11A    -11.238975    12A    -11.235248
      13A    -11.213529    14A     -1.362994    15A     -1.261030
      16A     -1.145428    17A     -1.099544    18A     -1.076016
      19A     -1.033822    20A     -0.955928    21A     -0.923255
      22A     -0.861420    23A     -0.838257    24A     -0.818301
      25A     -0.792927    26A     -0.737995    27A     -0.675365
      28A     -0.661705    29A     -0.629929    30A     -0.619489
      31A     -0.593686    32A     -0.578163    33A     -0.578134
      34A     -0.572829    35A     -0.556202    36A     -0.551971
      37A     -0.547720    38A     -0.536557    39A     -0.523529
      40A     -0.497838    41A     -0.431386    42A     -0.421327
      43A     -0.391883    44A     -0.386668    45A     -0.354266
      46A     -0.272669

  @DF-RHF Final Energy:  -548.59372726125241

   => Energetics <=

    Nuclear Repulsion Energy =            741.7375031294242262
    One-Electron Energy =               -2215.4938966629997594
    Two-Electron Energy =                 925.1626662723232357
    Total Energy =                       -548.5937272612524112
  Basis Set: (AUG-CC-PVTZ AUX)
    Blend: AUG-CC-PVTZ-RI
    Molecular point group: c1

    Geometry (in Angstrom), charge = 0, multiplicity = 1:

       Center              X                  Y                   Z               Mass
    ------------   -----------------  -----------------  -----------------  -----------------
         N           -1.607953632697    -0.757568697220    -0.000000880521    14.003074004430
         N           -1.258059632697     1.442710302780     0.000001119479    14.003074004430
         N            0.978046367303    -1.434757697220     0.000003119479    14.003074004430
         C           -0.698354832697     0.089129102780     0.000006719479    12.000000000000
         C            0.749969367303    -0.098151697220     0.000002119479    12.000000000000
         C            1.782774367303     0.866341302780     0.000002119479    12.000000000000
         C           -2.853453632697    -0.186294697220    -0.000008880521    12.000000000000
         C           -2.602201632697     1.177506302780    -0.000005880521    12.000000000000
         C            3.091651367303     0.374949302780    -0.000003880521    12.000000000000
         C            1.519087367303     2.346063302780     0.000003119479    12.000000000000
         C           -4.118507632697    -0.974201697220     0.000003119479    12.000000000000
         C            3.340274367303    -0.996663697220    -0.000002880521    12.000000000000
         C            2.248899367303    -1.862230697220    -0.000000880521    12.000000000000
         H           -1.352755632697    -1.740486697220     0.000006119479     1.007825032230
         H           -3.332965632697     1.977277302780    -0.000013880521     1.007825032230
         H            3.921221367303     1.080077302780    -0.000004880521     1.007825032230
         H            0.931763367303     2.642270302780    -0.871957880521     1.007825032230
         H            0.931768367303     2.642269302780     0.871968119479     1.007825032230
         H            2.468087367303     2.890642302780     0.000002119479     1.007825032230
         H           -4.199272632697    -1.613331697220    -0.885673880521     1.007825032230
         H           -4.199239632697    -1.613347697220     0.885671119479     1.007825032230
         H           -4.971401632697    -0.291419697220     0.000025119479     1.007825032230
         H            4.355015367303    -1.385001697220    -0.000007880521     1.007825032230
         H            2.387405367303    -2.942266697220     0.000001119479     1.007825032230

  Basis Set: AUG-CC-PVTZ
    Blend: AUG-CC-PVTZ
  Basis Set: (AUG-CC-PVTZ AUX)
    Blend: AUG-CC-PVTZ-JKFIT
	 Reference Energy          =    -548.5937272612524112 [Eh]
	 Singles Energy            =      -0.0000000000000000 [Eh]
	 Same-Spin Energy          =      -0.6135795993426714 [Eh]
	 Opposite-Spin Energy      =      -1.8816092721500470 [Eh]
	 Correlation Energy        =      -2.4951888714927186 [Eh]
	 Total Energy              =    -551.0889161327451120 [Eh]

	 ================> DF-SCS-MP2 Energies <==================
	-----------------------------------------------------------
	 SCS Same-Spin Scale       =       0.3333333333333333 [-]
	 SCS Opposite-Spin Scale   =       1.2000000000000000 [-]
	 SCS Same-Spin Energy      =      -0.2045265331142238 [Eh]
	 SCS Opposite-Spin Energy  =      -2.2579311265800563 [Eh]
	 SCS Correlation Energy    =      -2.4624576596942802 [Eh]
	 SCS Total Energy          =    -551.0561849209466345 [Eh]
	-----------------------------------------------------------

  Dipole Moment: [D]
     X:     0.0194      Y:    -1.9879      Z:     0.0000     Total:     1.9880

*** Psi4 exiting successfully. Buy a developer a beer!
