                               Psi4 1.4a3.dev225

  ==> Input File <==

--------------------------------------------------------------------------
#psi4
#
memory 32 gb

molecule  {
0 1
  N       -1.5932770    -0.7762670    -0.0000010
  N       -1.2433830     1.4240120     0.0000010
  N        0.9927230    -1.4534560     0.0000030
  C       -0.6561680     0.2207960     0.0000070
  C        0.8711208    -0.2195239     0.0000013
  C        1.7974510     0.8476430     0.0000020
  C       -2.8387770    -0.2049930    -0.0000090
  C       -2.5875250     1.1588080    -0.0000060
  C        3.1063280     0.3562510    -0.0000040
  C        1.5337640     2.3273650     0.0000030
  C       -4.1038310    -0.9929000     0.0000030
  C        3.3549510    -1.0153620    -0.0000030
  C        2.2635760    -1.8809290    -0.0000010
  H       -1.3380790    -1.7591850     0.0000060
  H       -3.3182890     1.9585790    -0.0000140
  H        3.9358980     1.0613790    -0.0000050
  H        0.9464400     2.6235720    -0.8719580
  H        0.9464450     2.6235710     0.8719680
  H        2.4827640     2.8719440     0.0000020
  H       -4.1845960    -1.6320300    -0.8856740
  H       -4.1845630    -1.6320460     0.8856710
  H       -4.9567250    -0.3101180     0.0000250
  H        4.3696920    -1.4037000    -0.0000080
  H        2.4020820    -2.9609650     0.0000010
units angstrom
no_reorient  #important for SAPT in psi4, default
symmetry c1  #important for SAPT in psi4, default
}

set PROPERTIES_ORIGIN ["COM"]
properties('MP2/aug-cc-pvtz', properties = ['dipole'])
--------------------------------------------------------------------------

    Molecular point group: c1
  Charge       = 0
  Multiplicity = 1
  Basis Set: AUG-CC-PVTZ
    Blend: AUG-CC-PVTZ
  Basis Set: (AUG-CC-PVTZ AUX)
    Blend: AUG-CC-PVTZ-JKFIT

    Orbital Energies [Eh]
    ---------------------

    Doubly Occupied:

       1A    -15.602051     2A    -15.570401     3A    -15.537614
       4A    -11.292198     5A    -11.291504     6A    -11.280028
       7A    -11.258214     8A    -11.257079     9A    -11.254587
      10A    -11.245409    11A    -11.233685    12A    -11.229651
      13A    -11.220572    14A     -1.331115    15A     -1.299464
      16A     -1.154368    17A     -1.109734    18A     -1.064334
      19A     -1.027518    20A     -0.954057    21A     -0.926801
      22A     -0.857142    23A     -0.849838    24A     -0.799950
      25A     -0.777943    26A     -0.719167    27A     -0.685814
      28A     -0.658895    29A     -0.623067    30A     -0.613521
      31A     -0.590260    32A     -0.585833    33A     -0.578147
      34A     -0.562678    35A     -0.557088    36A     -0.553346
      37A     -0.550219    38A     -0.539138    39A     -0.538207
      40A     -0.503685    41A     -0.438004    42A     -0.416247
      43A     -0.398536    44A     -0.388508    45A     -0.347805
      46A     -0.283489

  @DF-RHF Final Energy:  -548.60664734299962

   => Energetics <=

    Nuclear Repulsion Energy =            741.6408989019857927
    One-Electron Energy =               -2215.3812644976387674
    Two-Electron Energy =                 925.1337182526533525
    Total Energy =                       -548.6066473429996222
  Basis Set: (AUG-CC-PVTZ AUX)
    Blend: AUG-CC-PVTZ-RI
    Molecular point group: c1

    Geometry (in Angstrom), charge = 0, multiplicity = 1:

       Center              X                  Y                   Z               Mass
    ------------   -----------------  -----------------  -----------------  -----------------
         N           -1.617242273257    -0.760874943021    -0.000000859723    14.003074004430
         N           -1.267348273257     1.439404056979     0.000001140277    14.003074004430
         N            0.968757726743    -1.438063943021     0.000003140277    14.003074004430
         C           -0.680133273257     0.236188056979     0.000007140277    12.000000000000
         C            0.847155526743    -0.204131843021     0.000001440277    12.000000000000
         C            1.773485726743     0.863035056979     0.000002140277    12.000000000000
         C           -2.862742273257    -0.189600943021    -0.000008859723    12.000000000000
         C           -2.611490273257     1.174200056979    -0.000005859723    12.000000000000
         C            3.082362726743     0.371643056979    -0.000003859723    12.000000000000
         C            1.509798726743     2.342757056979     0.000003140277    12.000000000000
         C           -4.127796273257    -0.977507943021     0.000003140277    12.000000000000
         C            3.330985726743    -0.999969943021    -0.000002859723    12.000000000000
         C            2.239610726743    -1.865536943021    -0.000000859723    12.000000000000
         H           -1.362044273257    -1.743792943021     0.000006140277     1.007825032230
         H           -3.342254273257     1.973971056979    -0.000013859723     1.007825032230
         H            3.911932726743     1.076771056979    -0.000004859723     1.007825032230
         H            0.922474726743     2.638964056979    -0.871957859723     1.007825032230
         H            0.922479726743     2.638963056979     0.871968140277     1.007825032230
         H            2.458798726743     2.887336056979     0.000002140277     1.007825032230
         H           -4.208561273257    -1.616637943021    -0.885673859723     1.007825032230
         H           -4.208528273257    -1.616653943021     0.885671140277     1.007825032230
         H           -4.980690273257    -0.294725943021     0.000025140277     1.007825032230
         H            4.345726726743    -1.388307943021    -0.000007859723     1.007825032230
         H            2.378116726743    -2.945572943021     0.000001140277     1.007825032230

  Basis Set: AUG-CC-PVTZ
    Blend: AUG-CC-PVTZ
  Basis Set: (AUG-CC-PVTZ AUX)
    Blend: AUG-CC-PVTZ-JKFIT
	 Reference Energy          =    -548.6066473429996222 [Eh]
	 Singles Energy            =      -0.0000000000000000 [Eh]
	 Same-Spin Energy          =      -0.6094987661002595 [Eh]
	 Opposite-Spin Energy      =      -1.8757667549170660 [Eh]
	 Correlation Energy        =      -2.4852655210173253 [Eh]
	 Total Energy              =    -551.0919128640169902 [Eh]

	 ================> DF-SCS-MP2 Energies <==================
	-----------------------------------------------------------
	 SCS Same-Spin Scale       =       0.3333333333333333 [-]
	 SCS Opposite-Spin Scale   =       1.2000000000000000 [-]
	 SCS Same-Spin Energy      =      -0.2031662553667532 [Eh]
	 SCS Opposite-Spin Energy  =      -2.2509201059004793 [Eh]
	 SCS Correlation Energy    =      -2.4540863612672323 [Eh]
	 SCS Total Energy          =    -551.0607337042669087 [Eh]
	-----------------------------------------------------------

  Dipole Moment: [D]
     X:     0.7888      Y:    -1.8546      Z:     0.0000     Total:     2.0154

*** Psi4 exiting successfully. Buy a developer a beer!
