                               Psi4 1.4a3.dev225

  ==> Input File <==

--------------------------------------------------------------------------
#psi4
#
memory 32 gb

molecule  {
0 1
  N       -1.5932770    -0.7762670    -0.0000010
  N       -1.2433830     1.4240120     0.0000010
  N        0.9927230    -1.4534560     0.0000030
  C       -0.6561680     0.2207960     0.0000070
  C        0.7646460    -0.1168500     0.0000020
  C        1.7974510     0.8476430     0.0000020
  C       -2.8387770    -0.2049930    -0.0000090
  C       -2.5875250     1.1588080    -0.0000060
  C        3.1063280     0.3562510    -0.0000040
  C        1.5337640     2.3273650     0.0000030
  C       -4.1038310    -0.9929000     0.0000030
  C        3.3549510    -1.0153620    -0.0000030
  C        2.2635760    -1.8809290    -0.0000010
  H       -1.3380790    -1.7591850     0.0000060
  H       -3.3182890     1.9585790    -0.0000140
  H        3.9358980     1.0613790    -0.0000050
  H        0.9464400     2.6235720    -0.8719580
  H        0.9464450     2.6235710     0.8719680
  H        2.4827640     2.8719440     0.0000020
  H       -4.2807866    -1.5749136    -0.9107005
  H       -4.1845630    -1.6320460     0.8856710
  H       -4.9567250    -0.3101180     0.0000250
  H        4.3696920    -1.4037000    -0.0000080
  H        2.4020820    -2.9609650     0.0000010
units angstrom
no_reorient  #important for SAPT in psi4, default
symmetry c1  #important for SAPT in psi4, default
}

set PROPERTIES_ORIGIN ["COM"]
properties('MP2/aug-cc-pvtz', properties = ['dipole'])
--------------------------------------------------------------------------

    Molecular point group: c1
  Charge       = 0
  Multiplicity = 1
  Basis Set: AUG-CC-PVTZ
    Blend: AUG-CC-PVTZ
  Basis Set: (AUG-CC-PVTZ AUX)
    Blend: AUG-CC-PVTZ-JKFIT

    Orbital Energies [Eh]
    ---------------------

    Doubly Occupied:

       1A    -15.607655     2A    -15.572697     3A    -15.544227
       4A    -11.293522     5A    -11.289425     6A    -11.277161
       7A    -11.265727     8A    -11.256361     9A    -11.252749
      10A    -11.243350    11A    -11.237168    12A    -11.235179
      13A    -11.215579    14A     -1.335235    15A     -1.258142
      16A     -1.160602    17A     -1.098630    18A     -1.072987
      19A     -1.028818    20A     -0.957001    21A     -0.929495
      22A     -0.865178    23A     -0.835953    24A     -0.804801
      25A     -0.779181    26A     -0.727989    27A     -0.676224
      28A     -0.661178    29A     -0.628188    30A     -0.618737
      31A     -0.593843    32A     -0.581557    33A     -0.575398
      34A     -0.564816    35A     -0.561327    36A     -0.554922
      37A     -0.547933    38A     -0.537871    39A     -0.522933
      40A     -0.507731    41A     -0.433426    42A     -0.424268
      43A     -0.394610    44A     -0.386583    45A     -0.355257
      46A     -0.279660

  @DF-RHF Final Energy:  -548.62563115056264

   => Energetics <=

    Nuclear Repulsion Energy =            741.2635699440008921
    One-Electron Energy =               -2214.6758637231700959
    Two-Electron Energy =                 924.7866626286065639
    Total Energy =                       -548.6256311505626400
  Basis Set: (AUG-CC-PVTZ AUX)
    Blend: AUG-CC-PVTZ-RI
    Molecular point group: c1

    Geometry (in Angstrom), charge = 0, multiplicity = 1:

       Center              X                  Y                   Z               Mass
    ------------   -----------------  -----------------  -----------------  -----------------
         N           -1.609300746737    -0.768325463961     0.000144805315    14.003074004430
         N           -1.259406746737     1.431953536039     0.000146805315    14.003074004430
         N            0.976699253263    -1.445514463961     0.000148805315    14.003074004430
         C           -0.672191746737     0.228737536039     0.000152805315    12.000000000000
         C            0.748622253263    -0.108908463961     0.000147805315    12.000000000000
         C            1.781427253263     0.855584536039     0.000147805315    12.000000000000
         C           -2.854800746737    -0.197051463961     0.000136805315    12.000000000000
         C           -2.603548746737     1.166749536039     0.000139805315    12.000000000000
         C            3.090304253263     0.364192536039     0.000141805315    12.000000000000
         C            1.517740253263     2.335306536039     0.000148805315    12.000000000000
         C           -4.119854746737    -0.984958463961     0.000148805315    12.000000000000
         C            3.338927253263    -1.007420463961     0.000142805315    12.000000000000
         C            2.247552253263    -1.872987463961     0.000144805315    12.000000000000
         H           -1.354102746737    -1.751243463961     0.000151805315     1.007825032230
         H           -3.334312746737     1.966520536039     0.000131805315     1.007825032230
         H            3.919874253263     1.069320536039     0.000140805315     1.007825032230
         H            0.930416253263     2.631513536039    -0.871812194685     1.007825032230
         H            0.930421253263     2.631512536039     0.872113805315     1.007825032230
         H            2.466740253263     2.879885536039     0.000147805315     1.007825032230
         H           -4.296810346737    -1.566972063961    -0.910554694685     1.007825032230
         H           -4.200586746737    -1.624104463961     0.885816805315     1.007825032230
         H           -4.972748746737    -0.302176463961     0.000170805315     1.007825032230
         H            4.353668253263    -1.395758463961     0.000137805315     1.007825032230
         H            2.386058253263    -2.953023463961     0.000146805315     1.007825032230

  Basis Set: AUG-CC-PVTZ
    Blend: AUG-CC-PVTZ
  Basis Set: (AUG-CC-PVTZ AUX)
    Blend: AUG-CC-PVTZ-JKFIT
	 Reference Energy          =    -548.6256311505626400 [Eh]
	 Singles Energy            =      -0.0000000000000000 [Eh]
	 Same-Spin Energy          =      -0.6117006676803503 [Eh]
	 Opposite-Spin Energy      =      -1.8786709374502744 [Eh]
	 Correlation Energy        =      -2.4903716051306244 [Eh]
	 Total Energy              =    -551.1160027556932164 [Eh]

	 ================> DF-SCS-MP2 Energies <==================
	-----------------------------------------------------------
	 SCS Same-Spin Scale       =       0.3333333333333333 [-]
	 SCS Opposite-Spin Scale   =       1.2000000000000000 [-]
	 SCS Same-Spin Energy      =      -0.2039002225601168 [Eh]
	 SCS Opposite-Spin Energy  =      -2.2544051249403290 [Eh]
	 SCS Correlation Energy    =      -2.4583053475004455 [Eh]
	 SCS Total Energy          =    -551.0839364980630535 [Eh]
	-----------------------------------------------------------

  Dipole Moment: [D]
     X:     0.1479      Y:    -1.7270      Z:    -0.0193     Total:     1.7334

*** Psi4 exiting successfully. Buy a developer a beer!
