                               Psi4 1.4a3.dev225

  ==> Input File <==

--------------------------------------------------------------------------
#psi4
#
memory 32 gb

molecule  {
0 1
  N       -1.5932770    -0.7762670    -0.0000010
  N       -1.2433830     1.4240120     0.0000010
  N        0.9927230    -1.4534560     0.0000030
  C       -0.6561680     0.2207960     0.0000070
  C        0.7646460    -0.1168500     0.0000020
  C        1.7974510     0.8476430     0.0000020
  C       -2.8387770    -0.2049930    -0.0000090
  C       -2.5875250     1.1588080    -0.0000060
  C        3.1063280     0.3562510    -0.0000040
  C        1.5337640     2.3273650     0.0000030
  C       -4.1038310    -0.9929000     0.0000030
  C        3.3549510    -1.0153620    -0.0000030
  C        2.2792460    -1.8685012    -0.0000010
  H       -1.3380790    -1.7591850     0.0000060
  H       -3.3182890     1.9585790    -0.0000140
  H        3.9358980     1.0613790    -0.0000050
  H        0.9464400     2.6235720    -0.8719580
  H        0.9464450     2.6235710     0.8719680
  H        2.4827640     2.8719440     0.0000020
  H       -4.1845960    -1.6320300    -0.8856740
  H       -4.1845630    -1.6320460     0.8856710
  H       -4.9567250    -0.3101180     0.0000250
  H        4.3696920    -1.4037000    -0.0000080
  H        2.4020820    -2.9609650     0.0000010
units angstrom
no_reorient  #important for SAPT in psi4, default
symmetry c1  #important for SAPT in psi4, default
}

set PROPERTIES_ORIGIN ["COM"]
properties('MP2/aug-cc-pvtz', properties = ['dipole'])
--------------------------------------------------------------------------

    Molecular point group: c1
  Charge       = 0
  Multiplicity = 1
  Basis Set: AUG-CC-PVTZ
    Blend: AUG-CC-PVTZ
  Basis Set: (AUG-CC-PVTZ AUX)
    Blend: AUG-CC-PVTZ-JKFIT

    Orbital Energies [Eh]
    ---------------------

    Doubly Occupied:

       1A    -15.607843     2A    -15.572999     3A    -15.544548
       4A    -11.293511     5A    -11.289915     6A    -11.275890
       7A    -11.265710     8A    -11.256563     9A    -11.252516
      10A    -11.241055    11A    -11.237902    12A    -11.234917
      13A    -11.215517    14A     -1.335389    15A     -1.256368
      16A     -1.160858    17A     -1.098254    18A     -1.074338
      19A     -1.030304    20A     -0.956225    21A     -0.929966
      22A     -0.866321    23A     -0.835441    24A     -0.805008
      25A     -0.778058    26A     -0.727046    27A     -0.675305
      28A     -0.662249    29A     -0.628758    30A     -0.618106
      31A     -0.592254    32A     -0.579771    33A     -0.574658
      34A     -0.565086    35A     -0.561383    36A     -0.552620
      37A     -0.548381    38A     -0.544956    39A     -0.522696
      40A     -0.505920    41A     -0.434443    42A     -0.425466
      43A     -0.394824    44A     -0.387029    45A     -0.354691
      46A     -0.280379

  @DF-RHF Final Energy:  -548.62617644412830

   => Energetics <=

    Nuclear Repulsion Energy =            741.4853686450329633
    One-Electron Energy =               -2215.1202138034122981
    Two-Electron Energy =                 925.0086687142511437
    Total Energy =                       -548.6261764441283049
  Basis Set: (AUG-CC-PVTZ AUX)
    Blend: AUG-CC-PVTZ-RI
    Molecular point group: c1

    Geometry (in Angstrom), charge = 0, multiplicity = 1:

       Center              X                  Y                   Z               Mass
    ------------   -----------------  -----------------  -----------------  -----------------
         N           -1.610947142098    -0.768854480426    -0.000000908252    14.003074004430
         N           -1.261053142098     1.431424519574     0.000001091748    14.003074004430
         N            0.975052857902    -1.446043480426     0.000003091748    14.003074004430
         C           -0.673838142098     0.228208519574     0.000007091748    12.000000000000
         C            0.746975857902    -0.109437480426     0.000002091748    12.000000000000
         C            1.779780857902     0.855055519574     0.000002091748    12.000000000000
         C           -2.856447142098    -0.197580480426    -0.000008908252    12.000000000000
         C           -2.605195142098     1.166220519574    -0.000005908252    12.000000000000
         C            3.088657857902     0.363663519574    -0.000003908252    12.000000000000
         C            1.516093857902     2.334777519574     0.000003091748    12.000000000000
         C           -4.121501142098    -0.985487480426     0.000003091748    12.000000000000
         C            3.337280857902    -1.007949480426    -0.000002908252    12.000000000000
         C            2.261575857902    -1.861088680426    -0.000000908252    12.000000000000
         H           -1.355749142098    -1.751772480426     0.000006091748     1.007825032230
         H           -3.335959142098     1.965991519574    -0.000013908252     1.007825032230
         H            3.918227857902     1.068791519574    -0.000004908252     1.007825032230
         H            0.928769857902     2.630984519574    -0.871957908252     1.007825032230
         H            0.928774857902     2.630983519574     0.871968091748     1.007825032230
         H            2.465093857902     2.879356519574     0.000002091748     1.007825032230
         H           -4.202266142098    -1.624617480426    -0.885673908252     1.007825032230
         H           -4.202233142098    -1.624633480426     0.885671091748     1.007825032230
         H           -4.974395142098    -0.302705480426     0.000025091748     1.007825032230
         H            4.352021857902    -1.396287480426    -0.000007908252     1.007825032230
         H            2.384411857902    -2.953552480426     0.000001091748     1.007825032230

  Basis Set: AUG-CC-PVTZ
    Blend: AUG-CC-PVTZ
  Basis Set: (AUG-CC-PVTZ AUX)
    Blend: AUG-CC-PVTZ-JKFIT
	 Reference Energy          =    -548.6261764441283049 [Eh]
	 Singles Energy            =      -0.0000000000000000 [Eh]
	 Same-Spin Energy          =      -0.6116739444753717 [Eh]
	 Opposite-Spin Energy      =      -1.8787817232120296 [Eh]
	 Correlation Energy        =      -2.4904556676874012 [Eh]
	 Total Energy              =    -551.1166321118157612 [Eh]

	 ================> DF-SCS-MP2 Energies <==================
	-----------------------------------------------------------
	 SCS Same-Spin Scale       =       0.3333333333333333 [-]
	 SCS Opposite-Spin Scale   =       1.2000000000000000 [-]
	 SCS Same-Spin Energy      =      -0.2038913148251239 [Eh]
	 SCS Opposite-Spin Energy  =      -2.2545380678544356 [Eh]
	 SCS Correlation Energy    =      -2.4584293826795593 [Eh]
	 SCS Total Energy          =    -551.0846058268078878 [Eh]
	-----------------------------------------------------------

  Dipole Moment: [D]
     X:     0.1528      Y:    -1.7221      Z:     0.0000     Total:     1.7289

*** Psi4 exiting successfully. Buy a developer a beer!
