                               Psi4 1.4a3.dev225

  ==> Input File <==

--------------------------------------------------------------------------
#psi4
#
memory 32 gb

molecule  {
0 1
  N       -1.5932770    -0.7762670    -0.0000010
  N       -1.2433830     1.4240120     0.0000010
  N        0.9927230    -1.4534560     0.0000030
  C       -0.6561680     0.2207960     0.0000070
  C        0.7814668    -0.2154252     0.0000021
  C        1.7974510     0.8476430     0.0000020
  C       -2.8387770    -0.2049930    -0.0000090
  C       -2.5875250     1.1588080    -0.0000060
  C        3.1063280     0.3562510    -0.0000040
  C        1.5337640     2.3273650     0.0000030
  C       -4.1038310    -0.9929000     0.0000030
  C        3.3549510    -1.0153620    -0.0000030
  C        2.2635760    -1.8809290    -0.0000010
  H       -1.3380790    -1.7591850     0.0000060
  H       -3.3182890     1.9585790    -0.0000140
  H        3.9358980     1.0613790    -0.0000050
  H        0.9464400     2.6235720    -0.8719580
  H        0.9464450     2.6235710     0.8719680
  H        2.4827640     2.8719440     0.0000020
  H       -4.1845960    -1.6320300    -0.8856740
  H       -4.1845630    -1.6320460     0.8856710
  H       -4.9567250    -0.3101180     0.0000250
  H        4.3696920    -1.4037000    -0.0000080
  H        2.4020820    -2.9609650     0.0000010
units angstrom
no_reorient  #important for SAPT in psi4, default
symmetry c1  #important for SAPT in psi4, default
}

set PROPERTIES_ORIGIN ["COM"]
properties('MP2/aug-cc-pvtz', properties = ['dipole'])
--------------------------------------------------------------------------

    Molecular point group: c1
  Charge       = 0
  Multiplicity = 1
  Basis Set: AUG-CC-PVTZ
    Blend: AUG-CC-PVTZ
  Basis Set: (AUG-CC-PVTZ AUX)
    Blend: AUG-CC-PVTZ-JKFIT

    Orbital Energies [Eh]
    ---------------------

    Doubly Occupied:

       1A    -15.605486     2A    -15.567824     3A    -15.544086
       4A    -11.293468     5A    -11.291444     6A    -11.276096
       7A    -11.263477     8A    -11.257661     9A    -11.252336
      10A    -11.243749    11A    -11.236715    12A    -11.234106
      13A    -11.217823    14A     -1.335325    15A     -1.287079
      16A     -1.159229    17A     -1.101085    18A     -1.068016
      19A     -1.028679    20A     -0.955744    21A     -0.930391
      22A     -0.858970    23A     -0.839840    24A     -0.802310
      25A     -0.783120    26A     -0.723776    27A     -0.683697
      28A     -0.656221    29A     -0.627116    30A     -0.617345
      31A     -0.591625    32A     -0.582048    33A     -0.576807
      34A     -0.563782    35A     -0.560303    36A     -0.552905
      37A     -0.552292    38A     -0.543261    39A     -0.533444
      40A     -0.508958    41A     -0.434926    42A     -0.417307
      43A     -0.397655    44A     -0.392433    45A     -0.345044
      46A     -0.281662

  @DF-RHF Final Energy:  -548.61838848196214

   => Energetics <=

    Nuclear Repulsion Energy =            741.6127963750036542
    One-Electron Energy =               -2215.3090387088841453
    Two-Electron Energy =                 925.0778538519183485
    Total Energy =                       -548.6183884819621426
  Basis Set: (AUG-CC-PVTZ AUX)
    Blend: AUG-CC-PVTZ-RI
    Molecular point group: c1

    Geometry (in Angstrom), charge = 0, multiplicity = 1:

       Center              X                  Y                   Z               Mass
    ------------   -----------------  -----------------  -----------------  -----------------
         N           -1.611026922428    -0.761159089388    -0.000000915184    14.003074004430
         N           -1.261132922428     1.439119910612     0.000001084816    14.003074004430
         N            0.974973077572    -1.438348089388     0.000003084816    14.003074004430
         C           -0.673917922428     0.235903910612     0.000007084816    12.000000000000
         C            0.763716877572    -0.200317289388     0.000002184816    12.000000000000
         C            1.779701077572     0.862750910612     0.000002084816    12.000000000000
         C           -2.856526922428    -0.189885089388    -0.000008915184    12.000000000000
         C           -2.605274922428     1.173915910612    -0.000005915184    12.000000000000
         C            3.088578077572     0.371358910612    -0.000003915184    12.000000000000
         C            1.516014077572     2.342472910612     0.000003084816    12.000000000000
         C           -4.121580922428    -0.977792089388     0.000003084816    12.000000000000
         C            3.337201077572    -1.000254089388    -0.000002915184    12.000000000000
         C            2.245826077572    -1.865821089388    -0.000000915184    12.000000000000
         H           -1.355828922428    -1.744077089388     0.000006084816     1.007825032230
         H           -3.336038922428     1.973686910612    -0.000013915184     1.007825032230
         H            3.918148077572     1.076486910612    -0.000004915184     1.007825032230
         H            0.928690077572     2.638679910612    -0.871957915184     1.007825032230
         H            0.928695077572     2.638678910612     0.871968084816     1.007825032230
         H            2.465014077572     2.887051910612     0.000002084816     1.007825032230
         H           -4.202345922428    -1.616922089388    -0.885673915184     1.007825032230
         H           -4.202312922428    -1.616938089388     0.885671084816     1.007825032230
         H           -4.974474922428    -0.295010089388     0.000025084816     1.007825032230
         H            4.351942077572    -1.388592089388    -0.000007915184     1.007825032230
         H            2.384332077572    -2.945857089388     0.000001084816     1.007825032230

  Basis Set: AUG-CC-PVTZ
    Blend: AUG-CC-PVTZ
  Basis Set: (AUG-CC-PVTZ AUX)
    Blend: AUG-CC-PVTZ-JKFIT
	 Reference Energy          =    -548.6183884819621426 [Eh]
	 Singles Energy            =      -0.0000000000000000 [Eh]
	 Same-Spin Energy          =      -0.6101112872445916 [Eh]
	 Opposite-Spin Energy      =      -1.8764223403972673 [Eh]
	 Correlation Energy        =      -2.4865336276418590 [Eh]
	 Total Energy              =    -551.1049221096039901 [Eh]

	 ================> DF-SCS-MP2 Energies <==================
	-----------------------------------------------------------
	 SCS Same-Spin Scale       =       0.3333333333333333 [-]
	 SCS Opposite-Spin Scale   =       1.2000000000000000 [-]
	 SCS Same-Spin Energy      =      -0.2033704290815305 [Eh]
	 SCS Opposite-Spin Energy  =      -2.2517068084767207 [Eh]
	 SCS Correlation Energy    =      -2.4550772375582510 [Eh]
	 SCS Total Energy          =    -551.0734657195204136 [Eh]
	-----------------------------------------------------------

  Dipole Moment: [D]
     X:     0.2775      Y:    -1.7878      Z:     0.0000     Total:     1.8092

*** Psi4 exiting successfully. Buy a developer a beer!
