                               Psi4 1.4a3.dev225

  ==> Input File <==

--------------------------------------------------------------------------
#psi4
#
memory 32 gb

molecule  {
0 1
  N       -1.5932770    -0.7762670    -0.0000010
  N       -1.2433830     1.4240120     0.0000010
  N        0.9927230    -1.4534560     0.0000030
  C       -0.6561680     0.2207960     0.0000070
  C        0.7310045     0.0803003     0.0000019
  C        1.7974510     0.8476430     0.0000020
  C       -2.8387770    -0.2049930    -0.0000090
  C       -2.5875250     1.1588080    -0.0000060
  C        3.1063280     0.3562510    -0.0000040
  C        1.5337640     2.3273650     0.0000030
  C       -4.1038310    -0.9929000     0.0000030
  C        3.3549510    -1.0153620    -0.0000030
  C        2.2635760    -1.8809290    -0.0000010
  H       -1.3380790    -1.7591850     0.0000060
  H       -3.3182890     1.9585790    -0.0000140
  H        3.9358980     1.0613790    -0.0000050
  H        0.9464400     2.6235720    -0.8719580
  H        0.9464450     2.6235710     0.8719680
  H        2.4827640     2.8719440     0.0000020
  H       -4.1845960    -1.6320300    -0.8856740
  H       -4.1845630    -1.6320460     0.8856710
  H       -4.9567250    -0.3101180     0.0000250
  H        4.3696920    -1.4037000    -0.0000080
  H        2.4020820    -2.9609650     0.0000010
units angstrom
no_reorient  #important for SAPT in psi4, default
symmetry c1  #important for SAPT in psi4, default
}

set PROPERTIES_ORIGIN ["COM"]
properties('MP2/aug-cc-pvtz', properties = ['dipole'])
--------------------------------------------------------------------------

    Molecular point group: c1
  Charge       = 0
  Multiplicity = 1
  Basis Set: AUG-CC-PVTZ
    Blend: AUG-CC-PVTZ
  Basis Set: (AUG-CC-PVTZ AUX)
    Blend: AUG-CC-PVTZ-JKFIT

    Orbital Energies [Eh]
    ---------------------

    Doubly Occupied:

       1A    -15.612112     2A    -15.575274     3A    -15.543762
       4A    -11.293146     5A    -11.282787     6A    -11.277675
       7A    -11.268816     8A    -11.261070     9A    -11.244376
      10A    -11.242187    11A    -11.239655    12A    -11.235462
      13A    -11.210836    14A     -1.337214    15A     -1.222520
      16A     -1.164048    17A     -1.102066    18A     -1.075832
      19A     -1.030167    20A     -0.960890    21A     -0.925838
      22A     -0.875545    23A     -0.835182    24A     -0.806734
      25A     -0.770603    26A     -0.735186    27A     -0.674097
      28A     -0.659734    29A     -0.630444    30A     -0.620702
      31A     -0.595543    32A     -0.580370    33A     -0.577559
      34A     -0.566552    35A     -0.558598    36A     -0.553256
      37A     -0.550248    38A     -0.538001    39A     -0.507805
      40A     -0.501327    41A     -0.432652    42A     -0.410940
      43A     -0.398520    44A     -0.376422    45A     -0.369255
      46A     -0.276056

  @DF-RHF Final Energy:  -548.58012275116778

   => Energetics <=

    Nuclear Repulsion Energy =            741.3341526536928541
    One-Electron Energy =               -2214.8144223104627599
    Two-Electron Energy =                 924.9001469056021278
    Total Energy =                       -548.5801227511677780
  Basis Set: (AUG-CC-PVTZ AUX)
    Blend: AUG-CC-PVTZ-RI
    Molecular point group: c1

    Geometry (in Angstrom), charge = 0, multiplicity = 1:

       Center              X                  Y                   Z               Mass
    ------------   -----------------  -----------------  -----------------  -----------------
         N           -1.607528574355    -0.781660547568    -0.000000901319    14.003074004430
         N           -1.257634574355     1.418618452432     0.000001098681    14.003074004430
         N            0.978471425645    -1.458849547568     0.000003098681    14.003074004430
         C           -0.670419574355     0.215402452432     0.000007098681    12.000000000000
         C            0.716752925645     0.074906752432     0.000001998681    12.000000000000
         C            1.783199425645     0.842249452432     0.000002098681    12.000000000000
         C           -2.853028574355    -0.210386547568    -0.000008901319    12.000000000000
         C           -2.601776574355     1.153414452432    -0.000005901319    12.000000000000
         C            3.092076425645     0.350857452432    -0.000003901319    12.000000000000
         C            1.519512425645     2.321971452432     0.000003098681    12.000000000000
         C           -4.118082574355    -0.998293547568     0.000003098681    12.000000000000
         C            3.340699425645    -1.020755547568    -0.000002901319    12.000000000000
         C            2.249324425645    -1.886322547568    -0.000000901319    12.000000000000
         H           -1.352330574355    -1.764578547568     0.000006098681     1.007825032230
         H           -3.332540574355     1.953185452432    -0.000013901319     1.007825032230
         H            3.921646425645     1.055985452432    -0.000004901319     1.007825032230
         H            0.932188425645     2.618178452432    -0.871957901319     1.007825032230
         H            0.932193425645     2.618177452432     0.871968098681     1.007825032230
         H            2.468512425645     2.866550452432     0.000002098681     1.007825032230
         H           -4.198847574355    -1.637423547568    -0.885673901319     1.007825032230
         H           -4.198814574355    -1.637439547568     0.885671098681     1.007825032230
         H           -4.970976574355    -0.315511547568     0.000025098681     1.007825032230
         H            4.355440425645    -1.409093547568    -0.000007901319     1.007825032230
         H            2.387830425645    -2.966358547568     0.000001098681     1.007825032230

  Basis Set: AUG-CC-PVTZ
    Blend: AUG-CC-PVTZ
  Basis Set: (AUG-CC-PVTZ AUX)
    Blend: AUG-CC-PVTZ-JKFIT
	 Reference Energy          =    -548.5801227511677780 [Eh]
	 Singles Energy            =      -0.0000000000000000 [Eh]
	 Same-Spin Energy          =      -0.6139240596257997 [Eh]
	 Opposite-Spin Energy      =      -1.8858281516286122 [Eh]
	 Correlation Energy        =      -2.4997522112544117 [Eh]
	 Total Energy              =    -551.0798749624221955 [Eh]

	 ================> DF-SCS-MP2 Energies <==================
	-----------------------------------------------------------
	 SCS Same-Spin Scale       =       0.3333333333333333 [-]
	 SCS Opposite-Spin Scale   =       1.2000000000000000 [-]
	 SCS Same-Spin Energy      =      -0.2046413532085999 [Eh]
	 SCS Opposite-Spin Energy  =      -2.2629937819543344 [Eh]
	 SCS Correlation Energy    =      -2.4676351351629342 [Eh]
	 SCS Total Energy          =    -551.0477578863307144 [Eh]
	-----------------------------------------------------------

  Dipole Moment: [D]
     X:    -0.1523      Y:    -1.8095      Z:     0.0000     Total:     1.8159

*** Psi4 exiting successfully. Buy a developer a beer!
