                               Psi4 1.4a3.dev225

  ==> Input File <==

--------------------------------------------------------------------------
#psi4
#
memory 32 gb

molecule  {
0 1
  N       -1.5932770    -0.7762670    -0.0000010
  N       -1.2433830     1.4240120     0.0000010
  N        0.9927230    -1.4534560     0.0000030
  C       -0.6670862     0.1710046     0.0000069
  C        0.7646460    -0.1168500     0.0000020
  C        1.7974510     0.8476430     0.0000020
  C       -2.8387770    -0.2049930    -0.0000090
  C       -2.5875250     1.1588080    -0.0000060
  C        3.1063280     0.3562510    -0.0000040
  C        1.5337640     2.3273650     0.0000030
  C       -4.1038310    -0.9929000     0.0000030
  C        3.3549510    -1.0153620    -0.0000030
  C        2.2635760    -1.8809290    -0.0000010
  H       -1.3380790    -1.7591850     0.0000060
  H       -3.3182890     1.9585790    -0.0000140
  H        3.9358980     1.0613790    -0.0000050
  H        0.9464400     2.6235720    -0.8719580
  H        0.9464450     2.6235710     0.8719680
  H        2.4827640     2.8719440     0.0000020
  H       -4.1845960    -1.6320300    -0.8856740
  H       -4.1845630    -1.6320460     0.8856710
  H       -4.9567250    -0.3101180     0.0000250
  H        4.3696920    -1.4037000    -0.0000080
  H        2.4020820    -2.9609650     0.0000010
units angstrom
no_reorient  #important for SAPT in psi4, default
symmetry c1  #important for SAPT in psi4, default
}

set PROPERTIES_ORIGIN ["COM"]
properties('MP2/aug-cc-pvtz', properties = ['dipole'])
--------------------------------------------------------------------------

    Molecular point group: c1
  Charge       = 0
  Multiplicity = 1
  Basis Set: AUG-CC-PVTZ
    Blend: AUG-CC-PVTZ
  Basis Set: (AUG-CC-PVTZ AUX)
    Blend: AUG-CC-PVTZ-JKFIT

    Orbital Energies [Eh]
    ---------------------

    Doubly Occupied:

       1A    -15.613167     2A    -15.572349     3A    -15.542629
       4A    -11.293068     5A    -11.289637     6A    -11.276949
       7A    -11.262182     8A    -11.256742     9A    -11.253581
      10A    -11.243437    11A    -11.237106    12A    -11.236277
      13A    -11.214675    14A     -1.342424    15A     -1.258710
      16A     -1.155576    17A     -1.098628    18A     -1.074111
      19A     -1.030892    20A     -0.956391    21A     -0.927069
      22A     -0.863265    23A     -0.836684    24A     -0.808524
      25A     -0.783797    26A     -0.731349    27A     -0.675866
      28A     -0.660831    29A     -0.625325    30A     -0.621100
      31A     -0.594104    32A     -0.579065    33A     -0.575878
      34A     -0.567747    35A     -0.557689    36A     -0.553553
      37A     -0.548169    38A     -0.543831    39A     -0.522866
      40A     -0.505158    41A     -0.431813    42A     -0.425480
      43A     -0.391447    44A     -0.387397    45A     -0.355144
      46A     -0.277532

  @DF-RHF Final Energy:  -548.62241849376119

   => Energetics <=

    Nuclear Repulsion Energy =            741.4849713980904653
    One-Electron Energy =               -2215.0963524379485534
    Two-Electron Energy =                 924.9889625460969000
    Total Energy =                       -548.6224184937611881
  Basis Set: (AUG-CC-PVTZ AUX)
    Blend: AUG-CC-PVTZ-RI
    Molecular point group: c1

    Geometry (in Angstrom), charge = 0, multiplicity = 1:

       Center              X                  Y                   Z               Mass
    ------------   -----------------  -----------------  -----------------  -----------------
         N           -1.609103889249    -0.764541073815    -0.000000901319    14.003074004430
         N           -1.259209889249     1.435737926185     0.000001098681    14.003074004430
         N            0.976896110751    -1.441730073815     0.000003098681    14.003074004430
         C           -0.682913089249     0.182730526185     0.000006998681    12.000000000000
         C            0.748819110751    -0.105124073815     0.000002098681    12.000000000000
         C            1.781624110751     0.859368926185     0.000002098681    12.000000000000
         C           -2.854603889249    -0.193267073815    -0.000008901319    12.000000000000
         C           -2.603351889249     1.170533926185    -0.000005901319    12.000000000000
         C            3.090501110751     0.367976926185    -0.000003901319    12.000000000000
         C            1.517937110751     2.339090926185     0.000003098681    12.000000000000
         C           -4.119657889249    -0.981174073815     0.000003098681    12.000000000000
         C            3.339124110751    -1.003636073815    -0.000002901319    12.000000000000
         C            2.247749110751    -1.869203073815    -0.000000901319    12.000000000000
         H           -1.353905889249    -1.747459073815     0.000006098681     1.007825032230
         H           -3.334115889249     1.970304926185    -0.000013901319     1.007825032230
         H            3.920071110751     1.073104926185    -0.000004901319     1.007825032230
         H            0.930613110751     2.635297926185    -0.871957901319     1.007825032230
         H            0.930618110751     2.635296926185     0.871968098681     1.007825032230
         H            2.466937110751     2.883669926185     0.000002098681     1.007825032230
         H           -4.200422889249    -1.620304073815    -0.885673901319     1.007825032230
         H           -4.200389889249    -1.620320073815     0.885671098681     1.007825032230
         H           -4.972551889249    -0.298392073815     0.000025098681     1.007825032230
         H            4.353865110751    -1.391974073815    -0.000007901319     1.007825032230
         H            2.386255110751    -2.949239073815     0.000001098681     1.007825032230

  Basis Set: AUG-CC-PVTZ
    Blend: AUG-CC-PVTZ
  Basis Set: (AUG-CC-PVTZ AUX)
    Blend: AUG-CC-PVTZ-JKFIT
	 Reference Energy          =    -548.6224184937611881 [Eh]
	 Singles Energy            =      -0.0000000000000000 [Eh]
	 Same-Spin Energy          =      -0.6122392030199186 [Eh]
	 Opposite-Spin Energy      =      -1.8794380573143408 [Eh]
	 Correlation Energy        =      -2.4916772603342592 [Eh]
	 Total Energy              =    -551.1140957540955014 [Eh]

	 ================> DF-SCS-MP2 Energies <==================
	-----------------------------------------------------------
	 SCS Same-Spin Scale       =       0.3333333333333333 [-]
	 SCS Opposite-Spin Scale   =       1.2000000000000000 [-]
	 SCS Same-Spin Energy      =      -0.2040797343399729 [Eh]
	 SCS Opposite-Spin Energy  =      -2.2553256687772087 [Eh]
	 SCS Correlation Energy    =      -2.4594054031171817 [Eh]
	 SCS Total Energy          =    -551.0818238968784044 [Eh]
	-----------------------------------------------------------

  Dipole Moment: [D]
     X:     0.0844      Y:    -1.8398      Z:     0.0000     Total:     1.8417

*** Psi4 exiting successfully. Buy a developer a beer!
