                               Psi4 1.4a3.dev225

  ==> Input File <==

--------------------------------------------------------------------------
#psi4
#
memory 32 gb

molecule  {
0 1
  N       -1.5932770    -0.7762670    -0.0000010
  N       -1.2433830     1.4240120     0.0000010
  N        0.9927230    -1.4534560     0.0000030
  C       -0.6561680     0.2207960     0.0000070
  C        0.7646460    -0.1168500     0.0000020
  C        1.7434740     0.8417432     0.0897674
  C       -2.8387770    -0.2049930    -0.0000090
  C       -2.5875250     1.1588080    -0.0000060
  C        3.1063280     0.3562510    -0.0000040
  C        1.5337640     2.3273650     0.0000030
  C       -4.1038310    -0.9929000     0.0000030
  C        3.3549510    -1.0153620    -0.0000030
  C        2.2635760    -1.8809290    -0.0000010
  H       -1.3380790    -1.7591850     0.0000060
  H       -3.3182890     1.9585790    -0.0000140
  H        3.9358980     1.0613790    -0.0000050
  H        0.9464400     2.6235720    -0.8719580
  H        0.9464450     2.6235710     0.8719680
  H        2.4827640     2.8719440     0.0000020
  H       -4.1845960    -1.6320300    -0.8856740
  H       -4.1845630    -1.6320460     0.8856710
  H       -4.9567250    -0.3101180     0.0000250
  H        4.3696920    -1.4037000    -0.0000080
  H        2.4020820    -2.9609650     0.0000010
units angstrom
no_reorient  #important for SAPT in psi4, default
symmetry c1  #important for SAPT in psi4, default
}

set PROPERTIES_ORIGIN ["COM"]
properties('MP2/aug-cc-pvtz', properties = ['dipole'])
--------------------------------------------------------------------------

    Molecular point group: c1
  Charge       = 0
  Multiplicity = 1
  Basis Set: AUG-CC-PVTZ
    Blend: AUG-CC-PVTZ
  Basis Set: (AUG-CC-PVTZ AUX)
    Blend: AUG-CC-PVTZ-JKFIT

    Orbital Energies [Eh]
    ---------------------

    Doubly Occupied:

       1A    -15.605952     2A    -15.572515     3A    -15.541952
       4A    -11.291339     5A    -11.283368     6A    -11.280004
       7A    -11.263714     8A    -11.263289     9A    -11.253543
      10A    -11.244306    11A    -11.236506    12A    -11.233262
      13A    -11.215838    14A     -1.333699    15A     -1.258859
      16A     -1.159112    17A     -1.093824    18A     -1.075246
      19A     -1.029361    20A     -0.956776    21A     -0.927931
      22A     -0.865192    23A     -0.838748    24A     -0.803737
      25A     -0.776146    26A     -0.727032    27A     -0.675092
      28A     -0.661210    29A     -0.628575    30A     -0.616911
      31A     -0.595472    32A     -0.579881    33A     -0.574551
      34A     -0.566112    35A     -0.559776    36A     -0.553146
      37A     -0.549951    38A     -0.544006    39A     -0.523142
      40A     -0.497215    41A     -0.433903    42A     -0.425273
      43A     -0.393191    44A     -0.383676    45A     -0.355823
      46A     -0.279500

  @DF-RHF Final Energy:  -548.62059908023332

   => Energetics <=

    Nuclear Repulsion Energy =            741.7268365102704593
    One-Electron Energy =               -2215.6395548778336888
    Two-Electron Energy =                 925.2921192873299105
    Total Energy =                       -548.6205990802333190
  Basis Set: (AUG-CC-PVTZ AUX)
    Blend: AUG-CC-PVTZ-RI
    Molecular point group: c1

    Geometry (in Angstrom), charge = 0, multiplicity = 1:

       Center              X                  Y                   Z               Mass
    ------------   -----------------  -----------------  -----------------  -----------------
         N           -1.606118796021    -0.767583901714    -0.006223981994    14.003074004430
         N           -1.256224796021     1.432695098286    -0.006221981994    14.003074004430
         N            0.979881203979    -1.444772901714    -0.006219981994    14.003074004430
         C           -0.669009796021     0.229479098286    -0.006215981994    12.000000000000
         C            0.751804203979    -0.108166901714    -0.006220981994    12.000000000000
         C            1.730632203979     0.850426298286     0.083544418006    12.000000000000
         C           -2.851618796021    -0.196309901714    -0.006231981994    12.000000000000
         C           -2.600366796021     1.167491098286    -0.006228981994    12.000000000000
         C            3.093486203979     0.364934098286    -0.006226981994    12.000000000000
         C            1.520922203979     2.336048098286    -0.006219981994    12.000000000000
         C           -4.116672796021    -0.984216901714    -0.006219981994    12.000000000000
         C            3.342109203979    -1.006678901714    -0.006225981994    12.000000000000
         C            2.250734203979    -1.872245901714    -0.006223981994    12.000000000000
         H           -1.350920796021    -1.750501901714    -0.006216981994     1.007825032230
         H           -3.331130796021     1.967262098286    -0.006236981994     1.007825032230
         H            3.923056203979     1.070062098286    -0.006227981994     1.007825032230
         H            0.933598203979     2.632255098286    -0.878180981994     1.007825032230
         H            0.933603203979     2.632254098286     0.865745018006     1.007825032230
         H            2.469922203979     2.880627098286    -0.006220981994     1.007825032230
         H           -4.197437796021    -1.623346901714    -0.891896981994     1.007825032230
         H           -4.197404796021    -1.623362901714     0.879448018006     1.007825032230
         H           -4.969566796021    -0.301434901714    -0.006197981994     1.007825032230
         H            4.356850203979    -1.395016901714    -0.006230981994     1.007825032230
         H            2.389240203979    -2.952281901714    -0.006221981994     1.007825032230

  Basis Set: AUG-CC-PVTZ
    Blend: AUG-CC-PVTZ
  Basis Set: (AUG-CC-PVTZ AUX)
    Blend: AUG-CC-PVTZ-JKFIT
	 Reference Energy          =    -548.6205990802333190 [Eh]
	 Singles Energy            =      -0.0000000000000000 [Eh]
	 Same-Spin Energy          =      -0.6115774881194627 [Eh]
	 Opposite-Spin Energy      =      -1.8789401838507647 [Eh]
	 Correlation Energy        =      -2.4905176719702276 [Eh]
	 Total Energy              =    -551.1111167522035430 [Eh]

	 ================> DF-SCS-MP2 Energies <==================
	-----------------------------------------------------------
	 SCS Same-Spin Scale       =       0.3333333333333333 [-]
	 SCS Opposite-Spin Scale   =       1.2000000000000000 [-]
	 SCS Same-Spin Energy      =      -0.2038591627064875 [Eh]
	 SCS Opposite-Spin Energy  =      -2.2547282206209176 [Eh]
	 SCS Correlation Energy    =      -2.4585873833274050 [Eh]
	 SCS Total Energy          =    -551.0791864635607453 [Eh]
	-----------------------------------------------------------

  Dipole Moment: [D]
     X:     0.2915      Y:    -1.7814      Z:    -0.0102     Total:     1.8052

*** Psi4 exiting successfully. Buy a developer a beer!
