                               Psi4 1.4a3.dev225

  ==> Input File <==

--------------------------------------------------------------------------
#psi4
#
memory 32 gb

molecule  {
0 1
  N       -1.5932770    -0.7762670    -0.0000010
  N       -1.2433830     1.4240120     0.0000010
  N        0.9927230    -1.4534560     0.0000030
  C       -0.6561680     0.2207960     0.0000070
  C        0.7646460    -0.1168500     0.0000020
  C        1.7974510     0.8476430     0.0000020
  C       -2.8387770    -0.2049930    -0.0000090
  C       -2.5875250     1.1588080    -0.0000060
  C        3.1063280     0.3562510    -0.0000040
  C        1.5337640     2.3273650     0.0000030
  C       -4.1038310    -0.9929000     0.0000030
  C        3.3549510    -1.0153620    -0.0000030
  C        2.2635760    -1.8809290    -0.0000010
  H       -1.3380790    -1.7591850     0.0000060
  H       -3.3182890     1.9585790    -0.0000140
  H        3.9358980     1.0613790    -0.0000050
  H        0.9464400     2.6235720    -0.8719580
  H        0.9464450     2.6235710     0.8719680
  H        2.4827640     2.8719440     0.0000020
  H       -4.0875205    -1.6821440    -0.8509439
  H       -4.1845630    -1.6320460     0.8856710
  H       -4.9567250    -0.3101180     0.0000250
  H        4.3696920    -1.4037000    -0.0000080
  H        2.4020820    -2.9609650     0.0000010
units angstrom
no_reorient  #important for SAPT in psi4, default
symmetry c1  #important for SAPT in psi4, default
}

set PROPERTIES_ORIGIN ["COM"]
properties('MP2/aug-cc-pvtz', properties = ['dipole'])
--------------------------------------------------------------------------

    Molecular point group: c1
  Charge       = 0
  Multiplicity = 1
  Basis Set: AUG-CC-PVTZ
    Blend: AUG-CC-PVTZ
  Basis Set: (AUG-CC-PVTZ AUX)
    Blend: AUG-CC-PVTZ-JKFIT

    Orbital Energies [Eh]
    ---------------------

    Doubly Occupied:

       1A    -15.607458     2A    -15.572563     3A    -15.543909
       4A    -11.293176     5A    -11.289309     6A    -11.277077
       7A    -11.265022     8A    -11.256241     9A    -11.252576
      10A    -11.243194    11A    -11.238342    12A    -11.234115
      13A    -11.215410    14A     -1.335073    15A     -1.258027
      16A     -1.160519    17A     -1.098498    18A     -1.073056
      19A     -1.029561    20A     -0.956915    21A     -0.929353
      22A     -0.865023    23A     -0.835805    24A     -0.804735
      25A     -0.778549    26A     -0.726524    27A     -0.676376
      28A     -0.660518    29A     -0.630054    30A     -0.617342
      31A     -0.595473    32A     -0.579070    33A     -0.574382
      34A     -0.565226    35A     -0.561932    36A     -0.553809
      37A     -0.547341    38A     -0.545768    39A     -0.522354
      40A     -0.507488    41A     -0.433248    42A     -0.424155
      43A     -0.394241    44A     -0.386376    45A     -0.354913
      46A     -0.278643

  @DF-RHF Final Energy:  -548.62583124321282

   => Energetics <=

    Nuclear Repulsion Energy =            741.5340589207447692
    One-Electron Energy =               -2215.2222966685285428
    Two-Electron Energy =                 925.0624065045708448
    Total Energy =                       -548.6258312432128150
  Basis Set: (AUG-CC-PVTZ AUX)
    Blend: AUG-CC-PVTZ-RI
    Molecular point group: c1

    Geometry (in Angstrom), charge = 0, multiplicity = 1:

       Center              X                  Y                   Z               Mass
    ------------   -----------------  -----------------  -----------------  -----------------
         N           -1.610426013665    -0.767701128794    -0.000203119777    14.003074004430
         N           -1.260532013665     1.432577871206    -0.000201119777    14.003074004430
         N            0.975573986335    -1.444890128794    -0.000199119777    14.003074004430
         C           -0.673317013665     0.229361871206    -0.000195119777    12.000000000000
         C            0.747496986335    -0.108284128794    -0.000200119777    12.000000000000
         C            1.780301986335     0.856208871206    -0.000200119777    12.000000000000
         C           -2.855926013665    -0.196427128794    -0.000211119777    12.000000000000
         C           -2.604674013665     1.167373871206    -0.000208119777    12.000000000000
         C            3.089178986335     0.364816871206    -0.000206119777    12.000000000000
         C            1.516614986335     2.335930871206    -0.000199119777    12.000000000000
         C           -4.120980013665    -0.984334128794    -0.000199119777    12.000000000000
         C            3.337801986335    -1.006796128794    -0.000205119777    12.000000000000
         C            2.246426986335    -1.872363128794    -0.000203119777    12.000000000000
         H           -1.355228013665    -1.750619128794    -0.000196119777     1.007825032230
         H           -3.335438013665     1.967144871206    -0.000216119777     1.007825032230
         H            3.918748986335     1.069944871206    -0.000207119777     1.007825032230
         H            0.929290986335     2.632137871206    -0.872160119777     1.007825032230
         H            0.929295986335     2.632136871206     0.871765880223     1.007825032230
         H            2.465614986335     2.880509871206    -0.000200119777     1.007825032230
         H           -4.104669513665    -1.673578128794    -0.851146019777     1.007825032230
         H           -4.201712013665    -1.623480128794     0.885468880223     1.007825032230
         H           -4.973874013665    -0.301552128794    -0.000177119777     1.007825032230
         H            4.352542986335    -1.395134128794    -0.000210119777     1.007825032230
         H            2.384932986335    -2.952399128794    -0.000201119777     1.007825032230

  Basis Set: AUG-CC-PVTZ
    Blend: AUG-CC-PVTZ
  Basis Set: (AUG-CC-PVTZ AUX)
    Blend: AUG-CC-PVTZ-JKFIT
	 Reference Energy          =    -548.6258312432128150 [Eh]
	 Singles Energy            =      -0.0000000000000000 [Eh]
	 Same-Spin Energy          =      -0.6116566670704040 [Eh]
	 Opposite-Spin Energy      =      -1.8786408407788315 [Eh]
	 Correlation Energy        =      -2.4902975078492355 [Eh]
	 Total Energy              =    -551.1161287510620923 [Eh]

	 ================> DF-SCS-MP2 Energies <==================
	-----------------------------------------------------------
	 SCS Same-Spin Scale       =       0.3333333333333333 [-]
	 SCS Opposite-Spin Scale   =       1.2000000000000000 [-]
	 SCS Same-Spin Energy      =      -0.2038855556901347 [Eh]
	 SCS Opposite-Spin Energy  =      -2.2543690089345976 [Eh]
	 SCS Correlation Energy    =      -2.4582545646247320 [Eh]
	 SCS Total Energy          =    -551.0840858078375959 [Eh]
	-----------------------------------------------------------

  Dipole Moment: [D]
     X:     0.1583      Y:    -1.7751      Z:     0.0236     Total:     1.7823

*** Psi4 exiting successfully. Buy a developer a beer!
