                               Psi4 1.4a3.dev225

  ==> Input File <==

--------------------------------------------------------------------------
#psi4
#
memory 32 gb

molecule  {
0 1
  N       -1.5932770    -0.7762670    -0.0000010
  N       -1.2433830     1.4240120     0.0000010
  N        0.9927230    -1.4534560     0.0000030
  C       -0.6561680     0.2207960     0.0000070
  C        0.7646460    -0.1168500     0.0000020
  C        1.7974510     0.8476430     0.0000020
  C       -2.7933296    -0.2258384    -0.0000087
  C       -2.5875250     1.1588080    -0.0000060
  C        3.1063280     0.3562510    -0.0000040
  C        1.5337640     2.3273650     0.0000030
  C       -4.1038310    -0.9929000     0.0000030
  C        3.3549510    -1.0153620    -0.0000030
  C        2.2635760    -1.8809290    -0.0000010
  H       -1.3380790    -1.7591850     0.0000060
  H       -3.3182890     1.9585790    -0.0000140
  H        3.9358980     1.0613790    -0.0000050
  H        0.9464400     2.6235720    -0.8719580
  H        0.9464450     2.6235710     0.8719680
  H        2.4827640     2.8719440     0.0000020
  H       -4.1845960    -1.6320300    -0.8856740
  H       -4.1845630    -1.6320460     0.8856710
  H       -4.9567250    -0.3101180     0.0000250
  H        4.3696920    -1.4037000    -0.0000080
  H        2.4020820    -2.9609650     0.0000010
units angstrom
no_reorient  #important for SAPT in psi4, default
symmetry c1  #important for SAPT in psi4, default
}

set PROPERTIES_ORIGIN ["COM"]
properties('MP2/aug-cc-pvtz', properties = ['dipole'])
--------------------------------------------------------------------------

    Molecular point group: c1
  Charge       = 0
  Multiplicity = 1
  Basis Set: AUG-CC-PVTZ
    Blend: AUG-CC-PVTZ
  Basis Set: (AUG-CC-PVTZ AUX)
    Blend: AUG-CC-PVTZ-JKFIT

    Orbital Energies [Eh]
    ---------------------

    Doubly Occupied:

       1A    -15.612121     2A    -15.571173     3A    -15.546468
       4A    -11.289893     5A    -11.288788     6A    -11.276403
       7A    -11.266471     8A    -11.255398     9A    -11.250975
      10A    -11.241506    11A    -11.239827    12A    -11.233449
      13A    -11.214778    14A     -1.347019    15A     -1.257722
      16A     -1.168270    17A     -1.097588    18A     -1.071448
      19A     -1.024509    20A     -0.956134    21A     -0.927917
      22A     -0.863113    23A     -0.836418    24A     -0.809924
      25A     -0.785586    26A     -0.727988    27A     -0.675897
      28A     -0.660037    29A     -0.631171    30A     -0.622846
      31A     -0.594902    32A     -0.578751    33A     -0.573296
      34A     -0.565348    35A     -0.553956    36A     -0.553148
      37A     -0.552771    38A     -0.545145    39A     -0.522823
      40A     -0.506328    41A     -0.432379    42A     -0.424155
      43A     -0.400506    44A     -0.385446    45A     -0.354019
      46A     -0.274936

  @DF-RHF Final Energy:  -548.62439987900621

   => Energetics <=

    Nuclear Repulsion Energy =            742.1194718387671401
    One-Electron Energy =               -2216.3502471369083651
    Two-Electron Energy =                 925.6063754191350199
    Total Energy =                       -548.6243998790062051
  Basis Set: (AUG-CC-PVTZ AUX)
    Blend: AUG-CC-PVTZ-RI
    Molecular point group: c1

    Geometry (in Angstrom), charge = 0, multiplicity = 1:

       Center              X                  Y                   Z               Mass
    ------------   -----------------  -----------------  -----------------  -----------------
         N           -1.613011489342    -0.766547783444    -0.000000929049    14.003074004430
         N           -1.263117489342     1.433731216556     0.000001070951    14.003074004430
         N            0.972988510658    -1.443736783444     0.000003070951    14.003074004430
         C           -0.675902489342     0.230515216556     0.000007070951    12.000000000000
         C            0.744911510658    -0.107130783444     0.000002070951    12.000000000000
         C            1.777716510658     0.857362216556     0.000002070951    12.000000000000
         C           -2.813064089342    -0.216119183444    -0.000008629049    12.000000000000
         C           -2.607259489342     1.168527216556    -0.000005929049    12.000000000000
         C            3.086593510658     0.365970216556    -0.000003929049    12.000000000000
         C            1.514029510658     2.337084216556     0.000003070951    12.000000000000
         C           -4.123565489342    -0.983180783444     0.000003070951    12.000000000000
         C            3.335216510658    -1.005642783444    -0.000002929049    12.000000000000
         C            2.243841510658    -1.871209783444    -0.000000929049    12.000000000000
         H           -1.357813489342    -1.749465783444     0.000006070951     1.007825032230
         H           -3.338023489342     1.968298216556    -0.000013929049     1.007825032230
         H            3.916163510658     1.071098216556    -0.000004929049     1.007825032230
         H            0.926705510658     2.633291216556    -0.871957929049     1.007825032230
         H            0.926710510658     2.633290216556     0.871968070951     1.007825032230
         H            2.463029510658     2.881663216556     0.000002070951     1.007825032230
         H           -4.204330489342    -1.622310783444    -0.885673929049     1.007825032230
         H           -4.204297489342    -1.622326783444     0.885671070951     1.007825032230
         H           -4.976459489342    -0.300398783444     0.000025070951     1.007825032230
         H            4.349957510658    -1.393980783444    -0.000007929049     1.007825032230
         H            2.382347510658    -2.951245783444     0.000001070951     1.007825032230

  Basis Set: AUG-CC-PVTZ
    Blend: AUG-CC-PVTZ
  Basis Set: (AUG-CC-PVTZ AUX)
    Blend: AUG-CC-PVTZ-JKFIT
	 Reference Energy          =    -548.6243998790062051 [Eh]
	 Singles Energy            =      -0.0000000000000000 [Eh]
	 Same-Spin Energy          =      -0.6118584861554260 [Eh]
	 Opposite-Spin Energy      =      -1.8783737767105357 [Eh]
	 Correlation Energy        =      -2.4902322628659617 [Eh]
	 Total Energy              =    -551.1146321418722209 [Eh]

	 ================> DF-SCS-MP2 Energies <==================
	-----------------------------------------------------------
	 SCS Same-Spin Scale       =       0.3333333333333333 [-]
	 SCS Opposite-Spin Scale   =       1.2000000000000000 [-]
	 SCS Same-Spin Energy      =      -0.2039528287184753 [Eh]
	 SCS Opposite-Spin Energy  =      -2.2540485320526429 [Eh]
	 SCS Correlation Energy    =      -2.4580013607711182 [Eh]
	 SCS Total Energy          =    -551.0824012397773686 [Eh]
	-----------------------------------------------------------

  Dipole Moment: [D]
     X:     0.1127      Y:    -1.7812      Z:     0.0000     Total:     1.7847

*** Psi4 exiting successfully. Buy a developer a beer!
