                               Psi4 1.4a3.dev225

  ==> Input File <==

--------------------------------------------------------------------------
#psi4
#
memory 32 gb

molecule  {
0 1
  N       -1.5932770    -0.7762670    -0.0000010
  N       -1.2433830     1.4240120     0.0000010
  N        0.9927230    -1.4534560     0.0000030
  C       -0.6561680     0.2207960     0.0000070
  C        0.7646460    -0.1168500     0.0000020
  C        1.7974510     0.8476430     0.0000020
  C       -2.8387770    -0.2049930    -0.0000090
  C       -2.5875250     1.1588080    -0.0000060
  C        3.1063280     0.3562510    -0.0000040
  C        1.5372727     2.3076752     0.0000030
  C       -4.1038310    -0.9929000     0.0000030
  C        3.3549510    -1.0153620    -0.0000030
  C        2.2635760    -1.8809290    -0.0000010
  H       -1.3380790    -1.7591850     0.0000060
  H       -3.3182890     1.9585790    -0.0000140
  H        3.9358980     1.0613790    -0.0000050
  H        0.9464400     2.6235720    -0.8719580
  H        0.9464450     2.6235710     0.8719680
  H        2.4827640     2.8719440     0.0000020
  H       -4.1845960    -1.6320300    -0.8856740
  H       -4.1845630    -1.6320460     0.8856710
  H       -4.9567250    -0.3101180     0.0000250
  H        4.3696920    -1.4037000    -0.0000080
  H        2.4020820    -2.9609650     0.0000010
units angstrom
no_reorient  #important for SAPT in psi4, default
symmetry c1  #important for SAPT in psi4, default
}

set PROPERTIES_ORIGIN ["COM"]
properties('MP2/aug-cc-pvtz', properties = ['dipole'])
--------------------------------------------------------------------------

    Molecular point group: c1
  Charge       = 0
  Multiplicity = 1
  Basis Set: AUG-CC-PVTZ
    Blend: AUG-CC-PVTZ
  Basis Set: (AUG-CC-PVTZ AUX)
    Blend: AUG-CC-PVTZ-JKFIT

    Orbital Energies [Eh]
    ---------------------

    Doubly Occupied:

       1A    -15.607578     2A    -15.572710     3A    -15.544119
       4A    -11.293388     5A    -11.289401     6A    -11.277151
       7A    -11.265398     8A    -11.256265     9A    -11.251952
      10A    -11.243308    11A    -11.237736    12A    -11.234683
      13A    -11.215908    14A     -1.335190    15A     -1.258231
      16A     -1.160623    17A     -1.100240    18A     -1.073431
      19A     -1.029528    20A     -0.957372    21A     -0.929163
      22A     -0.865307    23A     -0.835256    24A     -0.804817
      25A     -0.778882    26A     -0.727222    27A     -0.676656
      28A     -0.661328    29A     -0.629779    30A     -0.617961
      31A     -0.595605    32A     -0.579340    33A     -0.575249
      34A     -0.566007    35A     -0.561547    36A     -0.551524
      37A     -0.547770    38A     -0.543567    39A     -0.521482
      40A     -0.508448    41A     -0.433605    42A     -0.424032
      43A     -0.394446    44A     -0.386437    45A     -0.354488
      46A     -0.279195

  @DF-RHF Final Energy:  -548.62625639920009

   => Energetics <=

    Nuclear Repulsion Energy =            741.7498788785570696
    One-Electron Energy =               -2215.6456238505097645
    Two-Electron Energy =                 925.2694885727527208
    Total Energy =                       -548.6262563992000878
  Basis Set: (AUG-CC-PVTZ AUX)
    Blend: AUG-CC-PVTZ-RI
    Molecular point group: c1

    Geometry (in Angstrom), charge = 0, multiplicity = 1:

       Center              X                  Y                   Z               Mass
    ------------   -----------------  -----------------  -----------------  -----------------
         N           -1.610104048136    -0.766627896539    -0.000000908252    14.003074004430
         N           -1.260210048136     1.433651103461     0.000001091748    14.003074004430
         N            0.975895951864    -1.443816896539     0.000003091748    14.003074004430
         C           -0.672995048136     0.230435103461     0.000007091748    12.000000000000
         C            0.747818951864    -0.107210896539     0.000002091748    12.000000000000
         C            1.780623951864     0.857282103461     0.000002091748    12.000000000000
         C           -2.855604048136    -0.195353896539    -0.000008908252    12.000000000000
         C           -2.604352048136     1.168447103461    -0.000005908252    12.000000000000
         C            3.089500951864     0.365890103461    -0.000003908252    12.000000000000
         C            1.520445651864     2.317314303461     0.000003091748    12.000000000000
         C           -4.120658048136    -0.983260896539     0.000003091748    12.000000000000
         C            3.338123951864    -1.005722896539    -0.000002908252    12.000000000000
         C            2.246748951864    -1.871289896539    -0.000000908252    12.000000000000
         H           -1.354906048136    -1.749545896539     0.000006091748     1.007825032230
         H           -3.335116048136     1.968218103461    -0.000013908252     1.007825032230
         H            3.919070951864     1.071018103461    -0.000004908252     1.007825032230
         H            0.929612951864     2.633211103461    -0.871957908252     1.007825032230
         H            0.929617951864     2.633210103461     0.871968091748     1.007825032230
         H            2.465936951864     2.881583103461     0.000002091748     1.007825032230
         H           -4.201423048136    -1.622390896539    -0.885673908252     1.007825032230
         H           -4.201390048136    -1.622406896539     0.885671091748     1.007825032230
         H           -4.973552048136    -0.300478896539     0.000025091748     1.007825032230
         H            4.352864951864    -1.394060896539    -0.000007908252     1.007825032230
         H            2.385254951864    -2.951325896539     0.000001091748     1.007825032230

  Basis Set: AUG-CC-PVTZ
    Blend: AUG-CC-PVTZ
  Basis Set: (AUG-CC-PVTZ AUX)
    Blend: AUG-CC-PVTZ-JKFIT
	 Reference Energy          =    -548.6262563992000878 [Eh]
	 Singles Energy            =      -0.0000000000000000 [Eh]
	 Same-Spin Energy          =      -0.6118459517546121 [Eh]
	 Opposite-Spin Energy      =      -1.8787879602718980 [Eh]
	 Correlation Energy        =      -2.4906339120265102 [Eh]
	 Total Energy              =    -551.1168903112265980 [Eh]

	 ================> DF-SCS-MP2 Energies <==================
	-----------------------------------------------------------
	 SCS Same-Spin Scale       =       0.3333333333333333 [-]
	 SCS Opposite-Spin Scale   =       1.2000000000000000 [-]
	 SCS Same-Spin Energy      =      -0.2039486505848707 [Eh]
	 SCS Opposite-Spin Energy  =      -2.2545455523262774 [Eh]
	 SCS Correlation Energy    =      -2.4584942029111483 [Eh]
	 SCS Total Energy          =    -551.0847506021112849 [Eh]
	-----------------------------------------------------------

  Dipole Moment: [D]
     X:     0.1484      Y:    -1.7477      Z:     0.0000     Total:     1.7540

*** Psi4 exiting successfully. Buy a developer a beer!
