                               Psi4 1.4a3.dev225

  ==> Input File <==

--------------------------------------------------------------------------
#psi4
#
memory 32 gb

molecule  {
0 1
  N       -1.5932770    -0.7762670    -0.0000010
  N       -1.2433830     1.4240120     0.0000010
  N        0.9927230    -1.4534560     0.0000030
  C       -0.6561680     0.2207960     0.0000070
  C        0.7562356    -0.0675624     0.0000020
  C        1.7974510     0.8476430     0.0000020
  C       -2.8387770    -0.2049930    -0.0000090
  C       -2.5875250     1.1588080    -0.0000060
  C        3.1063280     0.3562510    -0.0000040
  C        1.5337640     2.3273650     0.0000030
  C       -4.1038310    -0.9929000     0.0000030
  C        3.3549510    -1.0153620    -0.0000030
  C        2.2635760    -1.8809290    -0.0000010
  H       -1.3380790    -1.7591850     0.0000060
  H       -3.3182890     1.9585790    -0.0000140
  H        3.9358980     1.0613790    -0.0000050
  H        0.9464400     2.6235720    -0.8719580
  H        0.9464450     2.6235710     0.8719680
  H        2.4827640     2.8719440     0.0000020
  H       -4.1845960    -1.6320300    -0.8856740
  H       -4.1845630    -1.6320460     0.8856710
  H       -4.9567250    -0.3101180     0.0000250
  H        4.3696920    -1.4037000    -0.0000080
  H        2.4020820    -2.9609650     0.0000010
units angstrom
no_reorient  #important for SAPT in psi4, default
symmetry c1  #important for SAPT in psi4, default
}

set PROPERTIES_ORIGIN ["COM"]
properties('MP2/aug-cc-pvtz', properties = ['dipole'])
--------------------------------------------------------------------------

    Molecular point group: c1
  Charge       = 0
  Multiplicity = 1
  Basis Set: AUG-CC-PVTZ
    Blend: AUG-CC-PVTZ
  Basis Set: (AUG-CC-PVTZ AUX)
    Blend: AUG-CC-PVTZ-JKFIT

    Orbital Energies [Eh]
    ---------------------

    Doubly Occupied:

       1A    -15.608607     2A    -15.574228     3A    -15.543942
       4A    -11.293102     5A    -11.287702     6A    -11.277594
       7A    -11.266191     8A    -11.257849     9A    -11.250040
      10A    -11.243355    11A    -11.238169    12A    -11.234877
      13A    -11.214242    14A     -1.335481    15A     -1.246626
      16A     -1.161244    17A     -1.098252    18A     -1.074714
      19A     -1.029299    20A     -0.957677    21A     -0.928616
      22A     -0.867977    23A     -0.834689    24A     -0.805613
      25A     -0.776373    26A     -0.729077    27A     -0.672463
      28A     -0.663479    29A     -0.629622    30A     -0.618427
      31A     -0.595093    32A     -0.579367    33A     -0.575390
      34A     -0.564847    35A     -0.561487    36A     -0.552555
      37A     -0.547672    38A     -0.544123    39A     -0.518327
      40A     -0.506583    41A     -0.431973    42A     -0.425034
      43A     -0.394995    44A     -0.382147    45A     -0.360225
      46A     -0.278114

  @DF-RHF Final Energy:  -548.62200362842793

   => Energetics <=

    Nuclear Repulsion Energy =            741.3386383242336706
    One-Electron Energy =               -2214.8463579120220857
    Two-Electron Energy =                 924.8857159593604820
    Total Energy =                       -548.6220036284279331
  Basis Set: (AUG-CC-PVTZ AUX)
    Blend: AUG-CC-PVTZ-RI
    Molecular point group: c1

    Geometry (in Angstrom), charge = 0, multiplicity = 1:

       Center              X                  Y                   Z               Mass
    ------------   -----------------  -----------------  -----------------  -----------------
         N           -1.609277744925    -0.771409821944    -0.000000908252    14.003074004430
         N           -1.259383744925     1.428869178056     0.000001091748    14.003074004430
         N            0.976722255075    -1.448598821944     0.000003091748    14.003074004430
         C           -0.672168744925     0.225653178056     0.000007091748    12.000000000000
         C            0.740234855075    -0.062705221944     0.000002091748    12.000000000000
         C            1.781450255075     0.852500178056     0.000002091748    12.000000000000
         C           -2.854777744925    -0.200135821944    -0.000008908252    12.000000000000
         C           -2.603525744925     1.163665178056    -0.000005908252    12.000000000000
         C            3.090327255075     0.361108178056    -0.000003908252    12.000000000000
         C            1.517763255075     2.332222178056     0.000003091748    12.000000000000
         C           -4.119831744925    -0.988042821944     0.000003091748    12.000000000000
         C            3.338950255075    -1.010504821944    -0.000002908252    12.000000000000
         C            2.247575255075    -1.876071821944    -0.000000908252    12.000000000000
         H           -1.354079744925    -1.754327821944     0.000006091748     1.007825032230
         H           -3.334289744925     1.963436178056    -0.000013908252     1.007825032230
         H            3.919897255075     1.066236178056    -0.000004908252     1.007825032230
         H            0.930439255075     2.628429178056    -0.871957908252     1.007825032230
         H            0.930444255075     2.628428178056     0.871968091748     1.007825032230
         H            2.466763255075     2.876801178056     0.000002091748     1.007825032230
         H           -4.200596744925    -1.627172821944    -0.885673908252     1.007825032230
         H           -4.200563744925    -1.627188821944     0.885671091748     1.007825032230
         H           -4.972725744925    -0.305260821944     0.000025091748     1.007825032230
         H            4.353691255075    -1.398842821944    -0.000007908252     1.007825032230
         H            2.386081255075    -2.956107821944     0.000001091748     1.007825032230

  Basis Set: AUG-CC-PVTZ
    Blend: AUG-CC-PVTZ
  Basis Set: (AUG-CC-PVTZ AUX)
    Blend: AUG-CC-PVTZ-JKFIT
	 Reference Energy          =    -548.6220036284279331 [Eh]
	 Singles Energy            =      -0.0000000000000000 [Eh]
	 Same-Spin Energy          =      -0.6122312329053748 [Eh]
	 Opposite-Spin Energy      =      -1.8800271270319193 [Eh]
	 Correlation Energy        =      -2.4922583599372943 [Eh]
	 Total Energy              =    -551.1142619883652287 [Eh]

	 ================> DF-SCS-MP2 Energies <==================
	-----------------------------------------------------------
	 SCS Same-Spin Scale       =       0.3333333333333333 [-]
	 SCS Opposite-Spin Scale   =       1.2000000000000000 [-]
	 SCS Same-Spin Energy      =      -0.2040770776351249 [Eh]
	 SCS Opposite-Spin Energy  =      -2.2560325524383029 [Eh]
	 SCS Correlation Energy    =      -2.4601096300734278 [Eh]
	 SCS Total Energy          =    -551.0821132585014084 [Eh]
	-----------------------------------------------------------

  Dipole Moment: [D]
     X:     0.0859      Y:    -1.7593      Z:     0.0000     Total:     1.7614

*** Psi4 exiting successfully. Buy a developer a beer!
