                               Psi4 1.4a3.dev225

  ==> Input File <==

--------------------------------------------------------------------------
#psi4
#
memory 32 gb

molecule  {
0 1
  N       -1.5932770    -0.7762670    -0.0000010
  N       -1.2433830     1.4240120     0.0000010
  N        0.8517602    -1.4699745     0.0000029
  C       -0.6561680     0.2207960     0.0000070
  C        0.7646460    -0.1168500     0.0000020
  C        1.7974510     0.8476430     0.0000020
  C       -2.8387770    -0.2049930    -0.0000090
  C       -2.5875250     1.1588080    -0.0000060
  C        3.1063280     0.3562510    -0.0000040
  C        1.5337640     2.3273650     0.0000030
  C       -4.1038310    -0.9929000     0.0000030
  C        3.3549510    -1.0153620    -0.0000030
  C        2.2635760    -1.8809290    -0.0000010
  H       -1.3380790    -1.7591850     0.0000060
  H       -3.3182890     1.9585790    -0.0000140
  H        3.9358980     1.0613790    -0.0000050
  H        0.9464400     2.6235720    -0.8719580
  H        0.9464450     2.6235710     0.8719680
  H        2.4827640     2.8719440     0.0000020
  H       -4.1845960    -1.6320300    -0.8856740
  H       -4.1845630    -1.6320460     0.8856710
  H       -4.9567250    -0.3101180     0.0000250
  H        4.3696920    -1.4037000    -0.0000080
  H        2.4020820    -2.9609650     0.0000010
units angstrom
no_reorient  #important for SAPT in psi4, default
symmetry c1  #important for SAPT in psi4, default
}

set PROPERTIES_ORIGIN ["COM"]
properties('MP2/aug-cc-pvtz', properties = ['dipole'])
--------------------------------------------------------------------------

    Molecular point group: c1
  Charge       = 0
  Multiplicity = 1
  Basis Set: AUG-CC-PVTZ
    Blend: AUG-CC-PVTZ
  Basis Set: (AUG-CC-PVTZ AUX)
    Blend: AUG-CC-PVTZ-JKFIT

    Orbital Energies [Eh]
    ---------------------

    Doubly Occupied:

       1A    -15.604051     2A    -15.588436     3A    -15.542288
       4A    -11.293157     5A    -11.290448     6A    -11.289320
       7A    -11.263631     8A    -11.261192     9A    -11.254726
      10A    -11.247703    11A    -11.236505    12A    -11.232323
      13A    -11.217332    14A     -1.333564    15A     -1.237319
      16A     -1.158742    17A     -1.101702    18A     -1.066560
      19A     -1.028877    20A     -0.950800    21A     -0.927741
      22A     -0.865507    23A     -0.839594    24A     -0.801073
      25A     -0.773973    26A     -0.721859    27A     -0.666825
      28A     -0.659131    29A     -0.631895    30A     -0.616295
      31A     -0.589377    32A     -0.578400    33A     -0.571848
      34A     -0.564650    35A     -0.559426    36A     -0.552107
      37A     -0.546389    38A     -0.542707    39A     -0.512781
      40A     -0.500386    41A     -0.448978    42A     -0.427571
      43A     -0.394728    44A     -0.390394    45A     -0.344921
      46A     -0.280880

  @DF-RHF Final Energy:  -548.60185769102793

   => Energetics <=

    Nuclear Repulsion Energy =            740.2118985354818506
    One-Electron Energy =               -2212.6112816341801590
    Two-Electron Energy =                 923.7975254076703777
    Total Energy =                       -548.6018576910279307
  Basis Set: (AUG-CC-PVTZ AUX)
    Blend: AUG-CC-PVTZ-RI
    Molecular point group: c1

    Geometry (in Angstrom), charge = 0, multiplicity = 1:

       Center              X                  Y                   Z               Mass
    ------------   -----------------  -----------------  -----------------  -----------------
         N           -1.598457186836    -0.766656596464    -0.000000900162    14.003074004430
         N           -1.248563186836     1.433622403536     0.000001099838    14.003074004430
         N            0.846580013164    -1.460364096464     0.000002999838    14.003074004430
         C           -0.661348186836     0.230406403536     0.000007099838    12.000000000000
         C            0.759465813164    -0.107239596464     0.000002099838    12.000000000000
         C            1.792270813164     0.857253403536     0.000002099838    12.000000000000
         C           -2.843957186836    -0.195382596464    -0.000008900162    12.000000000000
         C           -2.592705186836     1.168418403536    -0.000005900162    12.000000000000
         C            3.101147813164     0.365861403536    -0.000003900162    12.000000000000
         C            1.528583813164     2.336975403536     0.000003099838    12.000000000000
         C           -4.109011186836    -0.983289596464     0.000003099838    12.000000000000
         C            3.349770813164    -1.005751596464    -0.000002900162    12.000000000000
         C            2.258395813164    -1.871318596464    -0.000000900162    12.000000000000
         H           -1.343259186836    -1.749574596464     0.000006099838     1.007825032230
         H           -3.323469186836     1.968189403536    -0.000013900162     1.007825032230
         H            3.930717813164     1.070989403536    -0.000004900162     1.007825032230
         H            0.941259813164     2.633182403536    -0.871957900162     1.007825032230
         H            0.941264813164     2.633181403536     0.871968099838     1.007825032230
         H            2.477583813164     2.881554403536     0.000002099838     1.007825032230
         H           -4.189776186836    -1.622419596464    -0.885673900162     1.007825032230
         H           -4.189743186836    -1.622435596464     0.885671099838     1.007825032230
         H           -4.961905186836    -0.300507596464     0.000025099838     1.007825032230
         H            4.364511813164    -1.394089596464    -0.000007900162     1.007825032230
         H            2.396901813164    -2.951354596464     0.000001099838     1.007825032230

  Basis Set: AUG-CC-PVTZ
    Blend: AUG-CC-PVTZ
  Basis Set: (AUG-CC-PVTZ AUX)
    Blend: AUG-CC-PVTZ-JKFIT
	 Reference Energy          =    -548.6018576910279307 [Eh]
	 Singles Energy            =      -0.0000000000000000 [Eh]
	 Same-Spin Energy          =      -0.6132426156927752 [Eh]
	 Opposite-Spin Energy      =      -1.8845100546766496 [Eh]
	 Correlation Energy        =      -2.4977526703694246 [Eh]
	 Total Energy              =    -551.0996103613973673 [Eh]

	 ================> DF-SCS-MP2 Energies <==================
	-----------------------------------------------------------
	 SCS Same-Spin Scale       =       0.3333333333333333 [-]
	 SCS Opposite-Spin Scale   =       1.2000000000000000 [-]
	 SCS Same-Spin Energy      =      -0.2044142052309250 [Eh]
	 SCS Opposite-Spin Energy  =      -2.2614120656119794 [Eh]
	 SCS Correlation Energy    =      -2.4658262708429044 [Eh]
	 SCS Total Energy          =    -551.0676839618707845 [Eh]
	-----------------------------------------------------------

  Dipole Moment: [D]
     X:     0.5164      Y:    -1.6665      Z:     0.0000     Total:     1.7447

*** Psi4 exiting successfully. Buy a developer a beer!
