                               Psi4 1.4a3.dev225

  ==> Input File <==

--------------------------------------------------------------------------
#psi4
#
memory 32 gb

molecule  {
0 1
  N       -1.5932770    -0.7762670    -0.0000010
  N       -1.2433830     1.4240120     0.0000010
  N        0.9927230    -1.4534560     0.0000030
  C       -0.5876821     0.2936635     0.0000076
  C        0.7646460    -0.1168500     0.0000020
  C        1.7974510     0.8476430     0.0000020
  C       -2.8387770    -0.2049930    -0.0000090
  C       -2.5875250     1.1588080    -0.0000060
  C        3.1063280     0.3562510    -0.0000040
  C        1.5337640     2.3273650     0.0000030
  C       -4.1038310    -0.9929000     0.0000030
  C        3.3549510    -1.0153620    -0.0000030
  C        2.2635760    -1.8809290    -0.0000010
  H       -1.3380790    -1.7591850     0.0000060
  H       -3.3182890     1.9585790    -0.0000140
  H        3.9358980     1.0613790    -0.0000050
  H        0.9464400     2.6235720    -0.8719580
  H        0.9464450     2.6235710     0.8719680
  H        2.4827640     2.8719440     0.0000020
  H       -4.1845960    -1.6320300    -0.8856740
  H       -4.1845630    -1.6320460     0.8856710
  H       -4.9567250    -0.3101180     0.0000250
  H        4.3696920    -1.4037000    -0.0000080
  H        2.4020820    -2.9609650     0.0000010
units angstrom
no_reorient  #important for SAPT in psi4, default
symmetry c1  #important for SAPT in psi4, default
}

set PROPERTIES_ORIGIN ["COM"]
properties('MP2/aug-cc-pvtz', properties = ['dipole'])
--------------------------------------------------------------------------

    Molecular point group: c1
  Charge       = 0
  Multiplicity = 1
  Basis Set: AUG-CC-PVTZ
    Blend: AUG-CC-PVTZ
  Basis Set: (AUG-CC-PVTZ AUX)
    Blend: AUG-CC-PVTZ-JKFIT

    Orbital Energies [Eh]
    ---------------------

    Doubly Occupied:

       1A    -15.597578     2A    -15.573155     3A    -15.549738
       4A    -11.295357     5A    -11.287345     6A    -11.277892
       7A    -11.271915     8A    -11.256049     9A    -11.251922
      10A    -11.243349    11A    -11.239279    12A    -11.232907
      13A    -11.217356    14A     -1.318855    15A     -1.258182
      16A     -1.159155    17A     -1.099211    18A     -1.076473
      19A     -1.025245    20A     -0.961547    21A     -0.933379
      22A     -0.872999    23A     -0.835810    24A     -0.797774
      25A     -0.770768    26A     -0.717020    27A     -0.677394
      28A     -0.660234    29A     -0.637756    30A     -0.612125
      31A     -0.594850    32A     -0.582184    33A     -0.575319
      34A     -0.571306    35A     -0.554710    36A     -0.550059
      37A     -0.549185    38A     -0.544541    39A     -0.522238
      40A     -0.511632    41A     -0.431712    42A     -0.419883
      43A     -0.399122    44A     -0.385627    45A     -0.356903
      46A     -0.276073

  @DF-RHF Final Energy:  -548.61397016778812

   => Energetics <=

    Nuclear Repulsion Energy =            741.1616390658097089
    One-Electron Energy =               -2214.4849887567411315
    Two-Electron Energy =                 924.7093795231434115
    Total Energy =                       -548.6139701677881249
  Basis Set: (AUG-CC-PVTZ AUX)
    Blend: AUG-CC-PVTZ-RI
    Molecular point group: c1

    Geometry (in Angstrom), charge = 0, multiplicity = 1:

       Center              X                  Y                   Z               Mass
    ------------   -----------------  -----------------  -----------------  -----------------
         N           -1.614608655782    -0.773044521467    -0.000000949847    14.003074004430
         N           -1.264714655782     1.427234478533     0.000001050153    14.003074004430
         N            0.971391344218    -1.450233521467     0.000003050153    14.003074004430
         C           -0.609013755782     0.296885978533     0.000007650153    12.000000000000
         C            0.743314344218    -0.113627521467     0.000002050153    12.000000000000
         C            1.776119344218     0.850865478533     0.000002050153    12.000000000000
         C           -2.860108655782    -0.201770521467    -0.000008949847    12.000000000000
         C           -2.608856655782     1.162030478533    -0.000005949847    12.000000000000
         C            3.084996344218     0.359473478533    -0.000003949847    12.000000000000
         C            1.512432344218     2.330587478533     0.000003050153    12.000000000000
         C           -4.125162655782    -0.989677521467     0.000003050153    12.000000000000
         C            3.333619344218    -1.012139521467    -0.000002949847    12.000000000000
         C            2.242244344218    -1.877706521467    -0.000000949847    12.000000000000
         H           -1.359410655782    -1.755962521467     0.000006050153     1.007825032230
         H           -3.339620655782     1.961801478533    -0.000013949847     1.007825032230
         H            3.914566344218     1.064601478533    -0.000004949847     1.007825032230
         H            0.925108344218     2.626794478533    -0.871957949847     1.007825032230
         H            0.925113344218     2.626793478533     0.871968050153     1.007825032230
         H            2.461432344218     2.875166478533     0.000002050153     1.007825032230
         H           -4.205927655782    -1.628807521467    -0.885673949847     1.007825032230
         H           -4.205894655782    -1.628823521467     0.885671050153     1.007825032230
         H           -4.978056655782    -0.306895521467     0.000025050153     1.007825032230
         H            4.348360344218    -1.400477521467    -0.000007949847     1.007825032230
         H            2.380750344218    -2.957742521467     0.000001050153     1.007825032230

  Basis Set: AUG-CC-PVTZ
    Blend: AUG-CC-PVTZ
  Basis Set: (AUG-CC-PVTZ AUX)
    Blend: AUG-CC-PVTZ-JKFIT
	 Reference Energy          =    -548.6139701677881249 [Eh]
	 Singles Energy            =      -0.0000000000000000 [Eh]
	 Same-Spin Energy          =      -0.6125898291021221 [Eh]
	 Opposite-Spin Energy      =      -1.8804300577608086 [Eh]
	 Correlation Energy        =      -2.4930198868629310 [Eh]
	 Total Energy              =    -551.1069900546510780 [Eh]

	 ================> DF-SCS-MP2 Energies <==================
	-----------------------------------------------------------
	 SCS Same-Spin Scale       =       0.3333333333333333 [-]
	 SCS Opposite-Spin Scale   =       1.2000000000000000 [-]
	 SCS Same-Spin Energy      =      -0.2041966097007074 [Eh]
	 SCS Opposite-Spin Energy  =      -2.2565160693129704 [Eh]
	 SCS Correlation Energy    =      -2.4607126790136777 [Eh]
	 SCS Total Energy          =    -551.0746828468018066 [Eh]
	-----------------------------------------------------------

  Dipole Moment: [D]
     X:     0.2142      Y:    -1.5855      Z:     0.0000     Total:     1.5999

*** Psi4 exiting successfully. Buy a developer a beer!
