                               Psi4 1.4a3.dev225

  ==> Input File <==

--------------------------------------------------------------------------
#psi4
#
memory 32 gb

molecule  {
0 1
  N       -1.5932770    -0.7762670    -0.0000010
  N       -1.2433830     1.4240120     0.0000010
  N        0.9927230    -1.4534560     0.0000030
  C       -0.6561680     0.2207960     0.0000070
  C        0.7646460    -0.1168500     0.0000020
  C        1.7974510     0.8476430     0.0000020
  C       -2.9296719    -0.1633022    -0.0000096
  C       -2.5875250     1.1588080    -0.0000060
  C        3.1063280     0.3562510    -0.0000040
  C        1.5337640     2.3273650     0.0000030
  C       -4.1038310    -0.9929000     0.0000030
  C        3.3549510    -1.0153620    -0.0000030
  C        2.2635760    -1.8809290    -0.0000010
  H       -1.3380790    -1.7591850     0.0000060
  H       -3.3182890     1.9585790    -0.0000140
  H        3.9358980     1.0613790    -0.0000050
  H        0.9464400     2.6235720    -0.8719580
  H        0.9464450     2.6235710     0.8719680
  H        2.4827640     2.8719440     0.0000020
  H       -4.1845960    -1.6320300    -0.8856740
  H       -4.1845630    -1.6320460     0.8856710
  H       -4.9567250    -0.3101180     0.0000250
  H        4.3696920    -1.4037000    -0.0000080
  H        2.4020820    -2.9609650     0.0000010
units angstrom
no_reorient  #important for SAPT in psi4, default
symmetry c1  #important for SAPT in psi4, default
}

set PROPERTIES_ORIGIN ["COM"]
properties('MP2/aug-cc-pvtz', properties = ['dipole'])
--------------------------------------------------------------------------

    Molecular point group: c1
  Charge       = 0
  Multiplicity = 1
  Basis Set: AUG-CC-PVTZ
    Blend: AUG-CC-PVTZ
  Basis Set: (AUG-CC-PVTZ AUX)
    Blend: AUG-CC-PVTZ-JKFIT

    Orbital Energies [Eh]
    ---------------------

    Doubly Occupied:

       1A    -15.597449     2A    -15.574874     3A    -15.539781
       4A    -11.299354     5A    -11.289903     6A    -11.278136
       7A    -11.264811     8A    -11.257697     9A    -11.255368
      10A    -11.246141    11A    -11.238281    12A    -11.234680
      13A    -11.216624    14A     -1.317321    15A     -1.258148
      16A     -1.146562    17A     -1.099943    18A     -1.076550
      19A     -1.038281    20A     -0.958512    21A     -0.932845
      22A     -0.869272    23A     -0.835439    24A     -0.796678
      25A     -0.766493    26A     -0.724192    27A     -0.676775
      28A     -0.662311    29A     -0.625973    30A     -0.611829
      31A     -0.594265    32A     -0.586695    33A     -0.581769
      34A     -0.572281    35A     -0.562831    36A     -0.549648
      37A     -0.548699    38A     -0.525267    39A     -0.522247
      40A     -0.509348    41A     -0.434543    42A     -0.424041
      43A     -0.388342    44A     -0.383797    45A     -0.356543
      46A     -0.286825

  @DF-RHF Final Energy:  -548.61539727032448

   => Energetics <=

    Nuclear Repulsion Energy =            740.0286368925233091
    One-Electron Energy =               -2212.2533404287382837
    Two-Electron Energy =                 923.6093062658904955
    Total Energy =                       -548.6153972703244790
  Basis Set: (AUG-CC-PVTZ AUX)
    Blend: AUG-CC-PVTZ-RI
    Molecular point group: c1

    Geometry (in Angstrom), charge = 0, multiplicity = 1:

       Center              X                  Y                   Z               Mass
    ------------   -----------------  -----------------  -----------------  -----------------
         N           -1.603559426664    -0.770883166389    -0.000000866656    14.003074004430
         N           -1.253665426664     1.429395833611     0.000001133344    14.003074004430
         N            0.982440573336    -1.448072166389     0.000003133344    14.003074004430
         C           -0.666450426664     0.226179833611     0.000007133344    12.000000000000
         C            0.754363573336    -0.111466166389     0.000002133344    12.000000000000
         C            1.787168573336     0.853026833611     0.000002133344    12.000000000000
         C           -2.939954326664    -0.157918366389    -0.000009466656    12.000000000000
         C           -2.597807426664     1.164191833611    -0.000005866656    12.000000000000
         C            3.096045573336     0.361634833611    -0.000003866656    12.000000000000
         C            1.523481573336     2.332748833611     0.000003133344    12.000000000000
         C           -4.114113426664    -0.987516166389     0.000003133344    12.000000000000
         C            3.344668573336    -1.009978166389    -0.000002866656    12.000000000000
         C            2.253293573336    -1.875545166389    -0.000000866656    12.000000000000
         H           -1.348361426664    -1.753801166389     0.000006133344     1.007825032230
         H           -3.328571426664     1.963962833611    -0.000013866656     1.007825032230
         H            3.925615573336     1.066762833611    -0.000004866656     1.007825032230
         H            0.936157573336     2.628955833611    -0.871957866656     1.007825032230
         H            0.936162573336     2.628954833611     0.871968133344     1.007825032230
         H            2.472481573336     2.877327833611     0.000002133344     1.007825032230
         H           -4.194878426664    -1.626646166389    -0.885673866656     1.007825032230
         H           -4.194845426664    -1.626662166389     0.885671133344     1.007825032230
         H           -4.967007426664    -0.304734166389     0.000025133344     1.007825032230
         H            4.359409573336    -1.398316166389    -0.000007866656     1.007825032230
         H            2.391799573336    -2.955581166389     0.000001133344     1.007825032230

  Basis Set: AUG-CC-PVTZ
    Blend: AUG-CC-PVTZ
  Basis Set: (AUG-CC-PVTZ AUX)
    Blend: AUG-CC-PVTZ-JKFIT
	 Reference Energy          =    -548.6153972703244790 [Eh]
	 Singles Energy            =      -0.0000000000000000 [Eh]
	 Same-Spin Energy          =      -0.6113941242043742 [Eh]
	 Opposite-Spin Energy      =      -1.8794880250344093 [Eh]
	 Correlation Energy        =      -2.4908821492387836 [Eh]
	 Total Energy              =    -551.1062794195632932 [Eh]

	 ================> DF-SCS-MP2 Energies <==================
	-----------------------------------------------------------
	 SCS Same-Spin Scale       =       0.3333333333333333 [-]
	 SCS Opposite-Spin Scale   =       1.2000000000000000 [-]
	 SCS Same-Spin Energy      =      -0.2037980414014581 [Eh]
	 SCS Opposite-Spin Energy  =      -2.2553856300412911 [Eh]
	 SCS Correlation Energy    =      -2.4591836714427493 [Eh]
	 SCS Total Energy          =    -551.0745809417671808 [Eh]
	-----------------------------------------------------------

  Dipole Moment: [D]
     X:     0.1955      Y:    -1.7220      Z:     0.0000     Total:     1.7331

*** Psi4 exiting successfully. Buy a developer a beer!
