                               Psi4 1.4a3.dev225

  ==> Input File <==

--------------------------------------------------------------------------
#psi4
#
memory 32 gb

molecule  {
0 1
  N       -1.5932770    -0.7762670    -0.0000010
  N       -1.2433830     1.4240120     0.0000010
  N        0.9927230    -1.4534560     0.0000030
  C       -0.6561680     0.2207960     0.0000070
  C        0.7646460    -0.1168500     0.0000020
  C        1.7974510     0.8476430     0.0000020
  C       -2.8205980    -0.2133312    -0.0000089
  C       -2.5875250     1.1588080    -0.0000060
  C        3.1063280     0.3562510    -0.0000040
  C        1.5337640     2.3273650     0.0000030
  C       -4.1038310    -0.9929000     0.0000030
  C        3.3549510    -1.0153620    -0.0000030
  C        2.2635760    -1.8809290    -0.0000010
  H       -1.3380790    -1.7591850     0.0000060
  H       -3.3182890     1.9585790    -0.0000140
  H        3.9358980     1.0613790    -0.0000050
  H        0.9464400     2.6235720    -0.8719580
  H        0.9464450     2.6235710     0.8719680
  H        2.4827640     2.8719440     0.0000020
  H       -4.1845960    -1.6320300    -0.8856740
  H       -4.1845630    -1.6320460     0.8856710
  H       -4.9567250    -0.3101180     0.0000250
  H        4.3696920    -1.4037000    -0.0000080
  H        2.4020820    -2.9609650     0.0000010
units angstrom
no_reorient  #important for SAPT in psi4, default
symmetry c1  #important for SAPT in psi4, default
}

set PROPERTIES_ORIGIN ["COM"]
properties('MP2/aug-cc-pvtz', properties = ['dipole'])
--------------------------------------------------------------------------

    Molecular point group: c1
  Charge       = 0
  Multiplicity = 1
  Basis Set: AUG-CC-PVTZ
    Blend: AUG-CC-PVTZ
  Basis Set: (AUG-CC-PVTZ AUX)
    Blend: AUG-CC-PVTZ-JKFIT

    Orbital Energies [Eh]
    ---------------------

    Doubly Occupied:

       1A    -15.609410     2A    -15.572075     3A    -15.545005
       4A    -11.291974     5A    -11.289187     6A    -11.276850
       7A    -11.265719     8A    -11.255958     9A    -11.252016
      10A    -11.242595    11A    -11.238504    12A    -11.234144
      13A    -11.215222    14A     -1.339617    15A     -1.257966
      16A     -1.163588    17A     -1.098197    18A     -1.072371
      19A     -1.027244    20A     -0.956590    21A     -0.928757
      22A     -0.864267    23A     -0.836053    24A     -0.806735
      25A     -0.781498    26A     -0.727580    27A     -0.676139
      28A     -0.660510    29A     -0.629766    30A     -0.619709
      31A     -0.594477    32A     -0.579317    33A     -0.574272
      34A     -0.564774    35A     -0.558167    36A     -0.553032
      37A     -0.549972    38A     -0.545773    39A     -0.522836
      40A     -0.507144    41A     -0.433003    42A     -0.424211
      43A     -0.396805    44A     -0.386083    45A     -0.354691
      46A     -0.277528

  @DF-RHF Final Energy:  -548.62670680149506

   => Energetics <=

    Nuclear Repulsion Energy =            741.6773821947468832
    One-Electron Energy =               -2215.4935149832667776
    Two-Electron Energy =                 925.1894259870249471
    Total Energy =                       -548.6267068014950610
  Basis Set: (AUG-CC-PVTZ AUX)
    Blend: AUG-CC-PVTZ-RI
    Molecular point group: c1

    Geometry (in Angstrom), charge = 0, multiplicity = 1:

       Center              X                  Y                   Z               Mass
    ------------   -----------------  -----------------  -----------------  -----------------
         N           -1.611121080966    -0.767414857260    -0.000000915184    14.003074004430
         N           -1.261227080966     1.432864142740     0.000001084816    14.003074004430
         N            0.974878919034    -1.444603857260     0.000003084816    14.003074004430
         C           -0.674012080966     0.229648142740     0.000007084816    12.000000000000
         C            0.746801919034    -0.107997857260     0.000002084816    12.000000000000
         C            1.779606919034     0.856495142740     0.000002084816    12.000000000000
         C           -2.838442080966    -0.204479057260    -0.000008815184    12.000000000000
         C           -2.605369080966     1.167660142740    -0.000005915184    12.000000000000
         C            3.088483919034     0.365103142740    -0.000003915184    12.000000000000
         C            1.515919919034     2.336217142740     0.000003084816    12.000000000000
         C           -4.121675080966    -0.984047857260     0.000003084816    12.000000000000
         C            3.337106919034    -1.006509857260    -0.000002915184    12.000000000000
         C            2.245731919034    -1.872076857260    -0.000000915184    12.000000000000
         H           -1.355923080966    -1.750332857260     0.000006084816     1.007825032230
         H           -3.336133080966     1.967431142740    -0.000013915184     1.007825032230
         H            3.918053919034     1.070231142740    -0.000004915184     1.007825032230
         H            0.928595919034     2.632424142740    -0.871957915184     1.007825032230
         H            0.928600919034     2.632423142740     0.871968084816     1.007825032230
         H            2.464919919034     2.880796142740     0.000002084816     1.007825032230
         H           -4.202440080966    -1.623177857260    -0.885673915184     1.007825032230
         H           -4.202407080966    -1.623193857260     0.885671084816     1.007825032230
         H           -4.974569080966    -0.301265857260     0.000025084816     1.007825032230
         H            4.351847919034    -1.394847857260    -0.000007915184     1.007825032230
         H            2.384237919034    -2.952112857260     0.000001084816     1.007825032230

  Basis Set: AUG-CC-PVTZ
    Blend: AUG-CC-PVTZ
  Basis Set: (AUG-CC-PVTZ AUX)
    Blend: AUG-CC-PVTZ-JKFIT
	 Reference Energy          =    -548.6267068014950610 [Eh]
	 Singles Energy            =      -0.0000000000000000 [Eh]
	 Same-Spin Energy          =      -0.6117082309141697 [Eh]
	 Opposite-Spin Energy      =      -1.8784872871439209 [Eh]
	 Correlation Energy        =      -2.4901955180580906 [Eh]
	 Total Energy              =    -551.1169023195531054 [Eh]

	 ================> DF-SCS-MP2 Energies <==================
	-----------------------------------------------------------
	 SCS Same-Spin Scale       =       0.3333333333333333 [-]
	 SCS Opposite-Spin Scale   =       1.2000000000000000 [-]
	 SCS Same-Spin Energy      =      -0.2039027436380565 [Eh]
	 SCS Opposite-Spin Energy  =      -2.2541847445727048 [Eh]
	 SCS Correlation Energy    =      -2.4580874882107615 [Eh]
	 SCS Total Energy          =    -551.0847942897057692 [Eh]
	-----------------------------------------------------------

  Dipole Moment: [D]
     X:     0.1407      Y:    -1.7638      Z:     0.0000     Total:     1.7695

*** Psi4 exiting successfully. Buy a developer a beer!
