                               Psi4 1.4a3.dev225

  ==> Input File <==

--------------------------------------------------------------------------
#psi4
#
memory 32 gb

molecule  {
0 1
  N       -1.5932770    -0.7762670    -0.0000010
  N       -1.2433830     1.4240120     0.0000010
  N        0.9927230    -1.4534560     0.0000030
  C       -0.6561680     0.2207960     0.0000070
  C        0.7646460    -0.1168500     0.0000020
  C        1.7840670     0.8454905     0.0224604
  C       -2.8387770    -0.2049930    -0.0000090
  C       -2.5875250     1.1588080    -0.0000060
  C        3.1063280     0.3562510    -0.0000040
  C        1.5337640     2.3273650     0.0000030
  C       -4.1038310    -0.9929000     0.0000030
  C        3.3549510    -1.0153620    -0.0000030
  C        2.2635760    -1.8809290    -0.0000010
  H       -1.3380790    -1.7591850     0.0000060
  H       -3.3182890     1.9585790    -0.0000140
  H        3.9358980     1.0613790    -0.0000050
  H        0.9464400     2.6235720    -0.8719580
  H        0.9464450     2.6235710     0.8719680
  H        2.4827640     2.8719440     0.0000020
  H       -4.1845960    -1.6320300    -0.8856740
  H       -4.1845630    -1.6320460     0.8856710
  H       -4.9567250    -0.3101180     0.0000250
  H        4.3696920    -1.4037000    -0.0000080
  H        2.4020820    -2.9609650     0.0000010
units angstrom
no_reorient  #important for SAPT in psi4, default
symmetry c1  #important for SAPT in psi4, default
}

set PROPERTIES_ORIGIN ["COM"]
properties('MP2/aug-cc-pvtz', properties = ['dipole'])
--------------------------------------------------------------------------

    Molecular point group: c1
  Charge       = 0
  Multiplicity = 1
  Basis Set: AUG-CC-PVTZ
    Blend: AUG-CC-PVTZ
  Basis Set: (AUG-CC-PVTZ AUX)
    Blend: AUG-CC-PVTZ-JKFIT

    Orbital Energies [Eh]
    ---------------------

    Doubly Occupied:

       1A    -15.607137     2A    -15.572644     3A    -15.543512
       4A    -11.292853     5A    -11.287752     6A    -11.277763
       7A    -11.264791     8A    -11.258102     9A    -11.252823
      10A    -11.243585    11A    -11.237387    12A    -11.234303
      13A    -11.215572    14A     -1.334767    15A     -1.258322
      16A     -1.160168    17A     -1.097371    18A     -1.073576
      19A     -1.029186    20A     -0.956841    21A     -0.929015
      22A     -0.864957    23A     -0.836901    24A     -0.804540
      25A     -0.778165    26A     -0.727166    27A     -0.676009
      28A     -0.661081    29A     -0.628799    30A     -0.617661
      31A     -0.594455    32A     -0.579777    33A     -0.574996
      34A     -0.565102    35A     -0.560852    36A     -0.552205
      37A     -0.549493    38A     -0.544688    39A     -0.522920
      40A     -0.505349    41A     -0.433360    42A     -0.424710
      43A     -0.394108    44A     -0.385702    45A     -0.355401
      46A     -0.279270

  @DF-RHF Final Energy:  -548.62658245702028

   => Energetics <=

    Nuclear Repulsion Energy =            741.4971552507581691
    One-Electron Energy =               -2215.1571993429906797
    Two-Electron Energy =                 925.0334616352122339
    Total Energy =                       -548.6265824570202767
  Basis Set: (AUG-CC-PVTZ AUX)
    Blend: AUG-CC-PVTZ-RI
    Molecular point group: c1

    Geometry (in Angstrom), charge = 0, multiplicity = 1:

       Center              X                  Y                   Z               Mass
    ------------   -----------------  -----------------  -----------------  -----------------
         N           -1.608932945264    -0.767843686934    -0.001557858695    14.003074004430
         N           -1.259038945264     1.432435313066    -0.001555858695    14.003074004430
         N            0.977067054736    -1.445032686934    -0.001553858695    14.003074004430
         C           -0.671823945264     0.229219313066    -0.001549858695    12.000000000000
         C            0.748990054736    -0.108426686934    -0.001554858695    12.000000000000
         C            1.768411054736     0.853913813066     0.020903541305    12.000000000000
         C           -2.854432945264    -0.196569686934    -0.001565858695    12.000000000000
         C           -2.603180945264     1.167231313066    -0.001562858695    12.000000000000
         C            3.090672054736     0.364674313066    -0.001560858695    12.000000000000
         C            1.518108054736     2.335788313066    -0.001553858695    12.000000000000
         C           -4.119486945264    -0.984476686934    -0.001553858695    12.000000000000
         C            3.339295054736    -1.006938686934    -0.001559858695    12.000000000000
         C            2.247920054736    -1.872505686934    -0.001557858695    12.000000000000
         H           -1.353734945264    -1.750761686934    -0.001550858695     1.007825032230
         H           -3.333944945264     1.967002313066    -0.001570858695     1.007825032230
         H            3.920242054736     1.069802313066    -0.001561858695     1.007825032230
         H            0.930784054736     2.631995313066    -0.873514858695     1.007825032230
         H            0.930789054736     2.631994313066     0.870411141305     1.007825032230
         H            2.467108054736     2.880367313066    -0.001554858695     1.007825032230
         H           -4.200251945264    -1.623606686934    -0.887230858695     1.007825032230
         H           -4.200218945264    -1.623622686934     0.884114141305     1.007825032230
         H           -4.972380945264    -0.301694686934    -0.001531858695     1.007825032230
         H            4.354036054736    -1.395276686934    -0.001564858695     1.007825032230
         H            2.386426054736    -2.952541686934    -0.001555858695     1.007825032230

  Basis Set: AUG-CC-PVTZ
    Blend: AUG-CC-PVTZ
  Basis Set: (AUG-CC-PVTZ AUX)
    Blend: AUG-CC-PVTZ-JKFIT
	 Reference Energy          =    -548.6265824570202767 [Eh]
	 Singles Energy            =      -0.0000000000000000 [Eh]
	 Same-Spin Energy          =      -0.6116013801482556 [Eh]
	 Opposite-Spin Energy      =      -1.8786182100497180 [Eh]
	 Correlation Energy        =      -2.4902195901979738 [Eh]
	 Total Energy              =    -551.1168020472182434 [Eh]

	 ================> DF-SCS-MP2 Energies <==================
	-----------------------------------------------------------
	 SCS Same-Spin Scale       =       0.3333333333333333 [-]
	 SCS Opposite-Spin Scale   =       1.2000000000000000 [-]
	 SCS Same-Spin Energy      =      -0.2038671267160852 [Eh]
	 SCS Opposite-Spin Energy  =      -2.2543418520596616 [Eh]
	 SCS Correlation Energy    =      -2.4582089787757466 [Eh]
	 SCS Total Energy          =    -551.0847914357959780 [Eh]
	-----------------------------------------------------------

  Dipole Moment: [D]
     X:     0.1913      Y:    -1.7583      Z:    -0.0025     Total:     1.7687

*** Psi4 exiting successfully. Buy a developer a beer!
