                               Psi4 1.4a3.dev225

  ==> Input File <==

--------------------------------------------------------------------------
#psi4
#
memory 32 gb

molecule  {
0 1
  N       -1.5932770    -0.7762670    -0.0000010
  N       -1.2433830     1.4240120     0.0000010
  N        0.9927230    -1.4534560     0.0000030
  C       -0.6561680     0.2207960     0.0000070
  C        0.7646460    -0.1168500     0.0000020
  C        1.7974510     0.8476430     0.0000020
  C       -2.8387770    -0.2049930    -0.0000090
  C       -2.5875250     1.1588080    -0.0000060
  C        3.1063280     0.3562510    -0.0000040
  C        1.5337640     2.3273650     0.0000030
  C       -4.1038310    -0.9929000     0.0000030
  C        3.3549510    -1.0153620    -0.0000030
  C        2.2635760    -1.8809290    -0.0000010
  H       -1.3380790    -1.7591850     0.0000060
  H       -3.3182890     1.9585790    -0.0000140
  H        3.9358980     1.0613790    -0.0000050
  H        0.9464400     2.6235720    -0.8719580
  H        0.9464450     2.6235710     0.8719680
  H        2.4827640     2.8719440     0.0000020
  H       -4.2007179    -1.6229809    -0.8905277
  H       -4.1845630    -1.6320460     0.8856710
  H       -4.9567250    -0.3101180     0.0000250
  H        4.3696920    -1.4037000    -0.0000080
  H        2.4020820    -2.9609650     0.0000010
units angstrom
no_reorient  #important for SAPT in psi4, default
symmetry c1  #important for SAPT in psi4, default
}

set PROPERTIES_ORIGIN ["COM"]
properties('MP2/aug-cc-pvtz', properties = ['dipole'])
--------------------------------------------------------------------------

    Molecular point group: c1
  Charge       = 0
  Multiplicity = 1
  Basis Set: AUG-CC-PVTZ
    Blend: AUG-CC-PVTZ
  Basis Set: (AUG-CC-PVTZ AUX)
    Blend: AUG-CC-PVTZ-JKFIT

    Orbital Energies [Eh]
    ---------------------

    Doubly Occupied:

       1A    -15.607566     2A    -15.572645     3A    -15.544093
       4A    -11.293381     5A    -11.289379     6A    -11.277129
       7A    -11.265383     8A    -11.256314     9A    -11.252681
      10A    -11.243290    11A    -11.237601    12A    -11.234764
      13A    -11.215512    14A     -1.335156    15A     -1.258096
      16A     -1.160551    17A     -1.098578    18A     -1.072995
      19A     -1.029030    20A     -0.956911    21A     -0.929376
      22A     -0.865092    23A     -0.835891    24A     -0.804758
      25A     -0.778867    26A     -0.727330    27A     -0.676273
      28A     -0.660879    29A     -0.628776    30A     -0.618027
      31A     -0.594099    32A     -0.579942    33A     -0.575249
      34A     -0.564854    35A     -0.561233    36A     -0.552811
      37A     -0.548292    38A     -0.544030    39A     -0.522855
      40A     -0.507640    41A     -0.433380    42A     -0.424234
      43A     -0.394469    44A     -0.386506    45A     -0.355131
      46A     -0.279285

  @DF-RHF Final Energy:  -548.62691075586235

   => Energetics <=

    Nuclear Repulsion Energy =            741.3679494607232527
    One-Electron Energy =               -2214.8890504346163652
    Two-Electron Energy =                 924.8941902180308716
    Total Energy =                       -548.6269107558623546
  Basis Set: (AUG-CC-PVTZ AUX)
    Blend: AUG-CC-PVTZ-RI
    Molecular point group: c1

    Geometry (in Angstrom), charge = 0, multiplicity = 1:

       Center              X                  Y                   Z               Mass
    ------------   -----------------  -----------------  -----------------  -----------------
         N           -1.609766936411    -0.768045598309     0.000027351790    14.003074004430
         N           -1.259872936411     1.432233401691     0.000029351790    14.003074004430
         N            0.976233063589    -1.445234598309     0.000031351790    14.003074004430
         C           -0.672657936411     0.229017401691     0.000035351790    12.000000000000
         C            0.748156063589    -0.108628598309     0.000030351790    12.000000000000
         C            1.780961063589     0.855864401691     0.000030351790    12.000000000000
         C           -2.855266936411    -0.196771598309     0.000019351790    12.000000000000
         C           -2.604014936411     1.167029401691     0.000022351790    12.000000000000
         C            3.089838063589     0.364472401691     0.000024351790    12.000000000000
         C            1.517274063589     2.335586401691     0.000031351790    12.000000000000
         C           -4.120320936411    -0.984678598309     0.000031351790    12.000000000000
         C            3.338461063589    -1.007140598309     0.000025351790    12.000000000000
         C            2.247086063589    -1.872707598309     0.000027351790    12.000000000000
         H           -1.354568936411    -1.750963598309     0.000034351790     1.007825032230
         H           -3.334778936411     1.966800401691     0.000014351790     1.007825032230
         H            3.919408063589     1.069600401691     0.000023351790     1.007825032230
         H            0.929950063589     2.631793401691    -0.871929648210     1.007825032230
         H            0.929955063589     2.631792401691     0.871996351790     1.007825032230
         H            2.466274063589     2.880165401691     0.000030351790     1.007825032230
         H           -4.217207836411    -1.614759498309    -0.890499348210     1.007825032230
         H           -4.201052936411    -1.623824598309     0.885699351790     1.007825032230
         H           -4.973214936411    -0.301896598309     0.000053351790     1.007825032230
         H            4.353202063589    -1.395478598309     0.000020351790     1.007825032230
         H            2.385592063589    -2.952743598309     0.000029351790     1.007825032230

  Basis Set: AUG-CC-PVTZ
    Blend: AUG-CC-PVTZ
  Basis Set: (AUG-CC-PVTZ AUX)
    Blend: AUG-CC-PVTZ-JKFIT
	 Reference Energy          =    -548.6269107558623546 [Eh]
	 Singles Energy            =      -0.0000000000000000 [Eh]
	 Same-Spin Energy          =      -0.6116244054460063 [Eh]
	 Opposite-Spin Energy      =      -1.8785937755982114 [Eh]
	 Correlation Energy        =      -2.4902181810442174 [Eh]
	 Total Energy              =    -551.1171289369066244 [Eh]

	 ================> DF-SCS-MP2 Energies <==================
	-----------------------------------------------------------
	 SCS Same-Spin Scale       =       0.3333333333333333 [-]
	 SCS Opposite-Spin Scale   =       1.2000000000000000 [-]
	 SCS Same-Spin Energy      =      -0.2038748018153354 [Eh]
	 SCS Opposite-Spin Energy  =      -2.2543125307178538 [Eh]
	 SCS Correlation Energy    =      -2.4581873325331891 [Eh]
	 SCS Total Energy          =    -551.0850980883955117 [Eh]
	-----------------------------------------------------------

  Dipole Moment: [D]
     X:     0.1553      Y:    -1.7499      Z:    -0.0035     Total:     1.7568

*** Psi4 exiting successfully. Buy a developer a beer!
