                               Psi4 1.4a3.dev225

  ==> Input File <==

--------------------------------------------------------------------------
#psi4
#
memory 32 gb

molecule  {
0 1
  N       -1.5932770    -0.7762670    -0.0000010
  N       -1.2433830     1.4240120     0.0000010
  N        0.9927230    -1.4534560     0.0000030
  C       -0.6561680     0.2207960     0.0000070
  C        0.7646460    -0.1168500     0.0000020
  C        1.7974510     0.8476430     0.0000020
  C       -2.8387770    -0.2049930    -0.0000090
  C       -2.5875250     1.1588080    -0.0000060
  C        3.1063280     0.3562510    -0.0000040
  C        1.5337640     2.3273650     0.0000030
  C       -4.1038310    -0.9929000     0.0000030
  C        3.3549510    -1.0153620    -0.0000030
  C        2.1068760    -2.0052074    -0.0000007
  H       -1.3380790    -1.7591850     0.0000060
  H       -3.3182890     1.9585790    -0.0000140
  H        3.9358980     1.0613790    -0.0000050
  H        0.9464400     2.6235720    -0.8719580
  H        0.9464450     2.6235710     0.8719680
  H        2.4827640     2.8719440     0.0000020
  H       -4.1845960    -1.6320300    -0.8856740
  H       -4.1845630    -1.6320460     0.8856710
  H       -4.9567250    -0.3101180     0.0000250
  H        4.3696920    -1.4037000    -0.0000080
  H        2.4020820    -2.9609650     0.0000010
units angstrom
no_reorient  #important for SAPT in psi4, default
symmetry c1  #important for SAPT in psi4, default
}

set PROPERTIES_ORIGIN ["COM"]
properties('MP2/aug-cc-pvtz', properties = ['dipole'])
--------------------------------------------------------------------------

    Molecular point group: c1
  Charge       = 0
  Multiplicity = 1
  Basis Set: AUG-CC-PVTZ
    Blend: AUG-CC-PVTZ
  Basis Set: (AUG-CC-PVTZ AUX)
    Blend: AUG-CC-PVTZ-JKFIT

    Orbital Energies [Eh]
    ---------------------

    Doubly Occupied:

       1A    -15.604685     2A    -15.569525     3A    -15.539192
       4A    -11.291886     5A    -11.286992     6A    -11.284287
       7A    -11.261475     8A    -11.257359     9A    -11.255822
      10A    -11.251748    11A    -11.235720    12A    -11.232306
      13A    -11.215756    14A     -1.332982    15A     -1.277805
      16A     -1.157489    17A     -1.105559    18A     -1.062961
      19A     -1.017984    20A     -0.963943    21A     -0.925211
      22A     -0.854676    23A     -0.840430    24A     -0.801955
      25A     -0.785139    26A     -0.726556    27A     -0.702052
      28A     -0.648906    29A     -0.631555    30A     -0.616233
      31A     -0.603477    32A     -0.579930    33A     -0.575846
      34A     -0.562163    35A     -0.559147    36A     -0.550940
      37A     -0.544647    38A     -0.543211    39A     -0.528202
      40A     -0.515653    41A     -0.426943    42A     -0.398925
      43A     -0.392273    44A     -0.391367    45A     -0.353796
      46A     -0.268582

  @DF-RHF Final Energy:  -548.58808101528086

   => Energetics <=

    Nuclear Repulsion Energy =            740.6426685304587636
    One-Electron Energy =               -2213.3949166260717902
    Two-Electron Energy =                 924.1641670803322768
    Total Energy =                       -548.5880810152808635
  Basis Set: (AUG-CC-PVTZ AUX)
    Blend: AUG-CC-PVTZ-RI
    Molecular point group: c1

    Geometry (in Angstrom), charge = 0, multiplicity = 1:

       Center              X                  Y                   Z               Mass
    ------------   -----------------  -----------------  -----------------  -----------------
         N           -1.598997424044    -0.759377190026    -0.000000929049    14.003074004430
         N           -1.249103424044     1.440901809974     0.000001070951    14.003074004430
         N            0.987002575956    -1.436566190026     0.000003070951    14.003074004430
         C           -0.661888424044     0.237685809974     0.000007070951    12.000000000000
         C            0.758925575956    -0.099960190026     0.000002070951    12.000000000000
         C            1.791730575956     0.864532809974     0.000002070951    12.000000000000
         C           -2.844497424044    -0.188103190026    -0.000008929049    12.000000000000
         C           -2.593245424044     1.175697809974    -0.000005929049    12.000000000000
         C            3.100607575956     0.373140809974    -0.000003929049    12.000000000000
         C            1.528043575956     2.344254809974     0.000003070951    12.000000000000
         C           -4.109551424044    -0.976010190026     0.000003070951    12.000000000000
         C            3.349230575956    -0.998472190026    -0.000002929049    12.000000000000
         C            2.101155575956    -1.988317590026    -0.000000629049    12.000000000000
         H           -1.343799424044    -1.742295190026     0.000006070951     1.007825032230
         H           -3.324009424044     1.975468809974    -0.000013929049     1.007825032230
         H            3.930177575956     1.078268809974    -0.000004929049     1.007825032230
         H            0.940719575956     2.640461809974    -0.871957929049     1.007825032230
         H            0.940724575956     2.640460809974     0.871968070951     1.007825032230
         H            2.477043575956     2.888833809974     0.000002070951     1.007825032230
         H           -4.190316424044    -1.615140190026    -0.885673929049     1.007825032230
         H           -4.190283424044    -1.615156190026     0.885671070951     1.007825032230
         H           -4.962445424044    -0.293228190026     0.000025070951     1.007825032230
         H            4.363971575956    -1.386810190026    -0.000007929049     1.007825032230
         H            2.396361575956    -2.944075190026     0.000001070951     1.007825032230

  Basis Set: AUG-CC-PVTZ
    Blend: AUG-CC-PVTZ
  Basis Set: (AUG-CC-PVTZ AUX)
    Blend: AUG-CC-PVTZ-JKFIT
	 Reference Energy          =    -548.5880810152808635 [Eh]
	 Singles Energy            =      -0.0000000000000000 [Eh]
	 Same-Spin Energy          =      -0.6105048852128100 [Eh]
	 Opposite-Spin Energy      =      -1.8788481200615654 [Eh]
	 Correlation Energy        =      -2.4893530052743755 [Eh]
	 Total Energy              =    -551.0774340205551880 [Eh]

	 ================> DF-SCS-MP2 Energies <==================
	-----------------------------------------------------------
	 SCS Same-Spin Scale       =       0.3333333333333333 [-]
	 SCS Opposite-Spin Scale   =       1.2000000000000000 [-]
	 SCS Same-Spin Energy      =      -0.2035016284042700 [Eh]
	 SCS Opposite-Spin Energy  =      -2.2546177440738786 [Eh]
	 SCS Correlation Energy    =      -2.4581193724781487 [Eh]
	 SCS Total Energy          =    -551.0462003877589723 [Eh]
	-----------------------------------------------------------

  Dipole Moment: [D]
     X:     0.0209      Y:    -2.1157      Z:     0.0000     Total:     2.1158

*** Psi4 exiting successfully. Buy a developer a beer!
