                               Psi4 1.4a3.dev225

  ==> Input File <==

--------------------------------------------------------------------------
#psi4
#
memory 32 gb

molecule  {
0 1
  N       -1.5932770    -0.7762670    -0.0000010
  N       -1.2433830     1.4240120     0.0000010
  N        0.9927230    -1.4534560     0.0000030
  C       -0.6561680     0.2207960     0.0000070
  C        0.7646460    -0.1168500     0.0000020
  C        1.7706068     0.8437894     0.0449121
  C       -2.8387770    -0.2049930    -0.0000090
  C       -2.5875250     1.1588080    -0.0000060
  C        3.1063280     0.3562510    -0.0000040
  C        1.5337640     2.3273650     0.0000030
  C       -4.1038310    -0.9929000     0.0000030
  C        3.3549510    -1.0153620    -0.0000030
  C        2.2635760    -1.8809290    -0.0000010
  H       -1.3380790    -1.7591850     0.0000060
  H       -3.3182890     1.9585790    -0.0000140
  H        3.9358980     1.0613790    -0.0000050
  H        0.9464400     2.6235720    -0.8719580
  H        0.9464450     2.6235710     0.8719680
  H        2.4827640     2.8719440     0.0000020
  H       -4.1845960    -1.6320300    -0.8856740
  H       -4.1845630    -1.6320460     0.8856710
  H       -4.9567250    -0.3101180     0.0000250
  H        4.3696920    -1.4037000    -0.0000080
  H        2.4020820    -2.9609650     0.0000010
units angstrom
no_reorient  #important for SAPT in psi4, default
symmetry c1  #important for SAPT in psi4, default
}

set PROPERTIES_ORIGIN ["COM"]
properties('MP2/aug-cc-pvtz', properties = ['dipole'])
--------------------------------------------------------------------------

    Molecular point group: c1
  Charge       = 0
  Multiplicity = 1
  Basis Set: AUG-CC-PVTZ
    Blend: AUG-CC-PVTZ
  Basis Set: (AUG-CC-PVTZ AUX)
    Blend: AUG-CC-PVTZ-JKFIT

    Orbital Energies [Eh]
    ---------------------

    Doubly Occupied:

       1A    -15.606731     2A    -15.572627     3A    -15.542973
       4A    -11.292350     5A    -11.286201     6A    -11.278460
       7A    -11.264273     8A    -11.259953     9A    -11.253014
      10A    -11.243860    11A    -11.237083    12A    -11.233942
      13A    -11.215654    14A     -1.334400    15A     -1.258529
      16A     -1.159802    17A     -1.096172    18A     -1.074150
      19A     -1.029263    20A     -0.956799    21A     -0.928660
      22A     -0.864932    23A     -0.837728    24A     -0.804294
      25A     -0.777502    26A     -0.727124    27A     -0.675717
      28A     -0.661230    29A     -0.628699    30A     -0.617411
      31A     -0.594739    32A     -0.579829    33A     -0.574830
      34A     -0.565387    35A     -0.560458    36A     -0.552236
      37A     -0.550132    38A     -0.544475    39A     -0.523025
      40A     -0.502844    41A     -0.433452    42A     -0.425039
      43A     -0.393789    44A     -0.384965    45A     -0.355626
      46A     -0.279343

  @DF-RHF Final Energy:  -548.62538940606498

   => Energetics <=

    Nuclear Repulsion Energy =            741.5889178697533453
    One-Electron Energy =               -2215.3492094813477706
    Two-Electron Energy =                 925.1349022055293290
    Total Energy =                       -548.6253894060649827
  Basis Set: (AUG-CC-PVTZ AUX)
    Blend: AUG-CC-PVTZ-RI
    Molecular point group: c1

    Geometry (in Angstrom), charge = 0, multiplicity = 1:

       Center              X                  Y                   Z               Mass
    ------------   -----------------  -----------------  -----------------  -----------------
         N           -1.607999803795    -0.767725756521    -0.003114344654    14.003074004430
         N           -1.258105803795     1.432553243479    -0.003112344654    14.003074004430
         N            0.978000196205    -1.444914756521    -0.003110344654    14.003074004430
         C           -0.670890803795     0.229337243479    -0.003106344654    12.000000000000
         C            0.749923196205    -0.108308756521    -0.003111344654    12.000000000000
         C            1.755883996205     0.852330643479     0.041798755346    12.000000000000
         C           -2.853499803795    -0.196451756521    -0.003122344654    12.000000000000
         C           -2.602247803795     1.167349243479    -0.003119344654    12.000000000000
         C            3.091605196205     0.364792243479    -0.003117344654    12.000000000000
         C            1.519041196205     2.335906243479    -0.003110344654    12.000000000000
         C           -4.118553803795    -0.984358756521    -0.003110344654    12.000000000000
         C            3.340228196205    -1.006820756521    -0.003116344654    12.000000000000
         C            2.248853196205    -1.872387756521    -0.003114344654    12.000000000000
         H           -1.352801803795    -1.750643756521    -0.003107344654     1.007825032230
         H           -3.333011803795     1.967120243479    -0.003127344654     1.007825032230
         H            3.921175196205     1.069920243479    -0.003118344654     1.007825032230
         H            0.931717196205     2.632113243479    -0.875071344654     1.007825032230
         H            0.931722196205     2.632112243479     0.868854655346     1.007825032230
         H            2.468041196205     2.880485243479    -0.003111344654     1.007825032230
         H           -4.199318803795    -1.623488756521    -0.888787344654     1.007825032230
         H           -4.199285803795    -1.623504756521     0.882557655346     1.007825032230
         H           -4.971447803795    -0.301576756521    -0.003088344654     1.007825032230
         H            4.354969196205    -1.395158756521    -0.003121344654     1.007825032230
         H            2.387359196205    -2.952423756521    -0.003112344654     1.007825032230

  Basis Set: AUG-CC-PVTZ
    Blend: AUG-CC-PVTZ
  Basis Set: (AUG-CC-PVTZ AUX)
    Blend: AUG-CC-PVTZ-JKFIT
	 Reference Energy          =    -548.6253894060649827 [Eh]
	 Singles Energy            =      -0.0000000000000000 [Eh]
	 Same-Spin Energy          =      -0.6115874570322855 [Eh]
	 Opposite-Spin Energy      =      -1.8786764398903033 [Eh]
	 Correlation Energy        =      -2.4902638969225888 [Eh]
	 Total Energy              =    -551.1156533029875391 [Eh]

	 ================> DF-SCS-MP2 Energies <==================
	-----------------------------------------------------------
	 SCS Same-Spin Scale       =       0.3333333333333333 [-]
	 SCS Opposite-Spin Scale   =       1.2000000000000000 [-]
	 SCS Same-Spin Energy      =      -0.2038624856774285 [Eh]
	 SCS Opposite-Spin Energy  =      -2.2544117278683640 [Eh]
	 SCS Correlation Energy    =      -2.4582742135457925 [Eh]
	 SCS Total Energy          =    -551.0836636196107747 [Eh]
	-----------------------------------------------------------

  Dipole Moment: [D]
     X:     0.2257      Y:    -1.7644      Z:    -0.0050     Total:     1.7788

*** Psi4 exiting successfully. Buy a developer a beer!
