                               Psi4 1.4a3.dev225

  ==> Input File <==

--------------------------------------------------------------------------
#psi4
#
memory 32 gb

molecule  {
0 1
  N       -1.5932770    -0.7762670    -0.0000010
  N       -1.2433830     1.4240120     0.0000010
  N        1.0392309    -1.4446820     0.0000028
  C       -0.6561680     0.2207960     0.0000070
  C        0.7646460    -0.1168500     0.0000020
  C        1.7974510     0.8476430     0.0000020
  C       -2.8387770    -0.2049930    -0.0000090
  C       -2.5875250     1.1588080    -0.0000060
  C        3.1063280     0.3562510    -0.0000040
  C        1.5337640     2.3273650     0.0000030
  C       -4.1038310    -0.9929000     0.0000030
  C        3.3549510    -1.0153620    -0.0000030
  C        2.2635760    -1.8809290    -0.0000010
  H       -1.3380790    -1.7591850     0.0000060
  H       -3.3182890     1.9585790    -0.0000140
  H        3.9358980     1.0613790    -0.0000050
  H        0.9464400     2.6235720    -0.8719580
  H        0.9464450     2.6235710     0.8719680
  H        2.4827640     2.8719440     0.0000020
  H       -4.1845960    -1.6320300    -0.8856740
  H       -4.1845630    -1.6320460     0.8856710
  H       -4.9567250    -0.3101180     0.0000250
  H        4.3696920    -1.4037000    -0.0000080
  H        2.4020820    -2.9609650     0.0000010
units angstrom
no_reorient  #important for SAPT in psi4, default
symmetry c1  #important for SAPT in psi4, default
}

set PROPERTIES_ORIGIN ["COM"]
properties('MP2/aug-cc-pvtz', properties = ['dipole'])
--------------------------------------------------------------------------

    Molecular point group: c1
  Charge       = 0
  Multiplicity = 1
  Basis Set: AUG-CC-PVTZ
    Blend: AUG-CC-PVTZ
  Basis Set: (AUG-CC-PVTZ AUX)
    Blend: AUG-CC-PVTZ-JKFIT

    Orbital Energies [Eh]
    ---------------------

    Doubly Occupied:

       1A    -15.608549     2A    -15.566662     3A    -15.544527
       4A    -11.294703     5A    -11.288469     6A    -11.272041
       7A    -11.265766     8A    -11.254612     9A    -11.252096
      10A    -11.241781    11A    -11.238045    12A    -11.235357
      13A    -11.214885    14A     -1.335729    15A     -1.267050
      16A     -1.161119    17A     -1.098940    18A     -1.073948
      19A     -1.029063    20A     -0.958826    21A     -0.930080
      22A     -0.865496    23A     -0.833709    24A     -0.805961
      25A     -0.780654    26A     -0.729183    27A     -0.680402
      28A     -0.660807    29A     -0.628218    30A     -0.618496
      31A     -0.596201    32A     -0.580518    33A     -0.576108
      34A     -0.565542    35A     -0.561910    36A     -0.552544
      37A     -0.548155    38A     -0.545349    39A     -0.526923
      40A     -0.509198    41A     -0.431802    42A     -0.417125
      43A     -0.395026    44A     -0.384989    45A     -0.358516
      46A     -0.278519

  @DF-RHF Final Energy:  -548.62766070105613

   => Energetics <=

    Nuclear Repulsion Energy =            741.9008204238062945
    One-Electron Energy =               -2215.9297590970249985
    Two-Electron Energy =                 925.4012779721626885
    Total Energy =                       -548.6276607010561293
  Basis Set: (AUG-CC-PVTZ AUX)
    Blend: AUG-CC-PVTZ-RI
    Molecular point group: c1

    Geometry (in Angstrom), charge = 0, multiplicity = 1:

       Center              X                  Y                   Z               Mass
    ------------   -----------------  -----------------  -----------------  -----------------
         N           -1.613623203046    -0.768702710684    -0.000000892072    14.003074004430
         N           -1.263729203046     1.431576289316     0.000001107928    14.003074004430
         N            1.018884696954    -1.437117710684     0.000002907928    14.003074004430
         C           -0.676514203046     0.228360289316     0.000007107928    12.000000000000
         C            0.744299796954    -0.109285710684     0.000002107928    12.000000000000
         C            1.777104796954     0.855207289316     0.000002107928    12.000000000000
         C           -2.859123203046    -0.197428710684    -0.000008892072    12.000000000000
         C           -2.607871203046     1.166372289316    -0.000005892072    12.000000000000
         C            3.085981796954     0.363815289316    -0.000003892072    12.000000000000
         C            1.513417796954     2.334929289316     0.000003107928    12.000000000000
         C           -4.124177203046    -0.985335710684     0.000003107928    12.000000000000
         C            3.334604796954    -1.007797710684    -0.000002892072    12.000000000000
         C            2.243229796954    -1.873364710684    -0.000000892072    12.000000000000
         H           -1.358425203046    -1.751620710684     0.000006107928     1.007825032230
         H           -3.338635203046     1.966143289316    -0.000013892072     1.007825032230
         H            3.915551796954     1.068943289316    -0.000004892072     1.007825032230
         H            0.926093796954     2.631136289316    -0.871957892072     1.007825032230
         H            0.926098796954     2.631135289316     0.871968107928     1.007825032230
         H            2.462417796954     2.879508289316     0.000002107928     1.007825032230
         H           -4.204942203046    -1.624465710684    -0.885673892072     1.007825032230
         H           -4.204909203046    -1.624481710684     0.885671107928     1.007825032230
         H           -4.977071203046    -0.302553710684     0.000025107928     1.007825032230
         H            4.349345796954    -1.396135710684    -0.000007892072     1.007825032230
         H            2.381735796954    -2.953400710684     0.000001107928     1.007825032230

  Basis Set: AUG-CC-PVTZ
    Blend: AUG-CC-PVTZ
  Basis Set: (AUG-CC-PVTZ AUX)
    Blend: AUG-CC-PVTZ-JKFIT
	 Reference Energy          =    -548.6276607010561293 [Eh]
	 Singles Energy            =      -0.0000000000000000 [Eh]
	 Same-Spin Energy          =      -0.6111752728195460 [Eh]
	 Opposite-Spin Energy      =      -1.8771308612320146 [Eh]
	 Correlation Energy        =      -2.4883061340515606 [Eh]
	 Total Energy              =    -551.1159668351076562 [Eh]

	 ================> DF-SCS-MP2 Energies <==================
	-----------------------------------------------------------
	 SCS Same-Spin Scale       =       0.3333333333333333 [-]
	 SCS Opposite-Spin Scale   =       1.2000000000000000 [-]
	 SCS Same-Spin Energy      =      -0.2037250909398486 [Eh]
	 SCS Opposite-Spin Energy  =      -2.2525570334784173 [Eh]
	 SCS Correlation Energy    =      -2.4562821244182658 [Eh]
	 SCS Total Energy          =    -551.0839428254744234 [Eh]
	-----------------------------------------------------------

  Dipole Moment: [D]
     X:     0.0140      Y:    -1.7887      Z:     0.0000     Total:     1.7887

*** Psi4 exiting successfully. Buy a developer a beer!
