                               Psi4 1.4a3.dev225

  ==> Input File <==

--------------------------------------------------------------------------
#psi4
#
memory 32 gb

molecule  {
0 1
  N       -1.5932770    -0.7762670    -0.0000010
  N       -1.2433830     1.4240120     0.0000010
  N        0.9927230    -1.4534560     0.0000030
  C       -0.6904110     0.1843622     0.0000067
  C        0.7646460    -0.1168500     0.0000020
  C        1.7974510     0.8476430     0.0000020
  C       -2.8387770    -0.2049930    -0.0000090
  C       -2.5875250     1.1588080    -0.0000060
  C        3.1063280     0.3562510    -0.0000040
  C        1.5337640     2.3273650     0.0000030
  C       -4.1038310    -0.9929000     0.0000030
  C        3.3549510    -1.0153620    -0.0000030
  C        2.2635760    -1.8809290    -0.0000010
  H       -1.3380790    -1.7591850     0.0000060
  H       -3.3182890     1.9585790    -0.0000140
  H        3.9358980     1.0613790    -0.0000050
  H        0.9464400     2.6235720    -0.8719580
  H        0.9464450     2.6235710     0.8719680
  H        2.4827640     2.8719440     0.0000020
  H       -4.1845960    -1.6320300    -0.8856740
  H       -4.1845630    -1.6320460     0.8856710
  H       -4.9567250    -0.3101180     0.0000250
  H        4.3696920    -1.4037000    -0.0000080
  H        2.4020820    -2.9609650     0.0000010
units angstrom
no_reorient  #important for SAPT in psi4, default
symmetry c1  #important for SAPT in psi4, default
}

set PROPERTIES_ORIGIN ["COM"]
properties('MP2/aug-cc-pvtz', properties = ['dipole'])
--------------------------------------------------------------------------

    Molecular point group: c1
  Charge       = 0
  Multiplicity = 1
  Basis Set: AUG-CC-PVTZ
    Blend: AUG-CC-PVTZ
  Basis Set: (AUG-CC-PVTZ AUX)
    Blend: AUG-CC-PVTZ-JKFIT

    Orbital Energies [Eh]
    ---------------------

    Doubly Occupied:

       1A    -15.611803     2A    -15.572538     3A    -15.541093
       4A    -11.292821     5A    -11.290747     6A    -11.276870
       7A    -11.261449     8A    -11.256578     9A    -11.253242
      10A    -11.243374    11A    -11.236670    12A    -11.235735
      13A    -11.214712    14A     -1.346536    15A     -1.258143
      16A     -1.161091    17A     -1.098505    18A     -1.071592
      19A     -1.030764    20A     -0.954691    21A     -0.927304
      22A     -0.861756    23A     -0.835912    24A     -0.810266
      25A     -0.784786    26A     -0.730135    27A     -0.675575
      28A     -0.661304    29A     -0.625019    30A     -0.622383
      31A     -0.594027    32A     -0.578588    33A     -0.575705
      34A     -0.566074    35A     -0.558470    36A     -0.554412
      37A     -0.548033    38A     -0.542795    39A     -0.523022
      40A     -0.504512    41A     -0.433708    42A     -0.425635
      43A     -0.393552    44A     -0.386447    45A     -0.353785
      46A     -0.280241

  @DF-RHF Final Energy:  -548.62463099444813

   => Energetics <=

    Nuclear Repulsion Energy =            741.5478789269253639
    One-Electron Energy =               -2215.2202144101661361
    Two-Electron Energy =                 925.0477044887925331
    Total Energy =                       -548.6246309944481254
  Basis Set: (AUG-CC-PVTZ AUX)
    Blend: AUG-CC-PVTZ-RI
    Molecular point group: c1

    Geometry (in Angstrom), charge = 0, multiplicity = 1:

       Center              X                  Y                   Z               Mass
    ------------   -----------------  -----------------  -----------------  -----------------
         N           -1.607486874782    -0.765467102439    -0.000000887454    14.003074004430
         N           -1.257592874782     1.434811897561     0.000001112546    14.003074004430
         N            0.978513125218    -1.442656102439     0.000003112546    14.003074004430
         C           -0.704620874782     0.195162097561     0.000006812546    12.000000000000
         C            0.750436125218    -0.106050102439     0.000002112546    12.000000000000
         C            1.783241125218     0.858442897561     0.000002112546    12.000000000000
         C           -2.852986874782    -0.194193102439    -0.000008887454    12.000000000000
         C           -2.601734874782     1.169607897561    -0.000005887454    12.000000000000
         C            3.092118125218     0.367050897561    -0.000003887454    12.000000000000
         C            1.519554125218     2.338164897561     0.000003112546    12.000000000000
         C           -4.118040874782    -0.982100102439     0.000003112546    12.000000000000
         C            3.340741125218    -1.004562102439    -0.000002887454    12.000000000000
         C            2.249366125218    -1.870129102439    -0.000000887454    12.000000000000
         H           -1.352288874782    -1.748385102439     0.000006112546     1.007825032230
         H           -3.332498874782     1.969378897561    -0.000013887454     1.007825032230
         H            3.921688125218     1.072178897561    -0.000004887454     1.007825032230
         H            0.932230125218     2.634371897561    -0.871957887454     1.007825032230
         H            0.932235125218     2.634370897561     0.871968112546     1.007825032230
         H            2.468554125218     2.882743897561     0.000002112546     1.007825032230
         H           -4.198805874782    -1.621230102439    -0.885673887454     1.007825032230
         H           -4.198772874782    -1.621246102439     0.885671112546     1.007825032230
         H           -4.970934874782    -0.299318102439     0.000025112546     1.007825032230
         H            4.355482125218    -1.392900102439    -0.000007887454     1.007825032230
         H            2.387872125218    -2.950165102439     0.000001112546     1.007825032230

  Basis Set: AUG-CC-PVTZ
    Blend: AUG-CC-PVTZ
  Basis Set: (AUG-CC-PVTZ AUX)
    Blend: AUG-CC-PVTZ-JKFIT
	 Reference Energy          =    -548.6246309944481254 [Eh]
	 Singles Energy            =      -0.0000000000000000 [Eh]
	 Same-Spin Energy          =      -0.6113412329942153 [Eh]
	 Opposite-Spin Energy      =      -1.8780415841827967 [Eh]
	 Correlation Energy        =      -2.4893828171770118 [Eh]
	 Total Energy              =    -551.1140138116251137 [Eh]

	 ================> DF-SCS-MP2 Energies <==================
	-----------------------------------------------------------
	 SCS Same-Spin Scale       =       0.3333333333333333 [-]
	 SCS Opposite-Spin Scale   =       1.2000000000000000 [-]
	 SCS Same-Spin Energy      =      -0.2037804109980718 [Eh]
	 SCS Opposite-Spin Energy  =      -2.2536499010193558 [Eh]
	 SCS Correlation Energy    =      -2.4574303120174275 [Eh]
	 SCS Total Energy          =    -551.0820613064655618 [Eh]
	-----------------------------------------------------------

  Dipole Moment: [D]
     X:     0.1533      Y:    -1.8341      Z:     0.0000     Total:     1.8405

*** Psi4 exiting successfully. Buy a developer a beer!
