                               Psi4 1.4a3.dev225

  ==> Input File <==

--------------------------------------------------------------------------
#psi4
#
memory 32 gb

molecule  {
0 1
  N       -1.5932770    -0.7762670    -0.0000010
  N       -1.2433830     1.4240120     0.0000010
  N        0.9927230    -1.4534560     0.0000030
  C       -0.6561680     0.2207960     0.0000070
  C        0.7982875    -0.3140003     0.0000021
  C        1.7974510     0.8476430     0.0000020
  C       -2.8387770    -0.2049930    -0.0000090
  C       -2.5875250     1.1588080    -0.0000060
  C        3.1063280     0.3562510    -0.0000040
  C        1.5337640     2.3273650     0.0000030
  C       -4.1038310    -0.9929000     0.0000030
  C        3.3549510    -1.0153620    -0.0000030
  C        2.2635760    -1.8809290    -0.0000010
  H       -1.3380790    -1.7591850     0.0000060
  H       -3.3182890     1.9585790    -0.0000140
  H        3.9358980     1.0613790    -0.0000050
  H        0.9464400     2.6235720    -0.8719580
  H        0.9464450     2.6235710     0.8719680
  H        2.4827640     2.8719440     0.0000020
  H       -4.1845960    -1.6320300    -0.8856740
  H       -4.1845630    -1.6320460     0.8856710
  H       -4.9567250    -0.3101180     0.0000250
  H        4.3696920    -1.4037000    -0.0000080
  H        2.4020820    -2.9609650     0.0000010
units angstrom
no_reorient  #important for SAPT in psi4, default
symmetry c1  #important for SAPT in psi4, default
}

set PROPERTIES_ORIGIN ["COM"]
properties('MP2/aug-cc-pvtz', properties = ['dipole'])
--------------------------------------------------------------------------

    Molecular point group: c1
  Charge       = 0
  Multiplicity = 1
  Basis Set: AUG-CC-PVTZ
    Blend: AUG-CC-PVTZ
  Basis Set: (AUG-CC-PVTZ AUX)
    Blend: AUG-CC-PVTZ-JKFIT

    Orbital Energies [Eh]
    ---------------------

    Doubly Occupied:

       1A    -15.603260     2A    -15.561343     3A    -15.543320
       4A    -11.292065     5A    -11.291089     6A    -11.275710
       7A    -11.261281     8A    -11.261236     9A    -11.248131
      10A    -11.245398    11A    -11.235542    12A    -11.233101
      13A    -11.219644    14A     -1.344159    15A     -1.317170
      16A     -1.157643    17A     -1.104990    18A     -1.062156
      19A     -1.028132    20A     -0.955350    21A     -0.930392
      22A     -0.855398    23A     -0.841617    24A     -0.799387
      25A     -0.785410    26A     -0.720872    27A     -0.690512
      28A     -0.652774    29A     -0.625156    30A     -0.618548
      31A     -0.588833    32A     -0.588550    33A     -0.581510
      34A     -0.561394    35A     -0.559194    36A     -0.556558
      37A     -0.553033    38A     -0.543912    39A     -0.541475
      40A     -0.510174    41A     -0.434312    42A     -0.408652
      43A     -0.403218    44A     -0.391486    45A     -0.336064
      46A     -0.283922

  @DF-RHF Final Energy:  -548.57566994156650

   => Energetics <=

    Nuclear Repulsion Energy =            742.0509813147035629
    One-Electron Energy =               -2216.0471600487385331
    Two-Electron Energy =                 925.4205087924683539
    Total Energy =                       -548.5756699415665025
  Basis Set: (AUG-CC-PVTZ AUX)
    Blend: AUG-CC-PVTZ-RI
    Molecular point group: c1

    Geometry (in Angstrom), charge = 0, multiplicity = 1:

       Center              X                  Y                   Z               Mass
    ------------   -----------------  -----------------  -----------------  -----------------
         N           -1.612193033831    -0.754325274617    -0.000000915184    14.003074004430
         N           -1.262299033831     1.445953725383     0.000001084816    14.003074004430
         N            0.973806966169    -1.431514274617     0.000003084816    14.003074004430
         C           -0.675084033831     0.242737725383     0.000007084816    12.000000000000
         C            0.779371466169    -0.292058574617     0.000002184816    12.000000000000
         C            1.778534966169     0.869584725383     0.000002084816    12.000000000000
         C           -2.857693033831    -0.183051274617    -0.000008915184    12.000000000000
         C           -2.606441033831     1.180749725383    -0.000005915184    12.000000000000
         C            3.087411966169     0.378192725383    -0.000003915184    12.000000000000
         C            1.514847966169     2.349306725383     0.000003084816    12.000000000000
         C           -4.122747033831    -0.970958274617     0.000003084816    12.000000000000
         C            3.336034966169    -0.993420274617    -0.000002915184    12.000000000000
         C            2.244659966169    -1.858987274617    -0.000000915184    12.000000000000
         H           -1.356995033831    -1.737243274617     0.000006084816     1.007825032230
         H           -3.337205033831     1.980520725383    -0.000013915184     1.007825032230
         H            3.916981966169     1.083320725383    -0.000004915184     1.007825032230
         H            0.927523966169     2.645513725383    -0.871957915184     1.007825032230
         H            0.927528966169     2.645512725383     0.871968084816     1.007825032230
         H            2.463847966169     2.893885725383     0.000002084816     1.007825032230
         H           -4.203512033831    -1.610088274617    -0.885673915184     1.007825032230
         H           -4.203479033831    -1.610104274617     0.885671084816     1.007825032230
         H           -4.975641033831    -0.288176274617     0.000025084816     1.007825032230
         H            4.350775966169    -1.381758274617    -0.000007915184     1.007825032230
         H            2.383165966169    -2.939023274617     0.000001084816     1.007825032230

  Basis Set: AUG-CC-PVTZ
    Blend: AUG-CC-PVTZ
  Basis Set: (AUG-CC-PVTZ AUX)
    Blend: AUG-CC-PVTZ-JKFIT
	 Reference Energy          =    -548.5756699415665025 [Eh]
	 Singles Energy            =      -0.0000000000000000 [Eh]
	 Same-Spin Energy          =      -0.6083747113104143 [Eh]
	 Opposite-Spin Energy      =      -1.8752876013772104 [Eh]
	 Correlation Energy        =      -2.4836623126876249 [Eh]
	 Total Energy              =    -551.0593322542541728 [Eh]

	 ================> DF-SCS-MP2 Energies <==================
	-----------------------------------------------------------
	 SCS Same-Spin Scale       =       0.3333333333333333 [-]
	 SCS Opposite-Spin Scale   =       1.2000000000000000 [-]
	 SCS Same-Spin Energy      =      -0.2027915704368048 [Eh]
	 SCS Opposite-Spin Energy  =      -2.2503451216526522 [Eh]
	 SCS Correlation Energy    =      -2.4531366920894571 [Eh]
	 SCS Total Energy          =    -551.0288066336559041 [Eh]
	-----------------------------------------------------------

  Dipole Moment: [D]
     X:     0.3840      Y:    -1.9099      Z:     0.0000     Total:     1.9481

*** Psi4 exiting successfully. Buy a developer a beer!
