                               Psi4 1.4a3.dev225

  ==> Input File <==

--------------------------------------------------------------------------
#psi4
#
memory 32 gb

molecule  {
0 1
  N       -1.5932770    -0.7762670    -0.0000010
  N       -1.2433830     1.4240120     0.0000010
  N        0.9927230    -1.4534560     0.0000030
  C       -0.6561680     0.2207960     0.0000070
  C        0.8344415    -0.1865454     0.0000019
  C        1.7974510     0.8476430     0.0000020
  C       -2.8387770    -0.2049930    -0.0000090
  C       -2.5875250     1.1588080    -0.0000060
  C        3.1063280     0.3562510    -0.0000040
  C        1.5337640     2.3273650     0.0000030
  C       -4.1038310    -0.9929000     0.0000030
  C        3.3549510    -1.0153620    -0.0000030
  C        2.2635760    -1.8809290    -0.0000010
  H       -1.3380790    -1.7591850     0.0000060
  H       -3.3182890     1.9585790    -0.0000140
  H        3.9358980     1.0613790    -0.0000050
  H        0.9464400     2.6235720    -0.8719580
  H        0.9464450     2.6235710     0.8719680
  H        2.4827640     2.8719440     0.0000020
  H       -4.1845960    -1.6320300    -0.8856740
  H       -4.1845630    -1.6320460     0.8856710
  H       -4.9567250    -0.3101180     0.0000250
  H        4.3696920    -1.4037000    -0.0000080
  H        2.4020820    -2.9609650     0.0000010
units angstrom
no_reorient  #important for SAPT in psi4, default
symmetry c1  #important for SAPT in psi4, default
}

set PROPERTIES_ORIGIN ["COM"]
properties('MP2/aug-cc-pvtz', properties = ['dipole'])
--------------------------------------------------------------------------

    Molecular point group: c1
  Charge       = 0
  Multiplicity = 1
  Basis Set: AUG-CC-PVTZ
    Blend: AUG-CC-PVTZ
  Basis Set: (AUG-CC-PVTZ AUX)
    Blend: AUG-CC-PVTZ-JKFIT

    Orbital Energies [Eh]
    ---------------------

    Doubly Occupied:

       1A    -15.604059     2A    -15.571093     3A    -15.540073
       4A    -11.293216     5A    -11.290945     6A    -11.278787
       7A    -11.260646     8A    -11.256634     9A    -11.253549
      10A    -11.244538    11A    -11.235085    12A    -11.231471
      13A    -11.218825    14A     -1.331744    15A     -1.285190
      16A     -1.156593    17A     -1.105631    18A     -1.066795
      19A     -1.028287    20A     -0.954093    21A     -0.928509
      22A     -0.859203    23A     -0.845084    24A     -0.801713
      25A     -0.778870    26A     -0.721358    27A     -0.682789
      28A     -0.659667    29A     -0.624645    30A     -0.614731
      31A     -0.591783    32A     -0.583045    33A     -0.576724
      34A     -0.562465    35A     -0.558701    36A     -0.552802
      37A     -0.550818    38A     -0.541008    39A     -0.533382
      40A     -0.504782    41A     -0.437485    42A     -0.420477
      43A     -0.394579    44A     -0.390206    45A     -0.349799
      46A     -0.282694

  @DF-RHF Final Energy:  -548.61984264597470

   => Energetics <=

    Nuclear Repulsion Energy =            741.5212523705943113
    One-Electron Energy =               -2215.1730453963441505
    Two-Electron Energy =                 925.0319503797751395
    Total Energy =                       -548.6198426459746997
  Basis Set: (AUG-CC-PVTZ AUX)
    Blend: AUG-CC-PVTZ-RI
    Molecular point group: c1

    Geometry (in Angstrom), charge = 0, multiplicity = 1:

       Center              X                  Y                   Z               Mass
    ------------   -----------------  -----------------  -----------------  -----------------
         N           -1.614699445077    -0.763161209638    -0.000000901319    14.003074004430
         N           -1.264805445077     1.437117790362     0.000001098681    14.003074004430
         N            0.971300554923    -1.440350209638     0.000003098681    14.003074004430
         C           -0.677590445077     0.233901790362     0.000007098681    12.000000000000
         C            0.813019054923    -0.173439609638     0.000001998681    12.000000000000
         C            1.776028554923     0.860748790362     0.000002098681    12.000000000000
         C           -2.860199445077    -0.191887209638    -0.000008901319    12.000000000000
         C           -2.608947445077     1.171913790362    -0.000005901319    12.000000000000
         C            3.084905554923     0.369356790362    -0.000003901319    12.000000000000
         C            1.512341554923     2.340470790362     0.000003098681    12.000000000000
         C           -4.125253445077    -0.979794209638     0.000003098681    12.000000000000
         C            3.333528554923    -1.002256209638    -0.000002901319    12.000000000000
         C            2.242153554923    -1.867823209638    -0.000000901319    12.000000000000
         H           -1.359501445077    -1.746079209638     0.000006098681     1.007825032230
         H           -3.339711445077     1.971684790362    -0.000013901319     1.007825032230
         H            3.914475554923     1.074484790362    -0.000004901319     1.007825032230
         H            0.925017554923     2.636677790362    -0.871957901319     1.007825032230
         H            0.925022554923     2.636676790362     0.871968098681     1.007825032230
         H            2.461341554923     2.885049790362     0.000002098681     1.007825032230
         H           -4.206018445077    -1.618924209638    -0.885673901319     1.007825032230
         H           -4.205985445077    -1.618940209638     0.885671098681     1.007825032230
         H           -4.978147445077    -0.297012209638     0.000025098681     1.007825032230
         H            4.348269554923    -1.390594209638    -0.000007901319     1.007825032230
         H            2.380659554923    -2.947859209638     0.000001098681     1.007825032230

  Basis Set: AUG-CC-PVTZ
    Blend: AUG-CC-PVTZ
  Basis Set: (AUG-CC-PVTZ AUX)
    Blend: AUG-CC-PVTZ-JKFIT
	 Reference Energy          =    -548.6198426459746997 [Eh]
	 Singles Energy            =      -0.0000000000000000 [Eh]
	 Same-Spin Energy          =      -0.6100172465126950 [Eh]
	 Opposite-Spin Energy      =      -1.8762691367552380 [Eh]
	 Correlation Energy        =      -2.4862863832679327 [Eh]
	 Total Energy              =    -551.1061290292426520 [Eh]

	 ================> DF-SCS-MP2 Energies <==================
	-----------------------------------------------------------
	 SCS Same-Spin Scale       =       0.3333333333333333 [-]
	 SCS Opposite-Spin Scale   =       1.2000000000000000 [-]
	 SCS Same-Spin Energy      =      -0.2033390821708983 [Eh]
	 SCS Opposite-Spin Energy  =      -2.2515229641062855 [Eh]
	 SCS Correlation Energy    =      -2.4548620462771837 [Eh]
	 SCS Total Energy          =    -551.0747046922518848 [Eh]
	-----------------------------------------------------------

  Dipole Moment: [D]
     X:     0.5726      Y:    -1.8152      Z:     0.0000     Total:     1.9033

*** Psi4 exiting successfully. Buy a developer a beer!
