                               Psi4 1.4a3.dev225

  ==> Input File <==

--------------------------------------------------------------------------
#psi4
#
memory 32 gb

molecule  {
0 1
  N       -1.5932770    -0.7762670    -0.0000010
  N       -1.2433830     1.4240120     0.0000010
  N        0.9927230    -1.4534560     0.0000030
  C       -0.6561680     0.2207960     0.0000070
  C        0.7646460    -0.1168500     0.0000020
  C        1.7974510     0.8476430     0.0000020
  C       -2.8569560    -0.1966548    -0.0000091
  C       -2.5875250     1.1588080    -0.0000060
  C        3.1063280     0.3562510    -0.0000040
  C        1.5337640     2.3273650     0.0000030
  C       -4.1038310    -0.9929000     0.0000030
  C        3.3549510    -1.0153620    -0.0000030
  C        2.2635760    -1.8809290    -0.0000010
  H       -1.3380790    -1.7591850     0.0000060
  H       -3.3182890     1.9585790    -0.0000140
  H        3.9358980     1.0613790    -0.0000050
  H        0.9464400     2.6235720    -0.8719580
  H        0.9464450     2.6235710     0.8719680
  H        2.4827640     2.8719440     0.0000020
  H       -4.1845960    -1.6320300    -0.8856740
  H       -4.1845630    -1.6320460     0.8856710
  H       -4.9567250    -0.3101180     0.0000250
  H        4.3696920    -1.4037000    -0.0000080
  H        2.4020820    -2.9609650     0.0000010
units angstrom
no_reorient  #important for SAPT in psi4, default
symmetry c1  #important for SAPT in psi4, default
}

set PROPERTIES_ORIGIN ["COM"]
properties('MP2/aug-cc-pvtz', properties = ['dipole'])
--------------------------------------------------------------------------

    Molecular point group: c1
  Charge       = 0
  Multiplicity = 1
  Basis Set: AUG-CC-PVTZ
    Blend: AUG-CC-PVTZ
  Basis Set: (AUG-CC-PVTZ AUX)
    Blend: AUG-CC-PVTZ-JKFIT

    Orbital Energies [Eh]
    ---------------------

    Doubly Occupied:

       1A    -15.605640     2A    -15.573156     3A    -15.543155
       4A    -11.294678     5A    -11.289523     6A    -11.277371
       7A    -11.265016     8A    -11.256628     9A    -11.253282
      10A    -11.243923    11A    -11.236955    12A    -11.235264
      13A    -11.215757    14A     -1.331004    15A     -1.258172
      16A     -1.157572    17A     -1.098906    18A     -1.073647
      19A     -1.030943    20A     -0.957219    21A     -0.930003
      22A     -0.865909    23A     -0.835744    24A     -0.802892
      25A     -0.776182    26A     -0.726753    27A     -0.676416
      28A     -0.661134    29A     -0.628164    30A     -0.616322
      31A     -0.594014    32A     -0.580104    33A     -0.576441
      34A     -0.566272    35A     -0.562841    36A     -0.551852
      37A     -0.548064    38A     -0.542211    39A     -0.522754
      40A     -0.508048    41A     -0.433686    42A     -0.424220
      43A     -0.392154    44A     -0.386878    45A     -0.355480
      46A     -0.280827

  @DF-RHF Final Energy:  -548.62627640096002

   => Energetics <=

    Nuclear Repulsion Energy =            741.1086603145872687
    One-Electron Energy =               -2214.3835229367009561
    Two-Electron Energy =                 924.6485862211536642
    Total Energy =                       -548.6262764009600232
  Basis Set: (AUG-CC-PVTZ AUX)
    Blend: AUG-CC-PVTZ-RI
    Molecular point group: c1

    Geometry (in Angstrom), charge = 0, multiplicity = 1:

       Center              X                  Y                   Z               Mass
    ------------   -----------------  -----------------  -----------------  -----------------
         N           -1.608600527221    -0.768570964925    -0.000000901319    14.003074004430
         N           -1.258706527221     1.431708035075     0.000001098681    14.003074004430
         N            0.977399472779    -1.445759964925     0.000003098681    14.003074004430
         C           -0.671491527221     0.228492035075     0.000007098681    12.000000000000
         C            0.749322472779    -0.109153964925     0.000002098681    12.000000000000
         C            1.782127472779     0.855339035075     0.000002098681    12.000000000000
         C           -2.872279527221    -0.188958764925    -0.000009001319    12.000000000000
         C           -2.602848527221     1.166504035075    -0.000005901319    12.000000000000
         C            3.091004472779     0.363947035075    -0.000003901319    12.000000000000
         C            1.518440472779     2.335061035075     0.000003098681    12.000000000000
         C           -4.119154527221    -0.985203964925     0.000003098681    12.000000000000
         C            3.339627472779    -1.007665964925    -0.000002901319    12.000000000000
         C            2.248252472779    -1.873232964925    -0.000000901319    12.000000000000
         H           -1.353402527221    -1.751488964925     0.000006098681     1.007825032230
         H           -3.333612527221     1.966275035075    -0.000013901319     1.007825032230
         H            3.920574472779     1.069075035075    -0.000004901319     1.007825032230
         H            0.931116472779     2.631268035075    -0.871957901319     1.007825032230
         H            0.931121472779     2.631267035075     0.871968098681     1.007825032230
         H            2.467440472779     2.879640035075     0.000002098681     1.007825032230
         H           -4.199919527221    -1.624333964925    -0.885673901319     1.007825032230
         H           -4.199886527221    -1.624349964925     0.885671098681     1.007825032230
         H           -4.972048527221    -0.302421964925     0.000025098681     1.007825032230
         H            4.354368472779    -1.396003964925    -0.000007901319     1.007825032230
         H            2.386758472779    -2.953268964925     0.000001098681     1.007825032230

  Basis Set: AUG-CC-PVTZ
    Blend: AUG-CC-PVTZ
  Basis Set: (AUG-CC-PVTZ AUX)
    Blend: AUG-CC-PVTZ-JKFIT
	 Reference Energy          =    -548.6262764009600232 [Eh]
	 Singles Energy            =      -0.0000000000000000 [Eh]
	 Same-Spin Energy          =      -0.6115420083309668 [Eh]
	 Opposite-Spin Energy      =      -1.8787161484644674 [Eh]
	 Correlation Energy        =      -2.4902581567954343 [Eh]
	 Total Energy              =    -551.1165345577554717 [Eh]

	 ================> DF-SCS-MP2 Energies <==================
	-----------------------------------------------------------
	 SCS Same-Spin Scale       =       0.3333333333333333 [-]
	 SCS Opposite-Spin Scale   =       1.2000000000000000 [-]
	 SCS Same-Spin Energy      =      -0.2038473361103223 [Eh]
	 SCS Opposite-Spin Energy  =      -2.2544593781573607 [Eh]
	 SCS Correlation Energy    =      -2.4583067142676831 [Eh]
	 SCS Total Energy          =    -551.0845831152277015 [Eh]
	-----------------------------------------------------------

  Dipole Moment: [D]
     X:     0.1691      Y:    -1.7455      Z:     0.0000     Total:     1.7536

*** Psi4 exiting successfully. Buy a developer a beer!
