                               Psi4 1.4a3.dev225

  ==> Input File <==

--------------------------------------------------------------------------
#psi4
#
memory 32 gb

molecule  {
0 1
  N       -1.5932770    -0.7762670    -0.0000010
  N       -1.2433830     1.4240120     0.0000010
  N        0.9927230    -1.4534560     0.0000030
  C       -0.6561680     0.2207960     0.0000070
  C        0.7646460    -0.1168500     0.0000020
  C        1.7974510     0.8476430     0.0000020
  C       -2.8387770    -0.2049930    -0.0000090
  C       -2.5875250     1.1588080    -0.0000060
  C        3.1063280     0.3562510    -0.0000040
  C        1.5337640     2.3273650     0.0000030
  C       -4.1038310    -0.9929000     0.0000030
  C        3.3549510    -1.0153620    -0.0000030
  C        2.2635760    -1.8809290    -0.0000010
  H       -1.3380790    -1.7591850     0.0000060
  H       -3.3182890     1.9585790    -0.0000140
  H        3.9358980     1.0613790    -0.0000050
  H        0.9464400     2.6235720    -0.8719580
  H        0.9464450     2.6235710     0.8719680
  H        2.4827640     2.8719440     0.0000020
  H       -4.1845960    -1.6320300    -0.8856740
  H       -4.1845630    -1.6320460     0.8856710
  H       -4.9567250    -0.3101180     0.0000250
  H        4.3696920    -1.4037000    -0.0000080
  H        2.3766419    -2.7625896     0.0000006
units angstrom
no_reorient  #important for SAPT in psi4, default
symmetry c1  #important for SAPT in psi4, default
}

set PROPERTIES_ORIGIN ["COM"]
properties('MP2/aug-cc-pvtz', properties = ['dipole'])
--------------------------------------------------------------------------

    Molecular point group: c1
  Charge       = 0
  Multiplicity = 1
  Basis Set: AUG-CC-PVTZ
    Blend: AUG-CC-PVTZ
  Basis Set: (AUG-CC-PVTZ AUX)
    Blend: AUG-CC-PVTZ-JKFIT

    Orbital Energies [Eh]
    ---------------------

    Doubly Occupied:

       1A    -15.607140     2A    -15.571476     3A    -15.543610
       4A    -11.292858     5A    -11.288140     6A    -11.264950
       7A    -11.255345     8A    -11.253306     9A    -11.252419
      10A    -11.242030    11A    -11.237471    12A    -11.234332
      13A    -11.215234    14A     -1.334730    15A     -1.258479
      16A     -1.160148    17A     -1.098280    18A     -1.076653
      19A     -1.030053    20A     -0.959408    21A     -0.935780
      22A     -0.866701    23A     -0.843638    24A     -0.804459
      25A     -0.789946    26A     -0.735518    27A     -0.684989
      28A     -0.660638    29A     -0.632343    30A     -0.617527
      31A     -0.606376    32A     -0.579270    33A     -0.577491
      34A     -0.565181    35A     -0.561360    36A     -0.552148
      37A     -0.548069    38A     -0.544571    39A     -0.522088
      40A     -0.510436    41A     -0.434092    42A     -0.424617
      43A     -0.394043    44A     -0.385653    45A     -0.354766
      46A     -0.278813

  @DF-RHF Final Energy:  -548.59281266017149

   => Energetics <=

    Nuclear Repulsion Energy =            742.6204278646868033
    One-Electron Energy =               -2217.2533352641339661
    Two-Electron Energy =                 926.0400947392755597
    Total Energy =                       -548.5928126601714894
  Basis Set: (AUG-CC-PVTZ AUX)
    Blend: AUG-CC-PVTZ-RI
    Molecular point group: c1

    Geometry (in Angstrom), charge = 0, multiplicity = 1:

       Center              X                  Y                   Z               Mass
    ------------   -----------------  -----------------  -----------------  -----------------
         N           -1.609712682394    -0.769147926260    -0.000000905923    14.003074004430
         N           -1.259818682394     1.431131073740     0.000001094077    14.003074004430
         N            0.976287317606    -1.446336926260     0.000003094077    14.003074004430
         C           -0.672603682394     0.227915073740     0.000007094077    12.000000000000
         C            0.748210317606    -0.109730926260     0.000002094077    12.000000000000
         C            1.781015317606     0.854762073740     0.000002094077    12.000000000000
         C           -2.855212682394    -0.197873926260    -0.000008905923    12.000000000000
         C           -2.603960682394     1.165927073740    -0.000005905923    12.000000000000
         C            3.089892317606     0.363370073740    -0.000003905923    12.000000000000
         C            1.517328317606     2.334484073740     0.000003094077    12.000000000000
         C           -4.120266682394    -0.985780926260     0.000003094077    12.000000000000
         C            3.338515317606    -1.008242926260    -0.000002905923    12.000000000000
         C            2.247140317606    -1.873809926260    -0.000000905923    12.000000000000
         H           -1.354514682394    -1.752065926260     0.000006094077     1.007825032230
         H           -3.334724682394     1.965698073740    -0.000013905923     1.007825032230
         H            3.919462317606     1.068498073740    -0.000004905923     1.007825032230
         H            0.930004317606     2.630691073740    -0.871957905923     1.007825032230
         H            0.930009317606     2.630690073740     0.871968094077     1.007825032230
         H            2.466328317606     2.879063073740     0.000002094077     1.007825032230
         H           -4.201031682394    -1.624910926260    -0.885673905923     1.007825032230
         H           -4.200998682394    -1.624926926260     0.885671094077     1.007825032230
         H           -4.973160682394    -0.302998926260     0.000025094077     1.007825032230
         H            4.353256317606    -1.396580926260    -0.000007905923     1.007825032230
         H            2.360206217606    -2.755470526260     0.000000694077     1.007825032230

  Basis Set: AUG-CC-PVTZ
    Blend: AUG-CC-PVTZ
  Basis Set: (AUG-CC-PVTZ AUX)
    Blend: AUG-CC-PVTZ-JKFIT
	 Reference Energy          =    -548.5928126601714894 [Eh]
	 Singles Energy            =      -0.0000000000000000 [Eh]
	 Same-Spin Energy          =      -0.6113691071096756 [Eh]
	 Opposite-Spin Energy      =      -1.8778731451667494 [Eh]
	 Correlation Energy        =      -2.4892422522764250 [Eh]
	 Total Energy              =    -551.0820549124479157 [Eh]

	 ================> DF-SCS-MP2 Energies <==================
	-----------------------------------------------------------
	 SCS Same-Spin Scale       =       0.3333333333333333 [-]
	 SCS Opposite-Spin Scale   =       1.2000000000000000 [-]
	 SCS Same-Spin Energy      =      -0.2037897023698919 [Eh]
	 SCS Opposite-Spin Energy  =      -2.2534477742000991 [Eh]
	 SCS Correlation Energy    =      -2.4572374765699911 [Eh]
	 SCS Total Energy          =    -551.0500501367414472 [Eh]
	-----------------------------------------------------------

  Dipole Moment: [D]
     X:     0.2033      Y:    -1.7986      Z:     0.0000     Total:     1.8101

*** Psi4 exiting successfully. Buy a developer a beer!
