                               Psi4 1.4a3.dev225

  ==> Input File <==

--------------------------------------------------------------------------
#psi4
#
memory 32 gb

molecule  {
0 1
  N       -1.5932770    -0.7762670    -0.0000010
  N       -1.2433830     1.4240120     0.0000010
  N        0.9927230    -1.4534560     0.0000030
  C       -0.6561680     0.2207960     0.0000070
  C        0.7646460    -0.1168500     0.0000020
  C        1.7974510     0.8476430     0.0000020
  C       -2.6569873    -0.2883746    -0.0000078
  C       -2.5875250     1.1588080    -0.0000060
  C        3.1063280     0.3562510    -0.0000040
  C        1.5337640     2.3273650     0.0000030
  C       -4.1038310    -0.9929000     0.0000030
  C        3.3549510    -1.0153620    -0.0000030
  C        2.2635760    -1.8809290    -0.0000010
  H       -1.3380790    -1.7591850     0.0000060
  H       -3.3182890     1.9585790    -0.0000140
  H        3.9358980     1.0613790    -0.0000050
  H        0.9464400     2.6235720    -0.8719580
  H        0.9464450     2.6235710     0.8719680
  H        2.4827640     2.8719440     0.0000020
  H       -4.1845960    -1.6320300    -0.8856740
  H       -4.1845630    -1.6320460     0.8856710
  H       -4.9567250    -0.3101180     0.0000250
  H        4.3696920    -1.4037000    -0.0000080
  H        2.4020820    -2.9609650     0.0000010
units angstrom
no_reorient  #important for SAPT in psi4, default
symmetry c1  #important for SAPT in psi4, default
}

set PROPERTIES_ORIGIN ["COM"]
properties('MP2/aug-cc-pvtz', properties = ['dipole'])
--------------------------------------------------------------------------

    Molecular point group: c1
  Charge       = 0
  Multiplicity = 1
  Basis Set: AUG-CC-PVTZ
    Blend: AUG-CC-PVTZ
  Basis Set: (AUG-CC-PVTZ AUX)
    Blend: AUG-CC-PVTZ-JKFIT

    Orbital Energies [Eh]
    ---------------------

    Doubly Occupied:

       1A    -15.624221     2A    -15.565692     3A    -15.554666
       4A    -11.287190     5A    -11.277351     6A    -11.273594
       7A    -11.272060     8A    -11.251984     9A    -11.247840
      10A    -11.244843    11A    -11.235053    12A    -11.231543
      13A    -11.212127    14A     -1.398740    15A     -1.255623
      16A     -1.192165    17A     -1.093740    18A     -1.066937
      19A     -1.011857    20A     -0.954350    21A     -0.925143
      22A     -0.861064    23A     -0.840849    24A     -0.828137
      25A     -0.804042    26A     -0.727381    27A     -0.674604
      28A     -0.658074    29A     -0.648642    30A     -0.638778
      31A     -0.596656    32A     -0.576196    33A     -0.573823
      34A     -0.567215    35A     -0.558972    36A     -0.557453
      37A     -0.544681    38A     -0.521954    39A     -0.521550
      40A     -0.498840    41A     -0.427635    42A     -0.422716
      43A     -0.421136    44A     -0.381923    45A     -0.350076
      46A     -0.261055

  @DF-RHF Final Energy:  -548.56743887352059

   => Energetics <=

    Nuclear Repulsion Energy =            744.5946996282792725
    One-Electron Energy =               -2221.0439371069132903
    Two-Electron Energy =                 927.8817986051135449
    Total Energy =                       -548.5674388735205866
  Basis Set: (AUG-CC-PVTZ AUX)
    Blend: AUG-CC-PVTZ-RI
    Molecular point group: c1

    Geometry (in Angstrom), charge = 0, multiplicity = 1:

       Center              X                  Y                   Z               Mass
    ------------   -----------------  -----------------  -----------------  -----------------
         N           -1.622463552020    -0.762212400500    -0.000000991443    14.003074004430
         N           -1.272569552020     1.438066599500     0.000001008557    14.003074004430
         N            0.963536447980    -1.439401400500     0.000003008557    14.003074004430
         C           -0.685354552020     0.234850599500     0.000007008557    12.000000000000
         C            0.735459447980    -0.102795400500     0.000002008557    12.000000000000
         C            1.768264447980     0.861697599500     0.000002008557    12.000000000000
         C           -2.686173852020    -0.274320000500    -0.000007791443    12.000000000000
         C           -2.616711552020     1.172862599500    -0.000005991443    12.000000000000
         C            3.077141447980     0.370305599500    -0.000003991443    12.000000000000
         C            1.504577447980     2.341419599500     0.000003008557    12.000000000000
         C           -4.133017552020    -0.978845400500     0.000003008557    12.000000000000
         C            3.325764447980    -1.001307400500    -0.000002991443    12.000000000000
         C            2.234389447980    -1.866874400500    -0.000000991443    12.000000000000
         H           -1.367265552020    -1.745130400500     0.000006008557     1.007825032230
         H           -3.347475552020     1.972633599500    -0.000013991443     1.007825032230
         H            3.906711447980     1.075433599500    -0.000004991443     1.007825032230
         H            0.917253447980     2.637626599500    -0.871957991443     1.007825032230
         H            0.917258447980     2.637625599500     0.871968008557     1.007825032230
         H            2.453577447980     2.885998599500     0.000002008557     1.007825032230
         H           -4.213782552020    -1.617975400500    -0.885673991443     1.007825032230
         H           -4.213749552020    -1.617991400500     0.885671008557     1.007825032230
         H           -4.985911552020    -0.296063400500     0.000025008557     1.007825032230
         H            4.340505447980    -1.389645400500    -0.000007991443     1.007825032230
         H            2.372895447980    -2.946910400500     0.000001008557     1.007825032230

  Basis Set: AUG-CC-PVTZ
    Blend: AUG-CC-PVTZ
  Basis Set: (AUG-CC-PVTZ AUX)
    Blend: AUG-CC-PVTZ-JKFIT
	 Reference Energy          =    -548.5674388735205866 [Eh]
	 Singles Energy            =      -0.0000000000000000 [Eh]
	 Same-Spin Energy          =      -0.6125991578916616 [Eh]
	 Opposite-Spin Energy      =      -1.8782697491988085 [Eh]
	 Correlation Energy        =      -2.4908689070904702 [Eh]
	 Total Energy              =    -551.0583077806110168 [Eh]

	 ================> DF-SCS-MP2 Energies <==================
	-----------------------------------------------------------
	 SCS Same-Spin Scale       =       0.3333333333333333 [-]
	 SCS Opposite-Spin Scale   =       1.2000000000000000 [-]
	 SCS Same-Spin Energy      =      -0.2041997192972205 [Eh]
	 SCS Opposite-Spin Energy  =      -2.2539236990385700 [Eh]
	 SCS Correlation Energy    =      -2.4581234183357905 [Eh]
	 SCS Total Energy          =    -551.0255622918564313 [Eh]
	-----------------------------------------------------------

  Dipole Moment: [D]
     X:    -0.1291      Y:    -1.9255      Z:     0.0000     Total:     1.9298

*** Psi4 exiting successfully. Buy a developer a beer!
