                               Psi4 1.4a3.dev225

  ==> Input File <==

--------------------------------------------------------------------------
#psi4
#
memory 32 gb

molecule  {
0 1
  N       -1.5932770    -0.7762670    -0.0000010
  N       -1.2433830     1.4240120     0.0000010
  N        0.9927230    -1.4534560     0.0000030
  C       -0.6561680     0.2207960     0.0000070
  C        0.7646460    -0.1168500     0.0000020
  C        1.7974510     0.8476430     0.0000020
  C       -2.8387770    -0.2049930    -0.0000090
  C       -2.3913078     1.1975224    -0.0000050
  C        3.1063280     0.3562510    -0.0000040
  C        1.5337640     2.3273650     0.0000030
  C       -4.1038310    -0.9929000     0.0000030
  C        3.3549510    -1.0153620    -0.0000030
  C        2.2635760    -1.8809290    -0.0000010
  H       -1.3380790    -1.7591850     0.0000060
  H       -3.3182890     1.9585790    -0.0000140
  H        3.9358980     1.0613790    -0.0000050
  H        0.9464400     2.6235720    -0.8719580
  H        0.9464450     2.6235710     0.8719680
  H        2.4827640     2.8719440     0.0000020
  H       -4.1845960    -1.6320300    -0.8856740
  H       -4.1845630    -1.6320460     0.8856710
  H       -4.9567250    -0.3101180     0.0000250
  H        4.3696920    -1.4037000    -0.0000080
  H        2.4020820    -2.9609650     0.0000010
units angstrom
no_reorient  #important for SAPT in psi4, default
symmetry c1  #important for SAPT in psi4, default
}

set PROPERTIES_ORIGIN ["COM"]
properties('MP2/aug-cc-pvtz', properties = ['dipole'])
--------------------------------------------------------------------------

    Molecular point group: c1
  Charge       = 0
  Multiplicity = 1
  Basis Set: AUG-CC-PVTZ
    Blend: AUG-CC-PVTZ
  Basis Set: (AUG-CC-PVTZ AUX)
    Blend: AUG-CC-PVTZ-JKFIT

    Orbital Energies [Eh]
    ---------------------

    Doubly Occupied:

       1A    -15.624270     2A    -15.565789     3A    -15.540037
       4A    -11.287565     5A    -11.286669     6A    -11.274024
       7A    -11.267709     8A    -11.253045     9A    -11.246919
      10A    -11.244659    11A    -11.243389    12A    -11.236468
      13A    -11.215433    14A     -1.371904    15A     -1.256388
      16A     -1.215598    17A     -1.095379    18A     -1.069156
      19A     -1.023776    20A     -0.957094    21A     -0.925643
      22A     -0.862944    23A     -0.831617    24A     -0.828906
      25A     -0.769943    26A     -0.729146    27A     -0.675530
      28A     -0.659454    29A     -0.631925    30A     -0.630612
      31A     -0.589778    32A     -0.583049    33A     -0.580565
      34A     -0.568238    35A     -0.560756    36A     -0.558991
      37A     -0.549847    38A     -0.544631    39A     -0.522967
      40A     -0.499915    41A     -0.436096    42A     -0.422979
      43A     -0.417794    44A     -0.383642    45A     -0.352373
      46A     -0.255730

  @DF-RHF Final Energy:  -548.56437908405621

   => Energetics <=

    Nuclear Repulsion Energy =            744.7368536848860003
    One-Electron Energy =               -2221.3057831169094243
    Two-Electron Energy =                 928.0045503479672107
    Total Energy =                       -548.5643790840562133
  Basis Set: (AUG-CC-PVTZ AUX)
    Blend: AUG-CC-PVTZ-RI
    Molecular point group: c1

    Geometry (in Angstrom), charge = 0, multiplicity = 1:

       Center              X                  Y                   Z               Mass
    ------------   -----------------  -----------------  -----------------  -----------------
         N           -1.623463752502    -0.770676824561    -0.000000977578    14.003074004430
         N           -1.273569752502     1.429602175439     0.000001022422    14.003074004430
         N            0.962536247498    -1.447865824561     0.000003022422    14.003074004430
         C           -0.686354752502     0.226386175439     0.000007022422    12.000000000000
         C            0.734459247498    -0.111259824561     0.000002022422    12.000000000000
         C            1.767264247498     0.853233175439     0.000002022422    12.000000000000
         C           -2.868963752502    -0.199402824561    -0.000008977578    12.000000000000
         C           -2.421494552502     1.203112575439    -0.000004977578    12.000000000000
         C            3.076141247498     0.361841175439    -0.000003977578    12.000000000000
         C            1.503577247498     2.332955175439     0.000003022422    12.000000000000
         C           -4.134017752502    -0.987309824561     0.000003022422    12.000000000000
         C            3.324764247498    -1.009771824561    -0.000002977578    12.000000000000
         C            2.233389247498    -1.875338824561    -0.000000977578    12.000000000000
         H           -1.368265752502    -1.753594824561     0.000006022422     1.007825032230
         H           -3.348475752502     1.964169175439    -0.000013977578     1.007825032230
         H            3.905711247498     1.066969175439    -0.000004977578     1.007825032230
         H            0.916253247498     2.629162175439    -0.871957977578     1.007825032230
         H            0.916258247498     2.629161175439     0.871968022422     1.007825032230
         H            2.452577247498     2.877534175439     0.000002022422     1.007825032230
         H           -4.214782752502    -1.626439824561    -0.885673977578     1.007825032230
         H           -4.214749752502    -1.626455824561     0.885671022422     1.007825032230
         H           -4.986911752502    -0.304527824561     0.000025022422     1.007825032230
         H            4.339505247498    -1.398109824561    -0.000007977578     1.007825032230
         H            2.371895247498    -2.955374824561     0.000001022422     1.007825032230

  Basis Set: AUG-CC-PVTZ
    Blend: AUG-CC-PVTZ
  Basis Set: (AUG-CC-PVTZ AUX)
    Blend: AUG-CC-PVTZ-JKFIT
	 Reference Energy          =    -548.5643790840562133 [Eh]
	 Singles Energy            =      -0.0000000000000000 [Eh]
	 Same-Spin Energy          =      -0.6151067852811843 [Eh]
	 Opposite-Spin Energy      =      -1.8815123082747294 [Eh]
	 Correlation Energy        =      -2.4966190935559136 [Eh]
	 Total Energy              =    -551.0609981776120776 [Eh]

	 ================> DF-SCS-MP2 Energies <==================
	-----------------------------------------------------------
	 SCS Same-Spin Scale       =       0.3333333333333333 [-]
	 SCS Opposite-Spin Scale   =       1.2000000000000000 [-]
	 SCS Same-Spin Energy      =      -0.2050355950937281 [Eh]
	 SCS Opposite-Spin Energy  =      -2.2578147699296753 [Eh]
	 SCS Correlation Energy    =      -2.4628503650234035 [Eh]
	 SCS Total Energy          =    -551.0272294490796412 [Eh]
	-----------------------------------------------------------

  Dipole Moment: [D]
     X:    -0.0845      Y:    -1.6419      Z:     0.0000     Total:     1.6440

*** Psi4 exiting successfully. Buy a developer a beer!
