                               Psi4 1.4a3.dev225

  ==> Input File <==

--------------------------------------------------------------------------
#psi4
#
memory 32 gb

molecule  {
0 1
  N       -1.5932770    -0.7762670    -0.0000010
  N       -1.2433830     1.4240120     0.0000010
  N        0.9927230    -1.4534560     0.0000030
  C       -0.6561680     0.2207960     0.0000070
  C        0.7646460    -0.1168500     0.0000020
  C        1.8239739     0.8532995    -0.0449081
  C       -2.8387770    -0.2049930    -0.0000090
  C       -2.5875250     1.1588080    -0.0000060
  C        3.1063280     0.3562510    -0.0000040
  C        1.5337640     2.3273650     0.0000030
  C       -4.1038310    -0.9929000     0.0000030
  C        3.3549510    -1.0153620    -0.0000030
  C        2.2635760    -1.8809290    -0.0000010
  H       -1.3380790    -1.7591850     0.0000060
  H       -3.3182890     1.9585790    -0.0000140
  H        3.9358980     1.0613790    -0.0000050
  H        0.9464400     2.6235720    -0.8719580
  H        0.9464450     2.6235710     0.8719680
  H        2.4827640     2.8719440     0.0000020
  H       -4.1845960    -1.6320300    -0.8856740
  H       -4.1845630    -1.6320460     0.8856710
  H       -4.9567250    -0.3101180     0.0000250
  H        4.3696920    -1.4037000    -0.0000080
  H        2.4020820    -2.9609650     0.0000010
units angstrom
no_reorient  #important for SAPT in psi4, default
symmetry c1  #important for SAPT in psi4, default
}

set PROPERTIES_ORIGIN ["COM"]
properties('MP2/aug-cc-pvtz', properties = ['dipole'])
--------------------------------------------------------------------------

    Molecular point group: c1
  Charge       = 0
  Multiplicity = 1
  Basis Set: AUG-CC-PVTZ
    Blend: AUG-CC-PVTZ
  Basis Set: (AUG-CC-PVTZ AUX)
    Blend: AUG-CC-PVTZ-JKFIT

    Orbital Energies [Eh]
    ---------------------

    Doubly Occupied:

       1A    -15.608384     2A    -15.572527     3A    -15.545202
       4A    -11.294357     5A    -11.292701     6A    -11.276019
       7A    -11.266408     8A    -11.253368     9A    -11.252025
      10A    -11.242569    11A    -11.238333    12A    -11.235442
      13A    -11.215375    14A     -1.335903    15A     -1.257535
      16A     -1.161312    17A     -1.100904    18A     -1.071881
      19A     -1.028832    20A     -0.957082    21A     -0.930030
      22A     -0.865563    23A     -0.833350    24A     -0.805023
      25A     -0.780049    26A     -0.727274    27A     -0.676781
      28A     -0.659979    29A     -0.629246    30A     -0.618390
      31A     -0.593924    32A     -0.579509    33A     -0.575558
      34A     -0.564595    35A     -0.562145    36A     -0.553100
      37A     -0.546231    38A     -0.544532    39A     -0.522715
      40A     -0.511303    41A     -0.433636    42A     -0.422783
      43A     -0.395124    44A     -0.388160    45A     -0.354317
      46A     -0.279081

  @DF-RHF Final Energy:  -548.62528024888945

   => Energetics <=

    Nuclear Repulsion Energy =            741.1312902285930022
    One-Electron Energy =               -2214.3960250268887648
    Two-Electron Energy =                 924.6394545494061958
    Total Energy =                       -548.6252802488894531
  Basis Set: (AUG-CC-PVTZ AUX)
    Blend: AUG-CC-PVTZ-RI
    Molecular point group: c1

    Geometry (in Angstrom), charge = 0, multiplicity = 1:

       Center              X                  Y                   Z               Mass
    ------------   -----------------  -----------------  -----------------  -----------------
         N           -1.611699529956    -0.768385053462     0.003112528151    14.003074004430
         N           -1.261805529956     1.431893946538     0.003114528151    14.003074004430
         N            0.974300470044    -1.445574053462     0.003116528151    14.003074004430
         C           -0.674590529956     0.228677946538     0.003120528151    12.000000000000
         C            0.746223470044    -0.108968053462     0.003115528151    12.000000000000
         C            1.805551370044     0.861181446538    -0.041794571849    12.000000000000
         C           -2.857199529956    -0.197111053462     0.003104528151    12.000000000000
         C           -2.605947529956     1.166689946538     0.003107528151    12.000000000000
         C            3.087905470044     0.364132946538     0.003109528151    12.000000000000
         C            1.515341470044     2.335246946538     0.003116528151    12.000000000000
         C           -4.122253529956    -0.985018053462     0.003116528151    12.000000000000
         C            3.336528470044    -1.007480053462     0.003110528151    12.000000000000
         C            2.245153470044    -1.873047053462     0.003112528151    12.000000000000
         H           -1.356501529956    -1.751303053462     0.003119528151     1.007825032230
         H           -3.336711529956     1.966460946538     0.003099528151     1.007825032230
         H            3.917475470044     1.069260946538     0.003108528151     1.007825032230
         H            0.928017470044     2.631453946538    -0.868844471849     1.007825032230
         H            0.928022470044     2.631452946538     0.875081528151     1.007825032230
         H            2.464341470044     2.879825946538     0.003115528151     1.007825032230
         H           -4.203018529956    -1.624148053462    -0.882560471849     1.007825032230
         H           -4.202985529956    -1.624164053462     0.888784528151     1.007825032230
         H           -4.975147529956    -0.302236053462     0.003138528151     1.007825032230
         H            4.351269470044    -1.395818053462     0.003105528151     1.007825032230
         H            2.383659470044    -2.953083053462     0.003114528151     1.007825032230

  Basis Set: AUG-CC-PVTZ
    Blend: AUG-CC-PVTZ
  Basis Set: (AUG-CC-PVTZ AUX)
    Blend: AUG-CC-PVTZ-JKFIT
	 Reference Energy          =    -548.6252802488894531 [Eh]
	 Singles Energy            =      -0.0000000000000000 [Eh]
	 Same-Spin Energy          =      -0.6116646276543186 [Eh]
	 Opposite-Spin Energy      =      -1.8786052368903579 [Eh]
	 Correlation Energy        =      -2.4902698645446764 [Eh]
	 Total Energy              =    -551.1155501134340966 [Eh]

	 ================> DF-SCS-MP2 Energies <==================
	-----------------------------------------------------------
	 SCS Same-Spin Scale       =       0.3333333333333333 [-]
	 SCS Opposite-Spin Scale   =       1.2000000000000000 [-]
	 SCS Same-Spin Energy      =      -0.2038882092181062 [Eh]
	 SCS Opposite-Spin Energy  =      -2.2543262842684295 [Eh]
	 SCS Correlation Energy    =      -2.4582144934865355 [Eh]
	 SCS Total Energy          =    -551.0834947423759331 [Eh]
	-----------------------------------------------------------

  Dipole Moment: [D]
     X:     0.0843      Y:    -1.7506      Z:     0.0050     Total:     1.7526

*** Psi4 exiting successfully. Buy a developer a beer!
