                               Psi4 1.4a3.dev225

  ==> Input File <==

--------------------------------------------------------------------------
#psi4
#
memory 32 gb

molecule  {
0 1
  N       -1.5932770    -0.7762670    -0.0000010
  N       -1.2433830     1.4240120     0.0000010
  N        0.9927230    -1.4534560     0.0000030
  C       -0.6435188     0.2701760     0.0000071
  C        0.7646460    -0.1168500     0.0000020
  C        1.7974510     0.8476430     0.0000020
  C       -2.8387770    -0.2049930    -0.0000090
  C       -2.5875250     1.1588080    -0.0000060
  C        3.1063280     0.3562510    -0.0000040
  C        1.5337640     2.3273650     0.0000030
  C       -4.1038310    -0.9929000     0.0000030
  C        3.3549510    -1.0153620    -0.0000030
  C        2.2635760    -1.8809290    -0.0000010
  H       -1.3380790    -1.7591850     0.0000060
  H       -3.3182890     1.9585790    -0.0000140
  H        3.9358980     1.0613790    -0.0000050
  H        0.9464400     2.6235720    -0.8719580
  H        0.9464450     2.6235710     0.8719680
  H        2.4827640     2.8719440     0.0000020
  H       -4.1845960    -1.6320300    -0.8856740
  H       -4.1845630    -1.6320460     0.8856710
  H       -4.9567250    -0.3101180     0.0000250
  H        4.3696920    -1.4037000    -0.0000080
  H        2.4020820    -2.9609650     0.0000010
units angstrom
no_reorient  #important for SAPT in psi4, default
symmetry c1  #important for SAPT in psi4, default
}

set PROPERTIES_ORIGIN ["COM"]
properties('MP2/aug-cc-pvtz', properties = ['dipole'])
--------------------------------------------------------------------------

    Molecular point group: c1
  Charge       = 0
  Multiplicity = 1
  Basis Set: AUG-CC-PVTZ
    Blend: AUG-CC-PVTZ
  Basis Set: (AUG-CC-PVTZ AUX)
    Blend: AUG-CC-PVTZ-JKFIT

    Orbital Energies [Eh]
    ---------------------

    Doubly Occupied:

       1A    -15.601317     2A    -15.573204     3A    -15.544973
       4A    -11.293735     5A    -11.289566     6A    -11.277476
       7A    -11.267966     8A    -11.256082     9A    -11.252045
      10A    -11.243385    11A    -11.238046    12A    -11.232986
      13A    -11.216498    14A     -1.330158    15A     -1.257844
      16A     -1.164888    17A     -1.098790    18A     -1.071977
      19A     -1.027039    20A     -0.957580    21A     -0.931857
      22A     -0.867346    23A     -0.835176    24A     -0.801658
      25A     -0.774128    26A     -0.722620    27A     -0.676703
      28A     -0.661308    29A     -0.632599    30A     -0.615402
      31A     -0.594358    32A     -0.580482    33A     -0.574883
      34A     -0.567049    35A     -0.558763    36A     -0.551616
      37A     -0.549148    38A     -0.544363    39A     -0.522960
      40A     -0.509687    41A     -0.434262    42A     -0.422335
      43A     -0.398364    44A     -0.385720    45A     -0.354777
      46A     -0.280305

  @DF-RHF Final Energy:  -548.62530690464780

   => Energetics <=

    Nuclear Repulsion Energy =            741.3160389711156313
    One-Electron Energy =               -2214.7958422246465489
    Two-Electron Energy =                 924.8544963488831172
    Total Energy =                       -548.6253069046478004
  Basis Set: (AUG-CC-PVTZ AUX)
    Blend: AUG-CC-PVTZ-RI
    Molecular point group: c1

    Geometry (in Angstrom), charge = 0, multiplicity = 1:

       Center              X                  Y                   Z               Mass
    ------------   -----------------  -----------------  -----------------  -----------------
         N           -1.610737722197    -0.771416227664    -0.000000915184    14.003074004430
         N           -1.260843722197     1.428862772336     0.000001084816    14.003074004430
         N            0.975262277803    -1.448605227664     0.000003084816    14.003074004430
         C           -0.660979522197     0.275026772336     0.000007184816    12.000000000000
         C            0.747185277803    -0.111999227664     0.000002084816    12.000000000000
         C            1.779990277803     0.852493772336     0.000002084816    12.000000000000
         C           -2.856237722197    -0.200142227664    -0.000008915184    12.000000000000
         C           -2.604985722197     1.163658772336    -0.000005915184    12.000000000000
         C            3.088867277803     0.361101772336    -0.000003915184    12.000000000000
         C            1.516303277803     2.332215772336     0.000003084816    12.000000000000
         C           -4.121291722197    -0.988049227664     0.000003084816    12.000000000000
         C            3.337490277803    -1.010511227664    -0.000002915184    12.000000000000
         C            2.246115277803    -1.876078227664    -0.000000915184    12.000000000000
         H           -1.355539722197    -1.754334227664     0.000006084816     1.007825032230
         H           -3.335749722197     1.963429772336    -0.000013915184     1.007825032230
         H            3.918437277803     1.066229772336    -0.000004915184     1.007825032230
         H            0.928979277803     2.628422772336    -0.871957915184     1.007825032230
         H            0.928984277803     2.628421772336     0.871968084816     1.007825032230
         H            2.465303277803     2.876794772336     0.000002084816     1.007825032230
         H           -4.202056722197    -1.627179227664    -0.885673915184     1.007825032230
         H           -4.202023722197    -1.627195227664     0.885671084816     1.007825032230
         H           -4.974185722197    -0.305267227664     0.000025084816     1.007825032230
         H            4.352231277803    -1.398849227664    -0.000007915184     1.007825032230
         H            2.384621277803    -2.956114227664     0.000001084816     1.007825032230

  Basis Set: AUG-CC-PVTZ
    Blend: AUG-CC-PVTZ
  Basis Set: (AUG-CC-PVTZ AUX)
    Blend: AUG-CC-PVTZ-JKFIT
	 Reference Energy          =    -548.6253069046478004 [Eh]
	 Singles Energy            =      -0.0000000000000000 [Eh]
	 Same-Spin Energy          =      -0.6110932385168505 [Eh]
	 Opposite-Spin Energy      =      -1.8779533952262821 [Eh]
	 Correlation Energy        =      -2.4890466337431327 [Eh]
	 Total Energy              =    -551.1143535383909011 [Eh]

	 ================> DF-SCS-MP2 Energies <==================
	-----------------------------------------------------------
	 SCS Same-Spin Scale       =       0.3333333333333333 [-]
	 SCS Opposite-Spin Scale   =       1.2000000000000000 [-]
	 SCS Same-Spin Energy      =      -0.2036977461722835 [Eh]
	 SCS Opposite-Spin Energy  =      -2.2535440742715385 [Eh]
	 SCS Correlation Energy    =      -2.4572418204438220 [Eh]
	 SCS Total Energy          =    -551.0825487250916694 [Eh]
	-----------------------------------------------------------

  Dipole Moment: [D]
     X:     0.2509      Y:    -1.6569      Z:     0.0000     Total:     1.6758

*** Psi4 exiting successfully. Buy a developer a beer!
