                               Psi4 1.3.2 release

  ==> Input File <==

--------------------------------------------------------------------------
#psi4
#
memory 32 gb

molecule  {
0 1
  S        0.7492819     0.7534532    -0.0056927
  O       -0.7185818    -1.3845682     0.0081531
  C       -2.0509520     0.6590830     0.0068010
  C        1.9223760    -0.5510590    -0.0015950
  C       -0.7788880    -0.1628700     0.0040570
  C       -3.2947410    -0.2161080     0.0056640
  C        3.3341240     0.0170930    -0.0107850
  H       -2.0279500     1.3158130     0.8843350
  H       -2.0299060     1.3210850    -0.8667760
  H        1.7458030    -1.1645560     0.8835850
  H        1.7388000    -1.1758340    -0.8774310
  H       -3.3141610    -0.8622160     0.8846490
  H       -3.3163930    -0.8568630    -0.8772710
  H       -4.1940350     0.4043620     0.0085730
  H        3.5120120     0.6248690    -0.9008780
  H        3.5189980     0.6365110     0.8698160
  H        4.0585630    -0.8014520    -0.0081370
units angstrom
no_reorient  #important for SAPT in psi4, default
symmetry c1  #important for SAPT in psi4, default
}

set PROPERTIES_ORIGIN ["COM"]
properties('MP2/aug-cc-pvtz', properties = ['dipole'])
--------------------------------------------------------------------------

    Molecular point group: c1
  Charge       = 0
  Multiplicity = 1
  Basis Set: AUG-CC-PVTZ
    Blend: AUG-CC-PVTZ
  Basis Set: (AUG-CC-PVTZ AUX)
    Blend: AUG-CC-PVTZ-JKFIT

    Orbital Energies [Eh]
    ---------------------

    Doubly Occupied:

       1A    -91.960113     2A    -20.553161     3A    -11.360349
       4A    -11.254681     5A    -11.251493     6A    -11.229681
       7A    -11.223637     8A     -8.963183     9A     -6.644437
      10A     -6.643416    11A     -6.642645    12A     -1.391073
      13A     -1.094701    14A     -1.064950    15A     -0.975191
      16A     -0.894893    17A     -0.820736    18A     -0.728060
      19A     -0.663040    20A     -0.644454    21A     -0.633639
      22A     -0.630026    23A     -0.559681    24A     -0.554246
      25A     -0.542561    26A     -0.525318    27A     -0.512836
      28A     -0.512412    29A     -0.494626    30A     -0.465279
      31A     -0.403235    32A     -0.361808

  @DF-RHF Final Energy:  -667.67860666546460

   => Energetics <=

    Nuclear Repulsion Energy =            371.2727857549556916
    One-Electron Energy =               -1653.5036627377162404
    Two-Electron Energy =                 614.5522703172958927
    Total Energy =                       -667.6786066654645992
  Basis Set: (AUG-CC-PVTZ AUX)
    Blend: AUG-CC-PVTZ-RI
    Molecular point group: c1

    Geometry (in Angstrom), charge = 0, multiplicity = 1:

       Center              X                  Y                   Z               Mass
    ------------   -----------------  -----------------  -----------------  -----------------
         S            0.734585953425     0.767562811100    -0.005680614527    31.972071174400
         O           -0.733277746575    -1.370458588900     0.008165185473    15.994914619570
         C           -2.065647946575     0.673192611100     0.006813085473    12.000000000000
         C            1.907680053425    -0.536949388900    -0.001582914527    12.000000000000
         C           -0.793583946575    -0.148760388900     0.004069085473    12.000000000000
         C           -3.309436946575    -0.201998388900     0.005676085473    12.000000000000
         C            3.319428053425     0.031202611100    -0.010772914527    12.000000000000
         H           -2.042645946575     1.329922611100     0.884347085473     1.007825032230
         H           -2.044601946575     1.335194611100    -0.866763914527     1.007825032230
         H            1.731107053425    -1.150446388900     0.883597085473     1.007825032230
         H            1.724104053425    -1.161724388900    -0.877418914527     1.007825032230
         H           -3.328856946575    -0.848106388900     0.884661085473     1.007825032230
         H           -3.331088946575    -0.842753388900    -0.877258914527     1.007825032230
         H           -4.208730946575     0.418471611100     0.008585085473     1.007825032230
         H            3.497316053425     0.638978611100    -0.900865914527     1.007825032230
         H            3.504302053425     0.650620611100     0.869828085473     1.007825032230
         H            4.043867053425    -0.787342388900    -0.008124914527     1.007825032230

  Basis Set: AUG-CC-PVTZ
    Blend: AUG-CC-PVTZ
  Basis Set: (AUG-CC-PVTZ AUX)
    Blend: AUG-CC-PVTZ-JKFIT
	 Reference Energy          =    -667.6786066654645992 [Eh]
	 Singles Energy            =      -0.0000000000000000 [Eh]
	 Same-Spin Energy          =      -0.3340139258272078 [Eh]
	 Opposite-Spin Energy      =      -1.1073603303976225 [Eh]
	 Correlation Energy        =      -1.4413742562248304 [Eh]
	 Total Energy              =    -669.1199809216893755 [Eh]

	 ================> DF-SCS-MP2 Energies <==================
	-----------------------------------------------------------
	 SCS Same-Spin Scale       =       0.3333333333333333 [-]
	 SCS Opposite-Spin Scale   =       1.2000000000000000 [-]
	 SCS Same-Spin Energy      =      -0.1113379752757359 [Eh]
	 SCS Opposite-Spin Energy  =      -1.3288323964771469 [Eh]
	 SCS Correlation Energy    =      -1.4401703717528829 [Eh]
	 SCS Total Energy          =    -669.1187770372174555 [Eh]
	-----------------------------------------------------------

  Dipole Moment: [D]
     X:     0.1687      Y:     1.0463      Z:    -0.0001     Total:     1.0598

*** Psi4 exiting successfully. Buy a developer a beer!
