                               Psi4 1.3.2 release

  ==> Input File <==

--------------------------------------------------------------------------
#psi4
#
memory 32 gb

molecule  {
0 1
  S        0.7226056     0.8116339    -0.0192673
  O       -0.7612550    -1.3859280     0.0083390
  C       -2.0509520     0.6590830     0.0068010
  C        1.9223760    -0.5510590    -0.0015950
  C       -0.7788880    -0.1628700     0.0040570
  C       -3.2947410    -0.2161080     0.0056640
  C        3.3341240     0.0170930    -0.0107850
  H       -2.0279500     1.3158130     0.8843350
  H       -2.0299060     1.3210850    -0.8667760
  H        1.7529848    -1.1702586     0.8810140
  H        1.7388000    -1.1758340    -0.8774310
  H       -3.3141610    -0.8622160     0.8846490
  H       -3.3163930    -0.8568630    -0.8772710
  H       -4.1940350     0.4043620     0.0085730
  H        3.5120120     0.6248690    -0.9008780
  H        3.5189980     0.6365110     0.8698160
  H        4.0585630    -0.8014520    -0.0081370
units angstrom
no_reorient  #important for SAPT in psi4, default
symmetry c1  #important for SAPT in psi4, default
}

set PROPERTIES_ORIGIN ["COM"]
properties('MP2/aug-cc-pvtz', properties = ['dipole'])
--------------------------------------------------------------------------

    Molecular point group: c1
  Charge       = 0
  Multiplicity = 1
  Basis Set: AUG-CC-PVTZ
    Blend: AUG-CC-PVTZ
  Basis Set: (AUG-CC-PVTZ AUX)
    Blend: AUG-CC-PVTZ-JKFIT

    Orbital Energies [Eh]
    ---------------------

    Doubly Occupied:

       1A    -91.965754     2A    -20.554636     3A    -11.360700
       4A    -11.261012     5A    -11.248062     6A    -11.229682
       7A    -11.221318     8A     -8.967379     9A     -6.648562
      10A     -6.647450    11A     -6.646792    12A     -1.390547
      13A     -1.086889    14A     -1.061284    15A     -0.975806
      16A     -0.890846    17A     -0.821299    18A     -0.728110
      19A     -0.658463    20A     -0.642223    21A     -0.632814
      22A     -0.628267    23A     -0.561624    24A     -0.551137
      25A     -0.540680    26A     -0.523486    27A     -0.511926
      28A     -0.511108    29A     -0.493834    30A     -0.460358
      31A     -0.405961    32A     -0.366960

  @DF-RHF Final Energy:  -667.68047401130946

   => Energetics <=

    Nuclear Repulsion Energy =            369.3105604687495997
    One-Electron Energy =               -1649.5921315924224473
    Two-Electron Energy =                 612.6010971123633908
    Total Energy =                       -667.6804740113094567
  Basis Set: (AUG-CC-PVTZ AUX)
    Blend: AUG-CC-PVTZ-RI
    Molecular point group: c1

    Geometry (in Angstrom), charge = 0, multiplicity = 1:

       Center              X                  Y                   Z               Mass
    ------------   -----------------  -----------------  -----------------  -----------------
         S            0.720855646040     0.810218442628    -0.015581828330    31.972071174400
         O           -0.763004953960    -1.387343457372     0.012024471670    15.994914619570
         C           -2.052701953960     0.657667542628     0.010486471670    12.000000000000
         C            1.920626046040    -0.552474457372     0.002090471670    12.000000000000
         C           -0.780637953960    -0.164285457372     0.007742471670    12.000000000000
         C           -3.296490953960    -0.217523457372     0.009349471670    12.000000000000
         C            3.332374046040     0.015677542628    -0.007099528330    12.000000000000
         H           -2.029699953960     1.314397542628     0.888020471670     1.007825032230
         H           -2.031655953960     1.319669542628    -0.863090528330     1.007825032230
         H            1.751234846040    -1.171674057372     0.884699471670     1.007825032230
         H            1.737050046040    -1.177249457372    -0.873745528330     1.007825032230
         H           -3.315910953960    -0.863631457372     0.888334471670     1.007825032230
         H           -3.318142953960    -0.858278457372    -0.873585528330     1.007825032230
         H           -4.195784953960     0.402946542628     0.012258471670     1.007825032230
         H            3.510262046040     0.623453542628    -0.897192528330     1.007825032230
         H            3.517248046040     0.635095542628     0.873501471670     1.007825032230
         H            4.056813046040    -0.802867457372    -0.004451528330     1.007825032230

  Basis Set: AUG-CC-PVTZ
    Blend: AUG-CC-PVTZ
  Basis Set: (AUG-CC-PVTZ AUX)
    Blend: AUG-CC-PVTZ-JKFIT
	 Reference Energy          =    -667.6804740113094567 [Eh]
	 Singles Energy            =      -0.0000000000000000 [Eh]
	 Same-Spin Energy          =      -0.3335980344168334 [Eh]
	 Opposite-Spin Energy      =      -1.1077437405560380 [Eh]
	 Correlation Energy        =      -1.4413417749728714 [Eh]
	 Total Energy              =    -669.1218157862823546 [Eh]

	 ================> DF-SCS-MP2 Energies <==================
	-----------------------------------------------------------
	 SCS Same-Spin Scale       =       0.3333333333333333 [-]
	 SCS Opposite-Spin Scale   =       1.2000000000000000 [-]
	 SCS Same-Spin Energy      =      -0.1111993448056111 [Eh]
	 SCS Opposite-Spin Energy  =      -1.3292924886672455 [Eh]
	 SCS Correlation Energy    =      -1.4404918334728567 [Eh]
	 SCS Total Energy          =    -669.1209658447822903 [Eh]
	-----------------------------------------------------------

  Dipole Moment: [D]
     X:     0.3094      Y:     1.0472      Z:     0.0050     Total:     1.0920

*** Psi4 exiting successfully. Buy a developer a beer!
