                               Psi4 1.4a3.dev225

  ==> Input File <==

--------------------------------------------------------------------------
#psi4
#
memory 32 gb

molecule  {
0 1
  S       -0.7336830    -0.7988290    -0.0000010
  O        0.7842810     1.3701820    -0.0000010
  C        2.0392260    -0.6993310     0.0000000
  C       -1.9177210     0.5806550    -0.0000020
  C        0.7643183     0.1574698    -0.0000010
  C        3.3000750     0.1543340     0.0000020
  C       -3.3406260     0.0364320     0.0000030
  H        2.0053990    -1.3579180     0.8761960
  H        2.0054010    -1.3579160    -0.8761980
  H       -1.7269280     1.1964810     0.8811220
  H       -1.7269330     1.1964770    -0.8811310
  H        3.3326310     0.7974220     0.8814170
  H        3.3326220     0.7974380    -0.8814010
  H        4.1880090    -0.4829760    -0.0000080
  H       -3.5331250    -0.5739300    -0.8857830
  H       -3.5331200    -0.5739250     0.8857940
  H       -4.0504940     0.8682350     0.0000030
units angstrom
no_reorient  #important for SAPT in psi4, default
symmetry c1  #important for SAPT in psi4, default
}

set PROPERTIES_ORIGIN ["COM"]
properties('MP2/aug-cc-pvtz', properties = ['dipole'])
--------------------------------------------------------------------------

    Molecular point group: c1
  Charge       = 0
  Multiplicity = 1
  Basis Set: AUG-CC-PVTZ
    Blend: AUG-CC-PVTZ
  Basis Set: (AUG-CC-PVTZ AUX)
    Blend: AUG-CC-PVTZ-JKFIT

    Orbital Energies [Eh]
    ---------------------

    Doubly Occupied:

       1A    -91.965960     2A    -20.554599     3A    -11.358887
       4A    -11.262091     5A    -11.247514     6A    -11.230594
       7A    -11.220611     8A     -8.967841     9A     -6.649039
      10A     -6.647894    11A     -6.647237    12A     -1.396951
      13A     -1.086960    14A     -1.057110    15A     -0.977436
      16A     -0.887933    17A     -0.821752    18A     -0.727177
      19A     -0.658408    20A     -0.641101    21A     -0.634140
      22A     -0.627753    23A     -0.561511    24A     -0.550911
      25A     -0.543082    26A     -0.523193    27A     -0.512437
      28A     -0.511594    29A     -0.494940    30A     -0.459364
      31A     -0.404690    32A     -0.367998

  @DF-RHF Final Energy:  -667.68129354109340

   => Energetics <=

    Nuclear Repulsion Energy =            369.3063184215147885
    One-Electron Energy =               -1649.5778086763737065
    Two-Electron Energy =                 612.5901967137655220
    Total Energy =                       -667.6812935410933960
  Basis Set: (AUG-CC-PVTZ AUX)
    Blend: AUG-CC-PVTZ-RI
    Molecular point group: c1

    Geometry (in Angstrom), charge = 0, multiplicity = 1:

       Center              X                  Y                   Z               Mass
    ------------   -----------------  -----------------  -----------------  -----------------
         S           -0.729669017491    -0.795811665501    -0.000000890882    31.972071174400
         O            0.788294982509     1.373199334499    -0.000000890882    15.994914619570
         C            2.043239982509    -0.696313665501     0.000000109118    12.000000000000
         C           -1.913707017491     0.583672334499    -0.000001890882    12.000000000000
         C            0.768332282509     0.160487134499    -0.000000890882    12.000000000000
         C            3.304088982509     0.157351334499     0.000002109118    12.000000000000
         C           -3.336612017491     0.039449334499     0.000003109118    12.000000000000
         H            2.009412982509    -1.354900665501     0.876196109118     1.007825032230
         H            2.009414982509    -1.354898665501    -0.876197890882     1.007825032230
         H           -1.722914017491     1.199498334499     0.881122109118     1.007825032230
         H           -1.722919017491     1.199494334499    -0.881130890882     1.007825032230
         H            3.336644982509     0.800439334499     0.881417109118     1.007825032230
         H            3.336635982509     0.800455334499    -0.881400890882     1.007825032230
         H            4.192022982509    -0.479958665501    -0.000007890882     1.007825032230
         H           -3.529111017491    -0.570912665501    -0.885782890882     1.007825032230
         H           -3.529106017491    -0.570907665501     0.885794109118     1.007825032230
         H           -4.046480017491     0.871252334499     0.000003109118     1.007825032230

  Basis Set: AUG-CC-PVTZ
    Blend: AUG-CC-PVTZ
  Basis Set: (AUG-CC-PVTZ AUX)
    Blend: AUG-CC-PVTZ-JKFIT
	 Reference Energy          =    -667.6812935410933960 [Eh]
	 Singles Energy            =      -0.0000000000000000 [Eh]
	 Same-Spin Energy          =      -0.3332408438929204 [Eh]
	 Opposite-Spin Energy      =      -1.1071190070832384 [Eh]
	 Correlation Energy        =      -1.4403598509761588 [Eh]
	 Total Energy              =    -669.1216533920695611 [Eh]

	 ================> DF-SCS-MP2 Energies <==================
	-----------------------------------------------------------
	 SCS Same-Spin Scale       =       0.3333333333333333 [-]
	 SCS Opposite-Spin Scale   =       1.2000000000000000 [-]
	 SCS Same-Spin Energy      =      -0.1110802812976401 [Eh]
	 SCS Opposite-Spin Energy  =      -1.3285428084998860 [Eh]
	 SCS Correlation Energy    =      -1.4396230897975262 [Eh]
	 SCS Total Energy          =    -669.1209166308909744 [Eh]
	-----------------------------------------------------------

  Dipole Moment: [D]
     X:    -0.4477      Y:    -1.0211      Z:     0.0000     Total:     1.1149

*** Psi4 exiting successfully. Buy a developer a beer!
