                               Psi4 1.3.2 release

  ==> Input File <==

--------------------------------------------------------------------------
#psi4
#
memory 32 gb

molecule  {
0 1
  S        0.7163710     0.8062280    -0.0057410
  O       -0.7612550    -1.3859280     0.0083390
  C       -2.0509520     0.6590830     0.0068010
  C        1.9223760    -0.5510590    -0.0015950
  C       -0.7509770    -0.1179750     0.0041400
  C       -3.3245270    -0.1721674     0.0057844
  C        3.3341240     0.0170930    -0.0107850
  H       -2.0279500     1.3158130     0.8843350
  H       -2.0299060     1.3210850    -0.8667760
  H        1.7458030    -1.1645560     0.8835850
  H        1.7388000    -1.1758340    -0.8774310
  H       -3.3141610    -0.8622160     0.8846490
  H       -3.3163930    -0.8568630    -0.8772710
  H       -4.1940350     0.4043620     0.0085730
  H        3.5120120     0.6248690    -0.9008780
  H        3.5189980     0.6365110     0.8698160
  H        4.0585630    -0.8014520    -0.0081370
units angstrom
no_reorient  #important for SAPT in psi4, default
symmetry c1  #important for SAPT in psi4, default
}

set PROPERTIES_ORIGIN ["COM"]
properties('MP2/aug-cc-pvtz', properties = ['dipole'])
--------------------------------------------------------------------------

    Molecular point group: c1
  Charge       = 0
  Multiplicity = 1
  Basis Set: AUG-CC-PVTZ
    Blend: AUG-CC-PVTZ
  Basis Set: (AUG-CC-PVTZ AUX)
    Blend: AUG-CC-PVTZ-JKFIT

    Orbital Energies [Eh]
    ---------------------

    Doubly Occupied:

       1A    -91.973096     2A    -20.545291     3A    -11.361242
       4A    -11.264889     5A    -11.247437     6A    -11.232970
       7A    -11.220240     8A     -8.975477     9A     -6.656761
      10A     -6.655535    11A     -6.654923    12A     -1.357219
      13A     -1.094273    14A     -1.059934    15A     -0.986644
      16A     -0.893125    17A     -0.826954    18A     -0.723148
      19A     -0.656151    20A     -0.640808    21A     -0.627060
      22A     -0.621552    23A     -0.566885    24A     -0.558476
      25A     -0.531716    26A     -0.524325    27A     -0.506374
      28A     -0.505442    29A     -0.480028    30A     -0.463386
      31A     -0.412829    32A     -0.371574

  @DF-RHF Final Energy:  -667.66931323984136

   => Energetics <=

    Nuclear Repulsion Energy =            369.3252742083550402
    One-Electron Energy =               -1649.5976511712005959
    Two-Electron Energy =                 612.6030637230041975
    Total Energy =                       -667.6693132398413582
  Basis Set: (AUG-CC-PVTZ AUX)
    Blend: AUG-CC-PVTZ-RI
    Molecular point group: c1

    Geometry (in Angstrom), charge = 0, multiplicity = 1:

       Center              X                  Y                   Z               Mass
    ------------   -----------------  -----------------  -----------------  -----------------
         S            0.716561582399     0.797197355154    -0.005761698599    31.972071174400
         O           -0.761064417601    -1.394958644846     0.008318301401    15.994914619570
         C           -2.050761417601     0.650052355154     0.006780301401    12.000000000000
         C            1.922566582399    -0.560089644846    -0.001615698599    12.000000000000
         C           -0.750786417601    -0.127005644846     0.004119301401    12.000000000000
         C           -3.324336417601    -0.181198044846     0.005763701401    12.000000000000
         C            3.334314582399     0.008062355154    -0.010805698599    12.000000000000
         H           -2.027759417601     1.306782355154     0.884314301401     1.007825032230
         H           -2.029715417601     1.312054355154    -0.866796698599     1.007825032230
         H            1.745993582399    -1.173586644846     0.883564301401     1.007825032230
         H            1.738990582399    -1.184864644846    -0.877451698599     1.007825032230
         H           -3.313970417601    -0.871246644846     0.884628301401     1.007825032230
         H           -3.316202417601    -0.865893644846    -0.877291698599     1.007825032230
         H           -4.193844417601     0.395331355154     0.008552301401     1.007825032230
         H            3.512202582399     0.615838355154    -0.900898698599     1.007825032230
         H            3.519188582399     0.627480355154     0.869795301401     1.007825032230
         H            4.058753582399    -0.810482644846    -0.008157698599     1.007825032230

  Basis Set: AUG-CC-PVTZ
    Blend: AUG-CC-PVTZ
  Basis Set: (AUG-CC-PVTZ AUX)
    Blend: AUG-CC-PVTZ-JKFIT
	 Reference Energy          =    -667.6693132398413582 [Eh]
	 Singles Energy            =      -0.0000000000000000 [Eh]
	 Same-Spin Energy          =      -0.3349626967387772 [Eh]
	 Opposite-Spin Energy      =      -1.1101888043961998 [Eh]
	 Correlation Energy        =      -1.4451515011349771 [Eh]
	 Total Energy              =    -669.1144647409763593 [Eh]

	 ================> DF-SCS-MP2 Energies <==================
	-----------------------------------------------------------
	 SCS Same-Spin Scale       =       0.3333333333333333 [-]
	 SCS Opposite-Spin Scale   =       1.2000000000000000 [-]
	 SCS Same-Spin Energy      =      -0.1116542322462591 [Eh]
	 SCS Opposite-Spin Energy  =      -1.3322265652754397 [Eh]
	 SCS Correlation Energy    =      -1.4438807975216987 [Eh]
	 SCS Total Energy          =    -669.1131940373630869 [Eh]
	-----------------------------------------------------------

  Dipole Moment: [D]
     X:     0.7338      Y:     1.3239      Z:    -0.0032     Total:     1.5137

*** Psi4 exiting successfully. Buy a developer a beer!
