                               Psi4 1.4a3.dev225

  ==> Input File <==

--------------------------------------------------------------------------
#psi4
#
memory 32 gb

molecule  {
0 1
  S       -0.7336830    -0.7988290    -0.0000010
  O        0.7842810     1.3701820    -0.0000010
  C        2.0392260    -0.6993310     0.0000000
  C       -1.9177210     0.5806550    -0.0000020
  C        0.7975177     0.1351582    -0.0000010
  C        3.3000750     0.1543340     0.0000020
  C       -3.3406260     0.0364320     0.0000030
  H        2.0053990    -1.3579180     0.8761960
  H        2.0054010    -1.3579160    -0.8761980
  H       -1.7269280     1.1964810     0.8811220
  H       -1.7269330     1.1964770    -0.8811310
  H        3.3326310     0.7974220     0.8814170
  H        3.3326220     0.7974380    -0.8814010
  H        4.1880090    -0.4829760    -0.0000080
  H       -3.5331250    -0.5739300    -0.8857830
  H       -3.5331200    -0.5739250     0.8857940
  H       -4.0504940     0.8682350     0.0000030
units angstrom
no_reorient  #important for SAPT in psi4, default
symmetry c1  #important for SAPT in psi4, default
}

set PROPERTIES_ORIGIN ["COM"]
properties('MP2/aug-cc-pvtz', properties = ['dipole'])
--------------------------------------------------------------------------

    Molecular point group: c1
  Charge       = 0
  Multiplicity = 1
  Basis Set: AUG-CC-PVTZ
    Blend: AUG-CC-PVTZ
  Basis Set: (AUG-CC-PVTZ AUX)
    Blend: AUG-CC-PVTZ-JKFIT

    Orbital Energies [Eh]
    ---------------------

    Doubly Occupied:

       1A    -91.965325     2A    -20.553629     3A    -11.362055
       4A    -11.261415     5A    -11.249044     6A    -11.230193
       7A    -11.222551     8A     -8.966833     9A     -6.648007
      10A     -6.646938    11A     -6.646279    12A     -1.382593
      13A     -1.086808    14A     -1.063850    15A     -0.975250
      16A     -0.893493    17A     -0.821401    18A     -0.728154
      19A     -0.657483    20A     -0.643254    21A     -0.630388
      22A     -0.628637    23A     -0.561801    24A     -0.550907
      25A     -0.538548    26A     -0.523922    27A     -0.511801
      28A     -0.511086    29A     -0.492242    30A     -0.459848
      31A     -0.406832    32A     -0.365929

  @DF-RHF Final Energy:  -667.67885633736853

   => Energetics <=

    Nuclear Repulsion Energy =            369.0073488953579499
    One-Electron Energy =               -1648.9994192829044550
    Two-Electron Energy =                 612.3132140501778622
    Total Energy =                       -667.6788563373685292
  Basis Set: (AUG-CC-PVTZ AUX)
    Blend: AUG-CC-PVTZ-RI
    Molecular point group: c1

    Geometry (in Angstrom), charge = 0, multiplicity = 1:

       Center              X                  Y                   Z               Mass
    ------------   -----------------  -----------------  -----------------  -----------------
         S           -0.733043933863    -0.793543558724    -0.000000890882    31.972071174400
         O            0.784920066137     1.375467441276    -0.000000890882    15.994914619570
         C            2.039865066137    -0.694045558724     0.000000109118    12.000000000000
         C           -1.917081933863     0.585940441276    -0.000001890882    12.000000000000
         C            0.798156766137     0.140443641276    -0.000000890882    12.000000000000
         C            3.300714066137     0.159619441276     0.000002109118    12.000000000000
         C           -3.339986933863     0.041717441276     0.000003109118    12.000000000000
         H            2.006038066137    -1.352632558724     0.876196109118     1.007825032230
         H            2.006040066137    -1.352630558724    -0.876197890882     1.007825032230
         H           -1.726288933863     1.201766441276     0.881122109118     1.007825032230
         H           -1.726293933863     1.201762441276    -0.881130890882     1.007825032230
         H            3.333270066137     0.802707441276     0.881417109118     1.007825032230
         H            3.333261066137     0.802723441276    -0.881400890882     1.007825032230
         H            4.188648066137    -0.477690558724    -0.000007890882     1.007825032230
         H           -3.532485933863    -0.568644558724    -0.885782890882     1.007825032230
         H           -3.532480933863    -0.568639558724     0.885794109118     1.007825032230
         H           -4.049854933863     0.873520441276     0.000003109118     1.007825032230

  Basis Set: AUG-CC-PVTZ
    Blend: AUG-CC-PVTZ
  Basis Set: (AUG-CC-PVTZ AUX)
    Blend: AUG-CC-PVTZ-JKFIT
	 Reference Energy          =    -667.6788563373685292 [Eh]
	 Singles Energy            =      -0.0000000000000000 [Eh]
	 Same-Spin Energy          =      -0.3338903349990373 [Eh]
	 Opposite-Spin Energy      =      -1.1083599703923008 [Eh]
	 Correlation Energy        =      -1.4422503053913380 [Eh]
	 Total Energy              =    -669.1211066427598553 [Eh]

	 ================> DF-SCS-MP2 Energies <==================
	-----------------------------------------------------------
	 SCS Same-Spin Scale       =       0.3333333333333333 [-]
	 SCS Opposite-Spin Scale   =       1.2000000000000000 [-]
	 SCS Same-Spin Energy      =      -0.1112967783330124 [Eh]
	 SCS Opposite-Spin Energy  =      -1.3300319644707610 [Eh]
	 SCS Correlation Energy    =      -1.4413287428037733 [Eh]
	 SCS Total Energy          =    -669.1201850801722912 [Eh]
	-----------------------------------------------------------

  Dipole Moment: [D]
     X:    -0.2717      Y:    -1.0802      Z:     0.0000     Total:     1.1139

*** Psi4 exiting successfully. Buy a developer a beer!
