                               Psi4 1.3.2 release

  ==> Input File <==

--------------------------------------------------------------------------
#psi4
#
memory 32 gb

molecule  {
0 1
  S        0.7163710     0.8062280    -0.0057410
  O       -0.7612550    -1.3859280     0.0083390
  C       -2.0509520     0.6590830     0.0068010
  C        1.9223760    -0.5510590    -0.0015950
  C       -0.7788880    -0.1628700     0.0040570
  C       -3.2947410    -0.2161080     0.0056640
  C        3.2413565    -0.0202409    -0.0101811
  H       -2.0279500     1.3158130     0.8843350
  H       -2.0299060     1.3210850    -0.8667760
  H        1.7458030    -1.1645560     0.8835850
  H        1.7388000    -1.1758340    -0.8774310
  H       -3.3141610    -0.8622160     0.8846490
  H       -3.3163930    -0.8568630    -0.8772710
  H       -4.1940350     0.4043620     0.0085730
  H        3.5120120     0.6248690    -0.9008780
  H        3.5189980     0.6365110     0.8698160
  H        4.0585630    -0.8014520    -0.0081370
units angstrom
no_reorient  #important for SAPT in psi4, default
symmetry c1  #important for SAPT in psi4, default
}

set PROPERTIES_ORIGIN ["COM"]
properties('MP2/aug-cc-pvtz', properties = ['dipole'])
--------------------------------------------------------------------------

    Molecular point group: c1
  Charge       = 0
  Multiplicity = 1
  Basis Set: AUG-CC-PVTZ
    Blend: AUG-CC-PVTZ
  Basis Set: (AUG-CC-PVTZ AUX)
    Blend: AUG-CC-PVTZ-JKFIT

    Orbital Energies [Eh]
    ---------------------

    Doubly Occupied:

       1A    -91.966108     2A    -20.554297     3A    -11.360453
       4A    -11.257353     5A    -11.248220     6A    -11.234816
       7A    -11.221457     8A     -8.968074     9A     -6.649253
      10A     -6.648116    11A     -6.647442    12A     -1.390716
      13A     -1.100518    14A     -1.065227    15A     -0.980811
      16A     -0.888353    17A     -0.817867    18A     -0.729098
      19A     -0.661494    20A     -0.644559    21A     -0.634077
      22A     -0.631360    23A     -0.571934    24A     -0.549844
      25A     -0.538441    26A     -0.530829    27A     -0.516930
      28A     -0.499590    29A     -0.486343    30A     -0.452454
      31A     -0.406919    32A     -0.368149

  @DF-RHF Final Energy:  -667.66888466672208

   => Energetics <=

    Nuclear Repulsion Energy =            371.2061268749955616
    One-Electron Energy =               -1653.3078184326436713
    Two-Electron Energy =                 614.4328068909260310
    Total Energy =                       -667.6688846667220787
  Basis Set: (AUG-CC-PVTZ AUX)
    Blend: AUG-CC-PVTZ-RI
    Molecular point group: c1

    Geometry (in Angstrom), charge = 0, multiplicity = 1:

       Center              X                  Y                   Z               Mass
    ------------   -----------------  -----------------  -----------------  -----------------
         S            0.725801345357     0.810023234875    -0.005802411805    31.972071174400
         O           -0.751824654643    -1.382132765125     0.008277588195    15.994914619570
         C           -2.041521654643     0.662878234875     0.006739588195    12.000000000000
         C            1.931806345357    -0.547263765125    -0.001656411805    12.000000000000
         C           -0.769457654643    -0.159074765125     0.003995588195    12.000000000000
         C           -3.285310654643    -0.212312765125     0.005602588195    12.000000000000
         C            3.250786845357    -0.016445665125    -0.010242511805    12.000000000000
         H           -2.018519654643     1.319608234875     0.884273588195     1.007825032230
         H           -2.020475654643     1.324880234875    -0.866837411805     1.007825032230
         H            1.755233345357    -1.160760765125     0.883523588195     1.007825032230
         H            1.748230345357    -1.172038765125    -0.877492411805     1.007825032230
         H           -3.304730654643    -0.858420765125     0.884587588195     1.007825032230
         H           -3.306962654643    -0.853067765125    -0.877332411805     1.007825032230
         H           -4.184604654643     0.408157234875     0.008511588195     1.007825032230
         H            3.521442345357     0.628664234875    -0.900939411805     1.007825032230
         H            3.528428345357     0.640306234875     0.869754588195     1.007825032230
         H            4.067993345357    -0.797656765125    -0.008198411805     1.007825032230

  Basis Set: AUG-CC-PVTZ
    Blend: AUG-CC-PVTZ
  Basis Set: (AUG-CC-PVTZ AUX)
    Blend: AUG-CC-PVTZ-JKFIT
	 Reference Energy          =    -667.6688846667220787 [Eh]
	 Singles Energy            =      -0.0000000000000000 [Eh]
	 Same-Spin Energy          =      -0.3346192358484162 [Eh]
	 Opposite-Spin Energy      =      -1.1088454200924760 [Eh]
	 Correlation Energy        =      -1.4434646559408923 [Eh]
	 Total Energy              =    -669.1123493226630217 [Eh]

	 ================> DF-SCS-MP2 Energies <==================
	-----------------------------------------------------------
	 SCS Same-Spin Scale       =       0.3333333333333333 [-]
	 SCS Opposite-Spin Scale   =       1.2000000000000000 [-]
	 SCS Same-Spin Energy      =      -0.1115397452828054 [Eh]
	 SCS Opposite-Spin Energy  =      -1.3306145041109712 [Eh]
	 SCS Correlation Energy    =      -1.4421542493937767 [Eh]
	 SCS Total Energy          =    -669.1110389161158309 [Eh]
	-----------------------------------------------------------

  Dipole Moment: [D]
     X:     0.3090      Y:     1.0544      Z:    -0.0007     Total:     1.0987

*** Psi4 exiting successfully. Buy a developer a beer!
