                               Psi4 1.3.2 release

  ==> Input File <==

--------------------------------------------------------------------------
#psi4
#
memory 32 gb

molecule  {
0 1
  S        0.7163710     0.8062280    -0.0057410
  O       -0.7612550    -1.3859280     0.0083390
  C       -2.0509520     0.6590830     0.0068010
  C        1.9223760    -0.5510590    -0.0015950
  C       -0.9468708    -0.0543267     0.0044194
  C       -3.2947410    -0.2161080     0.0056640
  C        3.3341240     0.0170930    -0.0107850
  H       -2.0279500     1.3158130     0.8843350
  H       -2.0299060     1.3210850    -0.8667760
  H        1.7458030    -1.1645560     0.8835850
  H        1.7388000    -1.1758340    -0.8774310
  H       -3.3141610    -0.8622160     0.8846490
  H       -3.3163930    -0.8568630    -0.8772710
  H       -4.1940350     0.4043620     0.0085730
  H        3.5120120     0.6248690    -0.9008780
  H        3.5189980     0.6365110     0.8698160
  H        4.0585630    -0.8014520    -0.0081370
units angstrom
no_reorient  #important for SAPT in psi4, default
symmetry c1  #important for SAPT in psi4, default
}

set PROPERTIES_ORIGIN ["COM"]
properties('MP2/aug-cc-pvtz', properties = ['dipole'])
--------------------------------------------------------------------------

    Molecular point group: c1
  Charge       = 0
  Multiplicity = 1
  Basis Set: AUG-CC-PVTZ
    Blend: AUG-CC-PVTZ
  Basis Set: (AUG-CC-PVTZ AUX)
    Blend: AUG-CC-PVTZ-JKFIT

    Orbital Energies [Eh]
    ---------------------

    Doubly Occupied:

       1A    -91.962780     2A    -20.545930     3A    -11.373911
       4A    -11.257367     5A    -11.251216     6A    -11.232142
       7A    -11.227595     8A     -8.962646     9A     -6.643698
      10A     -6.642916    11A     -6.642206    12A     -1.320473
      13A     -1.125643    14A     -1.069818    15A     -0.968905
      16A     -0.916184    17A     -0.817218    18A     -0.739115
      19A     -0.665955    20A     -0.655400    21A     -0.626676
      22A     -0.614292    23A     -0.569107    24A     -0.544799
      25A     -0.535302    26A     -0.533751    27A     -0.512242
      28A     -0.494530    29A     -0.463435    30A     -0.463059
      31A     -0.397559    32A     -0.356804

  @DF-RHF Final Energy:  -667.61573370651536

   => Energetics <=

    Nuclear Repulsion Energy =            368.3622566093669093
    One-Electron Energy =               -1647.6906331465118001
    Two-Electron Energy =                 611.7126428306294201
    Total Energy =                       -667.6157337065153570
  Basis Set: (AUG-CC-PVTZ AUX)
    Blend: AUG-CC-PVTZ-RI
    Molecular point group: c1

    Geometry (in Angstrom), charge = 0, multiplicity = 1:

       Center              X                  Y                   Z               Mass
    ------------   -----------------  -----------------  -----------------  -----------------
         S            0.733447427738     0.795193950292    -0.005777861895    31.972071174400
         O           -0.744178572262    -1.396962049708     0.008302138105    15.994914619570
         C           -2.033875572262     0.648048950292     0.006764138105    12.000000000000
         C            1.939452427738    -0.562093049708    -0.001631861895    12.000000000000
         C           -0.929794372262    -0.065360749708     0.004382538105    12.000000000000
         C           -3.277664572262    -0.227142049708     0.005627138105    12.000000000000
         C            3.351200427738     0.006058950292    -0.010821861895    12.000000000000
         H           -2.010873572262     1.304778950292     0.884298138105     1.007825032230
         H           -2.012829572262     1.310050950292    -0.866812861895     1.007825032230
         H            1.762879427738    -1.175590049708     0.883548138105     1.007825032230
         H            1.755876427738    -1.186868049708    -0.877467861895     1.007825032230
         H           -3.297084572262    -0.873250049708     0.884612138105     1.007825032230
         H           -3.299316572262    -0.867897049708    -0.877307861895     1.007825032230
         H           -4.176958572262     0.393327950292     0.008536138105     1.007825032230
         H            3.529088427738     0.613834950292    -0.900914861895     1.007825032230
         H            3.536074427738     0.625476950292     0.869779138105     1.007825032230
         H            4.075639427738    -0.812486049708    -0.008173861895     1.007825032230

  Basis Set: AUG-CC-PVTZ
    Blend: AUG-CC-PVTZ
  Basis Set: (AUG-CC-PVTZ AUX)
    Blend: AUG-CC-PVTZ-JKFIT
	 Reference Energy          =    -667.6157337065153570 [Eh]
	 Singles Energy            =      -0.0000000000000000 [Eh]
	 Same-Spin Energy          =      -0.3387832797223536 [Eh]
	 Opposite-Spin Energy      =      -1.1173543201214553 [Eh]
	 Correlation Energy        =      -1.4561375998438089 [Eh]
	 Total Energy              =    -669.0718713063591849 [Eh]

	 ================> DF-SCS-MP2 Energies <==================
	-----------------------------------------------------------
	 SCS Same-Spin Scale       =       0.3333333333333333 [-]
	 SCS Opposite-Spin Scale   =       1.2000000000000000 [-]
	 SCS Same-Spin Energy      =      -0.1129277599074512 [Eh]
	 SCS Opposite-Spin Energy  =      -1.3408251841457464 [Eh]
	 SCS Correlation Energy    =      -1.4537529440531975 [Eh]
	 SCS Total Energy          =    -669.0694866505685923 [Eh]
	-----------------------------------------------------------

  Dipole Moment: [D]
     X:    -0.5848      Y:     1.3323      Z:     0.0027     Total:     1.4550

*** Psi4 exiting successfully. Buy a developer a beer!
