                               Psi4 1.3.2 release

  ==> Input File <==

--------------------------------------------------------------------------
#psi4
#
memory 32 gb

molecule  {
0 1
  S        0.7163710     0.8062280    -0.0057410
  O       -0.7612550    -1.3859280     0.0083390
  C       -2.0509520     0.6590830     0.0068010
  C        1.9223760    -0.5510590    -0.0015950
  C       -0.7774464    -0.2628590     0.0044071
  C       -3.2947410    -0.2161080     0.0056640
  C        3.3341240     0.0170930    -0.0107850
  H       -2.0279500     1.3158130     0.8843350
  H       -2.0299060     1.3210850    -0.8667760
  H        1.7458030    -1.1645560     0.8835850
  H        1.7388000    -1.1758340    -0.8774310
  H       -3.3141610    -0.8622160     0.8846490
  H       -3.3163930    -0.8568630    -0.8772710
  H       -4.1940350     0.4043620     0.0085730
  H        3.5120120     0.6248690    -0.9008780
  H        3.5189980     0.6365110     0.8698160
  H        4.0585630    -0.8014520    -0.0081370
units angstrom
no_reorient  #important for SAPT in psi4, default
symmetry c1  #important for SAPT in psi4, default
}

set PROPERTIES_ORIGIN ["COM"]
properties('MP2/aug-cc-pvtz', properties = ['dipole'])
--------------------------------------------------------------------------

    Molecular point group: c1
  Charge       = 0
  Multiplicity = 1
  Basis Set: AUG-CC-PVTZ
    Blend: AUG-CC-PVTZ
  Basis Set: (AUG-CC-PVTZ AUX)
    Blend: AUG-CC-PVTZ-JKFIT

    Orbital Energies [Eh]
    ---------------------

    Doubly Occupied:

       1A    -91.953245     2A    -20.569404     3A    -11.354434
       4A    -11.256794     5A    -11.246612     6A    -11.226046
       7A    -11.220970     8A     -8.954963     9A     -6.636071
      10A     -6.634985    11A     -6.634271    12A     -1.470573
      13A     -1.078491    14A     -1.054018    15A     -0.964963
      16A     -0.881498    17A     -0.814510    18A     -0.737984
      19A     -0.677416    20A     -0.649528    21A     -0.646442
      22A     -0.625495    23A     -0.572298    24A     -0.563609
      25A     -0.549469    26A     -0.528181    27A     -0.517643
      28A     -0.510035    29A     -0.502882    30A     -0.453419
      31A     -0.385453    32A     -0.360204

  @DF-RHF Final Energy:  -667.67300128087254

   => Energetics <=

    Nuclear Repulsion Energy =            370.0822894790926512
    One-Electron Energy =               -1651.0467662525541073
    Two-Electron Energy =                 613.2914754925889156
    Total Energy =                       -667.6730012808725405
  Basis Set: (AUG-CC-PVTZ AUX)
    Blend: AUG-CC-PVTZ-RI
    Molecular point group: c1

    Geometry (in Angstrom), charge = 0, multiplicity = 1:

       Center              X                  Y                   Z               Mass
    ------------   -----------------  -----------------  -----------------  -----------------
         S            0.716224430293     0.816392498258    -0.005776611526    31.972071174400
         O           -0.761401569707    -1.375763501742     0.008303388474    15.994914619570
         C           -2.051098569707     0.669247498258     0.006765388474    12.000000000000
         C            1.922229430293    -0.540894501742    -0.001630611526    12.000000000000
         C           -0.777592969707    -0.252694501742     0.004371488474    12.000000000000
         C           -3.294887569707    -0.205943501742     0.005628388474    12.000000000000
         C            3.333977430293     0.027257498258    -0.010820611526    12.000000000000
         H           -2.028096569707     1.325977498258     0.884299388474     1.007825032230
         H           -2.030052569707     1.331249498258    -0.866811611526     1.007825032230
         H            1.745656430293    -1.154391501742     0.883549388474     1.007825032230
         H            1.738653430293    -1.165669501742    -0.877466611526     1.007825032230
         H           -3.314307569707    -0.852051501742     0.884613388474     1.007825032230
         H           -3.316539569707    -0.846698501742    -0.877306611526     1.007825032230
         H           -4.194181569707     0.414526498258     0.008537388474     1.007825032230
         H            3.511865430293     0.635033498258    -0.900913611526     1.007825032230
         H            3.518851430293     0.646675498258     0.869780388474     1.007825032230
         H            4.058416430293    -0.791287501742    -0.008172611526     1.007825032230

  Basis Set: AUG-CC-PVTZ
    Blend: AUG-CC-PVTZ
  Basis Set: (AUG-CC-PVTZ AUX)
    Blend: AUG-CC-PVTZ-JKFIT
	 Reference Energy          =    -667.6730012808725405 [Eh]
	 Singles Energy            =      -0.0000000000000000 [Eh]
	 Same-Spin Energy          =      -0.3311995934416576 [Eh]
	 Opposite-Spin Energy      =      -1.1030409520806870 [Eh]
	 Correlation Energy        =      -1.4342405455223446 [Eh]
	 Total Energy              =    -669.1072418263948975 [Eh]

	 ================> DF-SCS-MP2 Energies <==================
	-----------------------------------------------------------
	 SCS Same-Spin Scale       =       0.3333333333333333 [-]
	 SCS Opposite-Spin Scale   =       1.2000000000000000 [-]
	 SCS Same-Spin Energy      =      -0.1103998644805525 [Eh]
	 SCS Opposite-Spin Energy  =      -1.3236491424968244 [Eh]
	 SCS Correlation Energy    =      -1.4340490069773770 [Eh]
	 SCS Total Energy          =    -669.1070502878499155 [Eh]
	-----------------------------------------------------------

  Dipole Moment: [D]
     X:    -0.0573      Y:     0.5053      Z:     0.0025     Total:     0.5085

*** Psi4 exiting successfully. Buy a developer a beer!
