                               Psi4 1.4a3.dev225

  ==> Input File <==

--------------------------------------------------------------------------
#psi4
#
memory 32 gb

molecule  {
0 1
  S       -0.7336830    -0.7988290    -0.0000010
  O        0.7842810     1.3701820    -0.0000010
  C        2.0392260    -0.6993310     0.0000000
  C       -1.9177210     0.5806550    -0.0000020
  C        0.7810554     0.1963138    -0.0000010
  C        3.3000750     0.1543340     0.0000020
  C       -3.3406260     0.0364320     0.0000030
  H        2.0053990    -1.3579180     0.8761960
  H        2.0054010    -1.3579160    -0.8761980
  H       -1.7269280     1.1964810     0.8811220
  H       -1.7269330     1.1964770    -0.8811310
  H        3.3326310     0.7974220     0.8814170
  H        3.3326220     0.7974380    -0.8814010
  H        4.1880090    -0.4829760    -0.0000080
  H       -3.5331250    -0.5739300    -0.8857830
  H       -3.5331200    -0.5739250     0.8857940
  H       -4.0504940     0.8682350     0.0000030
units angstrom
no_reorient  #important for SAPT in psi4, default
symmetry c1  #important for SAPT in psi4, default
}

set PROPERTIES_ORIGIN ["COM"]
properties('MP2/aug-cc-pvtz', properties = ['dipole'])
--------------------------------------------------------------------------

    Molecular point group: c1
  Charge       = 0
  Multiplicity = 1
  Basis Set: AUG-CC-PVTZ
    Blend: AUG-CC-PVTZ
  Basis Set: (AUG-CC-PVTZ AUX)
    Blend: AUG-CC-PVTZ-JKFIT

    Orbital Energies [Eh]
    ---------------------

    Doubly Occupied:

       1A    -91.959809     2A    -20.561786     3A    -11.357827
       4A    -11.259525     5A    -11.247795     6A    -11.228439
       7A    -11.221423     8A     -8.961425     9A     -6.642567
      10A     -6.641478    11A     -6.640790    12A     -1.428247
      13A     -1.082108    14A     -1.056893    15A     -0.970430
      16A     -0.885981    17A     -0.817957    18A     -0.731753
      19A     -0.665214    20A     -0.642643    21A     -0.641900
      22A     -0.626753    23A     -0.561916    24A     -0.553984
      25A     -0.550454    26A     -0.525958    27A     -0.515055
      28A     -0.510926    29A     -0.500378    30A     -0.456388
      31A     -0.396873    32A     -0.363942

  @DF-RHF Final Energy:  -667.68169906662581

   => Energetics <=

    Nuclear Repulsion Energy =            369.3695618133554035
    One-Electron Energy =               -1649.6852859736754908
    Two-Electron Energy =                 612.6340250936942766
    Total Energy =                       -667.6816990666258107
  Basis Set: (AUG-CC-PVTZ AUX)
    Blend: AUG-CC-PVTZ-RI
    Molecular point group: c1

    Geometry (in Angstrom), charge = 0, multiplicity = 1:

       Center              X                  Y                   Z               Mass
    ------------   -----------------  -----------------  -----------------  -----------------
         S           -0.731370443203    -0.799760389019    -0.000000890882    31.972071174400
         O            0.786593556797     1.369250610981    -0.000000890882    15.994914619570
         C            2.041538556797    -0.700262389019     0.000000109118    12.000000000000
         C           -1.915408443203     0.579723610981    -0.000001890882    12.000000000000
         C            0.783367956797     0.195382410981    -0.000000890882    12.000000000000
         C            3.302387556797     0.153402610981     0.000002109118    12.000000000000
         C           -3.338313443203     0.035500610981     0.000003109118    12.000000000000
         H            2.007711556797    -1.358849389019     0.876196109118     1.007825032230
         H            2.007713556797    -1.358847389019    -0.876197890882     1.007825032230
         H           -1.724615443203     1.195549610981     0.881122109118     1.007825032230
         H           -1.724620443203     1.195545610981    -0.881130890882     1.007825032230
         H            3.334943556797     0.796490610981     0.881417109118     1.007825032230
         H            3.334934556797     0.796506610981    -0.881400890882     1.007825032230
         H            4.190321556797    -0.483907389019    -0.000007890882     1.007825032230
         H           -3.530812443203    -0.574861389019    -0.885782890882     1.007825032230
         H           -3.530807443203    -0.574856389019     0.885794109118     1.007825032230
         H           -4.048181443203     0.867303610981     0.000003109118     1.007825032230

  Basis Set: AUG-CC-PVTZ
    Blend: AUG-CC-PVTZ
  Basis Set: (AUG-CC-PVTZ AUX)
    Blend: AUG-CC-PVTZ-JKFIT
	 Reference Energy          =    -667.6816990666258107 [Eh]
	 Singles Energy            =      -0.0000000000000000 [Eh]
	 Same-Spin Energy          =      -0.3322560229728631 [Eh]
	 Opposite-Spin Energy      =      -1.1052708723149622 [Eh]
	 Correlation Energy        =      -1.4375268952878253 [Eh]
	 Total Energy              =    -669.1192259619136848 [Eh]

	 ================> DF-SCS-MP2 Energies <==================
	-----------------------------------------------------------
	 SCS Same-Spin Scale       =       0.3333333333333333 [-]
	 SCS Opposite-Spin Scale   =       1.2000000000000000 [-]
	 SCS Same-Spin Energy      =      -0.1107520076576210 [Eh]
	 SCS Opposite-Spin Energy  =      -1.3263250467779546 [Eh]
	 SCS Correlation Energy    =      -1.4370770544355755 [Eh]
	 SCS Total Energy          =    -669.1187761210613871 [Eh]
	-----------------------------------------------------------

  Dipole Moment: [D]
     X:    -0.1591      Y:    -0.7929      Z:     0.0000     Total:     0.8087

*** Psi4 exiting successfully. Buy a developer a beer!
