                               Psi4 1.3.2 release

  ==> Input File <==

--------------------------------------------------------------------------
#psi4
#
memory 32 gb

molecule  {
0 1
  S        0.7282612     0.8167001    -0.0058554
  O       -0.7612550    -1.3859280     0.0083390
  C       -2.0509520     0.6590830     0.0068010
  C        1.9223760    -0.5510590    -0.0015950
  C       -0.7788880    -0.1628700     0.0040570
  C       -3.2947410    -0.2161080     0.0056640
  C        3.3291119     0.0293910    -0.0108456
  H       -2.0279500     1.3158130     0.8843350
  H       -2.0299060     1.3210850    -0.8667760
  H        1.7458030    -1.1645560     0.8835850
  H        1.7388000    -1.1758340    -0.8774310
  H       -3.3141610    -0.8622160     0.8846490
  H       -3.3163930    -0.8568630    -0.8772710
  H       -4.1940350     0.4043620     0.0085730
  H        3.5120120     0.6248690    -0.9008780
  H        3.5189980     0.6365110     0.8698160
  H        4.0585630    -0.8014520    -0.0081370
units angstrom
no_reorient  #important for SAPT in psi4, default
symmetry c1  #important for SAPT in psi4, default
}

set PROPERTIES_ORIGIN ["COM"]
properties('MP2/aug-cc-pvtz', properties = ['dipole'])
--------------------------------------------------------------------------

    Molecular point group: c1
  Charge       = 0
  Multiplicity = 1
  Basis Set: AUG-CC-PVTZ
    Blend: AUG-CC-PVTZ
  Basis Set: (AUG-CC-PVTZ AUX)
    Blend: AUG-CC-PVTZ-JKFIT

    Orbital Energies [Eh]
    ---------------------

    Doubly Occupied:

       1A    -91.965400     2A    -20.555319     3A    -11.361249
       4A    -11.261085     5A    -11.248125     6A    -11.229666
       7A    -11.221366     8A     -8.966919     9A     -6.648091
      10A     -6.646974    11A     -6.646319    12A     -1.390831
      13A     -1.086536    14A     -1.061358    15A     -0.974409
      16A     -0.890784    17A     -0.821081    18A     -0.728356
      19A     -0.657968    20A     -0.642529    21A     -0.632359
      22A     -0.629435    23A     -0.558763    24A     -0.551431
      25A     -0.541263    26A     -0.523919    27A     -0.513138
      28A     -0.511827    29A     -0.494196    30A     -0.458999
      31A     -0.405463    32A     -0.366657

  @DF-RHF Final Energy:  -667.68004470666153

   => Energetics <=

    Nuclear Repulsion Energy =            369.1661168978986893
    One-Electron Energy =               -1649.3086879059712828
    Two-Electron Energy =                 612.4625263014110033
    Total Energy =                       -667.6800447066615334
  Basis Set: (AUG-CC-PVTZ AUX)
    Blend: AUG-CC-PVTZ-RI
    Molecular point group: c1

    Geometry (in Angstrom), charge = 0, multiplicity = 1:

       Center              X                  Y                   Z               Mass
    ------------   -----------------  -----------------  -----------------  -----------------
         S            0.725550275045     0.812613631579    -0.005818276656    31.972071174400
         O           -0.763965924955    -1.390014468421     0.008376123344    15.994914619570
         C           -2.053662924955     0.654996531579     0.006838123344    12.000000000000
         C            1.919665075045    -0.555145468421    -0.001557876656    12.000000000000
         C           -0.781598924955    -0.166956468421     0.004094123344    12.000000000000
         C           -3.297451924955    -0.220194468421     0.005701123344    12.000000000000
         C            3.326400975045     0.025304531579    -0.010808476656    12.000000000000
         H           -2.030660924955     1.311726531579     0.884372123344     1.007825032230
         H           -2.032616924955     1.316998531579    -0.866738876656     1.007825032230
         H            1.743092075045    -1.168642468421     0.883622123344     1.007825032230
         H            1.736089075045    -1.179920468421    -0.877393876656     1.007825032230
         H           -3.316871924955    -0.866302468421     0.884686123344     1.007825032230
         H           -3.319103924955    -0.860949468421    -0.877233876656     1.007825032230
         H           -4.196745924955     0.400275531579     0.008610123344     1.007825032230
         H            3.509301075045     0.620782531579    -0.900840876656     1.007825032230
         H            3.516287075045     0.632424531579     0.869853123344     1.007825032230
         H            4.055852075045    -0.805538468421    -0.008099876656     1.007825032230

  Basis Set: AUG-CC-PVTZ
    Blend: AUG-CC-PVTZ
  Basis Set: (AUG-CC-PVTZ AUX)
    Blend: AUG-CC-PVTZ-JKFIT
	 Reference Energy          =    -667.6800447066615334 [Eh]
	 Singles Energy            =      -0.0000000000000000 [Eh]
	 Same-Spin Energy          =      -0.3336294276994178 [Eh]
	 Opposite-Spin Energy      =      -1.1078692891314126 [Eh]
	 Correlation Energy        =      -1.4414987168308304 [Eh]
	 Total Energy              =    -669.1215434234923123 [Eh]

	 ================> DF-SCS-MP2 Energies <==================
	-----------------------------------------------------------
	 SCS Same-Spin Scale       =       0.3333333333333333 [-]
	 SCS Opposite-Spin Scale   =       1.2000000000000000 [-]
	 SCS Same-Spin Energy      =      -0.1112098092331393 [Eh]
	 SCS Opposite-Spin Energy  =      -1.3294431469576951 [Eh]
	 SCS Correlation Energy    =      -1.4406529561908343 [Eh]
	 SCS Total Energy          =    -669.1206976628524217 [Eh]
	-----------------------------------------------------------

  Dipole Moment: [D]
     X:     0.2893      Y:     1.0388      Z:    -0.0006     Total:     1.0784

*** Psi4 exiting successfully. Buy a developer a beer!
