                               Psi4 1.3.2 release

  ==> Input File <==

--------------------------------------------------------------------------
#psi4
#
memory 32 gb

molecule  {
0 1
  S        0.7163710     0.8062280    -0.0057410
  O       -0.7612550    -1.3859280     0.0083390
  C       -2.0509520     0.6590830     0.0068010
  C        1.9104857    -0.5615312    -0.0015015
  C       -0.7703739    -0.1758815     0.0041056
  C       -3.2947410    -0.2161080     0.0056640
  C        3.3341240     0.0170930    -0.0107850
  H       -2.0279500     1.3158130     0.8843350
  H       -2.0299060     1.3210850    -0.8667760
  H        1.7458030    -1.1645560     0.8835850
  H        1.7388000    -1.1758340    -0.8774310
  H       -3.3141610    -0.8622160     0.8846490
  H       -3.3163930    -0.8568630    -0.8772710
  H       -4.1940350     0.4043620     0.0085730
  H        3.5120120     0.6248690    -0.9008780
  H        3.5189980     0.6365110     0.8698160
  H        4.0585630    -0.8014520    -0.0081370
units angstrom
no_reorient  #important for SAPT in psi4, default
symmetry c1  #important for SAPT in psi4, default
}

set PROPERTIES_ORIGIN ["COM"]
properties('MP2/aug-cc-pvtz', properties = ['dipole'])
--------------------------------------------------------------------------

    Molecular point group: c1
  Charge       = 0
  Multiplicity = 1
  Basis Set: AUG-CC-PVTZ
    Blend: AUG-CC-PVTZ
  Basis Set: (AUG-CC-PVTZ AUX)
    Blend: AUG-CC-PVTZ-JKFIT

    Orbital Energies [Eh]
    ---------------------

    Doubly Occupied:

       1A    -91.964964     2A    -20.555070     3A    -11.358411
       4A    -11.260450     5A    -11.247126     6A    -11.230383
       7A    -11.220516     8A     -8.966835     9A     -6.648030
      10A     -6.646883    11A     -6.646226    12A     -1.399357
      13A     -1.085996    14A     -1.058288    15A     -0.975315
      16A     -0.888787    17A     -0.822651    18A     -0.727919
      19A     -0.659223    20A     -0.642321    21A     -0.634891
      22A     -0.628648    23A     -0.560961    24A     -0.549705
      25A     -0.543725    26A     -0.522512    27A     -0.513573
      28A     -0.510703    29A     -0.495701    30A     -0.460409
      31A     -0.404272    32A     -0.367734

  @DF-RHF Final Energy:  -667.68158494368834

   => Energetics <=

    Nuclear Repulsion Energy =            369.6779785509274916
    One-Electron Energy =               -1650.3239633512691853
    Two-Electron Energy =                 612.9643998566533583
    Total Energy =                       -667.6815849436883354
  Basis Set: (AUG-CC-PVTZ AUX)
    Blend: AUG-CC-PVTZ-RI
    Molecular point group: c1

    Geometry (in Angstrom), charge = 0, multiplicity = 1:

       Center              X                  Y                   Z               Mass
    ------------   -----------------  -----------------  -----------------  -----------------
         S            0.716714188303     0.808615279709    -0.005755467090    31.972071174400
         O           -0.760911811697    -1.383540720291     0.008324532910    15.994914619570
         C           -2.050608811697     0.661470279709     0.006786532910    12.000000000000
         C            1.910828888303    -0.559143920291    -0.001515967090    12.000000000000
         C           -0.770030711697    -0.173494220291     0.004091132910    12.000000000000
         C           -3.294397811697    -0.213720720291     0.005649532910    12.000000000000
         C            3.334467188303     0.019480279709    -0.010799467090    12.000000000000
         H           -2.027606811697     1.318200279709     0.884320532910     1.007825032230
         H           -2.029562811697     1.323472279709    -0.866790467090     1.007825032230
         H            1.746146188303    -1.162168720291     0.883570532910     1.007825032230
         H            1.739143188303    -1.173446720291    -0.877445467090     1.007825032230
         H           -3.313817811697    -0.859828720291     0.884634532910     1.007825032230
         H           -3.316049811697    -0.854475720291    -0.877285467090     1.007825032230
         H           -4.193691811697     0.406749279709     0.008558532910     1.007825032230
         H            3.512355188303     0.627256279709    -0.900892467090     1.007825032230
         H            3.519341188303     0.638898279709     0.869801532910     1.007825032230
         H            4.058906188303    -0.799064720291    -0.008151467090     1.007825032230

  Basis Set: AUG-CC-PVTZ
    Blend: AUG-CC-PVTZ
  Basis Set: (AUG-CC-PVTZ AUX)
    Blend: AUG-CC-PVTZ-JKFIT
	 Reference Energy          =    -667.6815849436883354 [Eh]
	 Singles Energy            =      -0.0000000000000000 [Eh]
	 Same-Spin Energy          =      -0.3331882202392277 [Eh]
	 Opposite-Spin Energy      =      -1.1069451639600449 [Eh]
	 Correlation Energy        =      -1.4401333841992727 [Eh]
	 Total Energy              =    -669.1217183278876064 [Eh]

	 ================> DF-SCS-MP2 Energies <==================
	-----------------------------------------------------------
	 SCS Same-Spin Scale       =       0.3333333333333333 [-]
	 SCS Opposite-Spin Scale   =       1.2000000000000000 [-]
	 SCS Same-Spin Energy      =      -0.1110627400797426 [Eh]
	 SCS Opposite-Spin Energy  =      -1.3283341967520539 [Eh]
	 SCS Correlation Energy    =      -1.4393969368317965 [Eh]
	 SCS Total Energy          =    -669.1209818805201621 [Eh]
	-----------------------------------------------------------

  Dipole Moment: [D]
     X:     0.3589      Y:     1.0127      Z:    -0.0008     Total:     1.0745

*** Psi4 exiting successfully. Buy a developer a beer!
