                               Psi4 1.3.2 release

  ==> Input File <==

--------------------------------------------------------------------------
#psi4
#
memory 32 gb

molecule  {
0 1
  S        0.7163710     0.8062280    -0.0057410
  O       -0.8252888    -1.3851737     0.0086220
  C       -2.0922252     0.5913823     0.0072265
  C        1.9223760    -0.5510590    -0.0015950
  C       -0.7788880    -0.1628700     0.0040570
  C       -3.2947410    -0.2161080     0.0056640
  C        3.3341240     0.0170930    -0.0107850
  H       -2.0279500     1.3158130     0.8843350
  H       -2.0299060     1.3210850    -0.8667760
  H        1.7458030    -1.1645560     0.8835850
  H        1.7388000    -1.1758340    -0.8774310
  H       -3.3141610    -0.8622160     0.8846490
  H       -3.3163930    -0.8568630    -0.8772710
  H       -4.1940350     0.4043620     0.0085730
  H        3.5120120     0.6248690    -0.9008780
  H        3.5189980     0.6365110     0.8698160
  H        4.0585630    -0.8014520    -0.0081370
units angstrom
no_reorient  #important for SAPT in psi4, default
symmetry c1  #important for SAPT in psi4, default
}

set PROPERTIES_ORIGIN ["COM"]
properties('MP2/aug-cc-pvtz', properties = ['dipole'])
--------------------------------------------------------------------------

    Molecular point group: c1
  Charge       = 0
  Multiplicity = 1
  Basis Set: AUG-CC-PVTZ
    Blend: AUG-CC-PVTZ
  Basis Set: (AUG-CC-PVTZ AUX)
    Blend: AUG-CC-PVTZ-JKFIT

    Orbital Energies [Eh]
    ---------------------

    Doubly Occupied:

       1A    -91.970567     2A    -20.550652     3A    -11.357771
       4A    -11.264447     5A    -11.248618     6A    -11.232414
       7A    -11.215487     8A     -8.972049     9A     -6.653255
      10A     -6.652131    11A     -6.651450    12A     -1.389118
      13A     -1.089740    14A     -1.067428    15A     -0.981547
      16A     -0.889629    17A     -0.821543    18A     -0.722744
      19A     -0.661395    20A     -0.639947    21A     -0.631513
      22A     -0.626892    23A     -0.569936    24A     -0.557392
      25A     -0.540157    26A     -0.522827    27A     -0.514255
      28A     -0.511454    29A     -0.475810    30A     -0.462779
      31A     -0.406838    32A     -0.369800

  @DF-RHF Final Energy:  -667.67180109730862

   => Energetics <=

    Nuclear Repulsion Energy =            369.6668472187280372
    One-Electron Energy =               -1650.2341274633174635
    Two-Electron Energy =                 612.8954791472808665
    Total Energy =                       -667.6718010973086166
  Basis Set: (AUG-CC-PVTZ AUX)
    Blend: AUG-CC-PVTZ-RI
    Molecular point group: c1

    Geometry (in Angstrom), charge = 0, multiplicity = 1:

       Center              X                  Y                   Z               Mass
    ------------   -----------------  -----------------  -----------------  -----------------
         S            0.729243106983     0.813007994341    -0.005822622369    31.972071174400
         O           -0.812416693017    -1.378393705659     0.008540377631    15.994914619570
         C           -2.079353093017     0.598162294341     0.007144877631    12.000000000000
         C            1.935248106983    -0.544279005659    -0.001676622369    12.000000000000
         C           -0.766015893017    -0.156090005659     0.003975377631    12.000000000000
         C           -3.281868893017    -0.209328005659     0.005582377631    12.000000000000
         C            3.346996106983     0.023872994341    -0.010866622369    12.000000000000
         H           -2.015077893017     1.322592994341     0.884253377631     1.007825032230
         H           -2.017033893017     1.327864994341    -0.866857622369     1.007825032230
         H            1.758675106983    -1.157776005659     0.883503377631     1.007825032230
         H            1.751672106983    -1.169054005659    -0.877512622369     1.007825032230
         H           -3.301288893017    -0.855436005659     0.884567377631     1.007825032230
         H           -3.303520893017    -0.850083005659    -0.877352622369     1.007825032230
         H           -4.181162893017     0.411141994341     0.008491377631     1.007825032230
         H            3.524884106983     0.631648994341    -0.900959622369     1.007825032230
         H            3.531870106983     0.643290994341     0.869734377631     1.007825032230
         H            4.071435106983    -0.794672005659    -0.008218622369     1.007825032230

  Basis Set: AUG-CC-PVTZ
    Blend: AUG-CC-PVTZ
  Basis Set: (AUG-CC-PVTZ AUX)
    Blend: AUG-CC-PVTZ-JKFIT
	 Reference Energy          =    -667.6718010973086166 [Eh]
	 Singles Energy            =      -0.0000000000000000 [Eh]
	 Same-Spin Energy          =      -0.3341757312759293 [Eh]
	 Opposite-Spin Energy      =      -1.1084307923337313 [Eh]
	 Correlation Energy        =      -1.4426065236096606 [Eh]
	 Total Energy              =    -669.1144076209183140 [Eh]

	 ================> DF-SCS-MP2 Energies <==================
	-----------------------------------------------------------
	 SCS Same-Spin Scale       =       0.3333333333333333 [-]
	 SCS Opposite-Spin Scale   =       1.2000000000000000 [-]
	 SCS Same-Spin Energy      =      -0.1113919104253098 [Eh]
	 SCS Opposite-Spin Energy  =      -1.3301169508004775 [Eh]
	 SCS Correlation Energy    =      -1.4415088612257874 [Eh]
	 SCS Total Energy          =    -669.1133099585343871 [Eh]
	-----------------------------------------------------------

  Dipole Moment: [D]
     X:     0.5726      Y:     1.0559      Z:    -0.0016     Total:     1.2011

*** Psi4 exiting successfully. Buy a developer a beer!
