                               Psi4 1.4a3.dev225

  ==> Input File <==

--------------------------------------------------------------------------
#psi4
#
memory 32 gb

molecule  {
0 1
  S       -0.7336830    -0.7988290    -0.0000010
  O        0.7842810     1.3701820    -0.0000010
  C        2.0392260    -0.6993310     0.0000000
  C       -1.9177210     0.5806550    -0.0000020
  C        0.8233366     0.1727841    -0.0000010
  C        3.3000750     0.1543340     0.0000020
  C       -3.3406260     0.0364320     0.0000030
  H        2.0053990    -1.3579180     0.8761960
  H        2.0054010    -1.3579160    -0.8761980
  H       -1.7269280     1.1964810     0.8811220
  H       -1.7269330     1.1964770    -0.8811310
  H        3.3326310     0.7974220     0.8814170
  H        3.3326220     0.7974380    -0.8814010
  H        4.1880090    -0.4829760    -0.0000080
  H       -3.5331250    -0.5739300    -0.8857830
  H       -3.5331200    -0.5739250     0.8857940
  H       -4.0504940     0.8682350     0.0000030
units angstrom
no_reorient  #important for SAPT in psi4, default
symmetry c1  #important for SAPT in psi4, default
}

set PROPERTIES_ORIGIN ["COM"]
properties('MP2/aug-cc-pvtz', properties = ['dipole'])
--------------------------------------------------------------------------

    Molecular point group: c1
  Charge       = 0
  Multiplicity = 1
  Basis Set: AUG-CC-PVTZ
    Blend: AUG-CC-PVTZ
  Basis Set: (AUG-CC-PVTZ AUX)
    Blend: AUG-CC-PVTZ-JKFIT

    Orbital Energies [Eh]
    ---------------------

    Doubly Occupied:

       1A    -91.958294     2A    -20.561400     3A    -11.362013
       4A    -11.258373     5A    -11.250098     6A    -11.227700
       7A    -11.223988     8A     -8.959501     9A     -6.640615
      10A     -6.639613    11A     -6.638921    12A     -1.411900
      13A     -1.083012    14A     -1.064177    15A     -0.967414
      16A     -0.892566    17A     -0.816951    18A     -0.732996
      19A     -0.663707    20A     -0.645759    21A     -0.638389
      22A     -0.626828    23A     -0.561526    24A     -0.551168
      25A     -0.547106    26A     -0.527335    27A     -0.514162
      28A     -0.510746    29A     -0.499844    30A     -0.456388
      31A     -0.398907    32A     -0.361093

  @DF-RHF Final Energy:  -667.68087186169817

   => Energetics <=

    Nuclear Repulsion Energy =            368.9932860006007331
    One-Electron Energy =               -1648.9633363828295387
    Two-Electron Energy =                 612.2891785205305268
    Total Energy =                       -667.6808718616981650
  Basis Set: (AUG-CC-PVTZ AUX)
    Blend: AUG-CC-PVTZ-RI
    Molecular point group: c1

    Geometry (in Angstrom), charge = 0, multiplicity = 1:

       Center              X                  Y                   Z               Mass
    ------------   -----------------  -----------------  -----------------  -----------------
         S           -0.735668578534    -0.797368455136    -0.000000890882    31.972071174400
         O            0.782295421466     1.371642544864    -0.000000890882    15.994914619570
         C            2.037240421466    -0.697870455136     0.000000109118    12.000000000000
         C           -1.919706578534     0.582115544864    -0.000001890882    12.000000000000
         C            0.821351021466     0.174244644864    -0.000000890882    12.000000000000
         C            3.298089421466     0.155794544864     0.000002109118    12.000000000000
         C           -3.342611578534     0.037892544864     0.000003109118    12.000000000000
         H            2.003413421466    -1.356457455136     0.876196109118     1.007825032230
         H            2.003415421466    -1.356455455136    -0.876197890882     1.007825032230
         H           -1.728913578534     1.197941544864     0.881122109118     1.007825032230
         H           -1.728918578534     1.197937544864    -0.881130890882     1.007825032230
         H            3.330645421466     0.798882544864     0.881417109118     1.007825032230
         H            3.330636421466     0.798898544864    -0.881400890882     1.007825032230
         H            4.186023421466    -0.481515455136    -0.000007890882     1.007825032230
         H           -3.535110578534    -0.572469455136    -0.885782890882     1.007825032230
         H           -3.535105578534    -0.572464455136     0.885794109118     1.007825032230
         H           -4.052479578534     0.869695544864     0.000003109118     1.007825032230

  Basis Set: AUG-CC-PVTZ
    Blend: AUG-CC-PVTZ
  Basis Set: (AUG-CC-PVTZ AUX)
    Blend: AUG-CC-PVTZ-JKFIT
	 Reference Energy          =    -667.6808718616981650 [Eh]
	 Singles Energy            =      -0.0000000000000000 [Eh]
	 Same-Spin Energy          =      -0.3329899102496480 [Eh]
	 Opposite-Spin Energy      =      -1.1066665207135316 [Eh]
	 Correlation Energy        =      -1.4396564309631796 [Eh]
	 Total Energy              =    -669.1205282926613336 [Eh]

	 ================> DF-SCS-MP2 Energies <==================
	-----------------------------------------------------------
	 SCS Same-Spin Scale       =       0.3333333333333333 [-]
	 SCS Opposite-Spin Scale   =       1.2000000000000000 [-]
	 SCS Same-Spin Energy      =      -0.1109966367498827 [Eh]
	 SCS Opposite-Spin Energy  =      -1.3279998248562379 [Eh]
	 SCS Correlation Energy    =      -1.4389964616061206 [Eh]
	 SCS Total Energy          =    -669.1198683233043312 [Eh]
	-----------------------------------------------------------

  Dipole Moment: [D]
     X:     0.0912      Y:    -0.8556      Z:     0.0000     Total:     0.8604

*** Psi4 exiting successfully. Buy a developer a beer!
