                               Psi4 1.3.2 release

  ==> Input File <==

--------------------------------------------------------------------------
#psi4
#
memory 32 gb

molecule  {
0 1
  S        0.7163710     0.8062280    -0.0057410
  O       -0.7612550    -1.3859280     0.0083390
  C       -2.0509520     0.6590830     0.0068010
  C        1.9223760    -0.5510590    -0.0015950
  C       -0.7717636    -0.1517380     0.0040774
  C       -3.3023310    -0.2052207     0.0056940
  C        3.3341240     0.0170930    -0.0107850
  H       -2.0279500     1.3158130     0.8843350
  H       -2.0299060     1.3210850    -0.8667760
  H        1.7458030    -1.1645560     0.8835850
  H        1.7388000    -1.1758340    -0.8774310
  H       -3.3141610    -0.8622160     0.8846490
  H       -3.3163930    -0.8568630    -0.8772710
  H       -4.1940350     0.4043620     0.0085730
  H        3.5120120     0.6248690    -0.9008780
  H        3.5189980     0.6365110     0.8698160
  H        4.0585630    -0.8014520    -0.0081370
units angstrom
no_reorient  #important for SAPT in psi4, default
symmetry c1  #important for SAPT in psi4, default
}

set PROPERTIES_ORIGIN ["COM"]
properties('MP2/aug-cc-pvtz', properties = ['dipole'])
--------------------------------------------------------------------------

    Molecular point group: c1
  Charge       = 0
  Multiplicity = 1
  Basis Set: AUG-CC-PVTZ
    Blend: AUG-CC-PVTZ
  Basis Set: (AUG-CC-PVTZ AUX)
    Blend: AUG-CC-PVTZ-JKFIT

    Orbital Energies [Eh]
    ---------------------

    Doubly Occupied:

       1A    -91.967470     2A    -20.551601     3A    -11.360133
       4A    -11.262209     5A    -11.247576     6A    -11.230821
       7A    -11.220788     8A     -8.969408     9A     -6.650624
      10A     -6.649486    11A     -6.648836    12A     -1.381694
      13A     -1.089138    14A     -1.060804    15A     -0.979412
      16A     -0.891350    17A     -0.823006    18A     -0.726320
      19A     -0.657633    20A     -0.641563    21A     -0.629974
      22A     -0.628439    23A     -0.561891    24A     -0.553895
      25A     -0.537786    26A     -0.523720    27A     -0.510752
      28A     -0.510594    29A     -0.490284    30A     -0.460848
      31A     -0.408278    32A     -0.368292

  @DF-RHF Final Energy:  -667.67918372978818

   => Energetics <=

    Nuclear Repulsion Energy =            369.5118084519104968
    One-Electron Energy =               -1649.9927365351773005
    Two-Electron Energy =                 612.8017443534787390
    Total Energy =                       -667.6791837297881784
  Basis Set: (AUG-CC-PVTZ AUX)
    Blend: AUG-CC-PVTZ-RI
    Molecular point group: c1

    Geometry (in Angstrom), charge = 0, multiplicity = 1:

       Center              X                  Y                   Z               Mass
    ------------   -----------------  -----------------  -----------------  -----------------
         S            0.716418308511     0.803989629255    -0.005746145240    31.972071174400
         O           -0.761207691489    -1.388166370745     0.008333854760    15.994914619570
         C           -2.050904691489     0.656844629255     0.006795854760    12.000000000000
         C            1.922423308511    -0.553297370745    -0.001600145240    12.000000000000
         C           -0.771716291489    -0.153976370745     0.004072254760    12.000000000000
         C           -3.302283691489    -0.207459070745     0.005688854760    12.000000000000
         C            3.334171308511     0.014854629255    -0.010790145240    12.000000000000
         H           -2.027902691489     1.313574629255     0.884329854760     1.007825032230
         H           -2.029858691489     1.318846629255    -0.866781145240     1.007825032230
         H            1.745850308511    -1.166794370745     0.883579854760     1.007825032230
         H            1.738847308511    -1.178072370745    -0.877436145240     1.007825032230
         H           -3.314113691489    -0.864454370745     0.884643854760     1.007825032230
         H           -3.316345691489    -0.859101370745    -0.877276145240     1.007825032230
         H           -4.193987691489     0.402123629255     0.008567854760     1.007825032230
         H            3.512059308511     0.622630629255    -0.900883145240     1.007825032230
         H            3.519045308511     0.634272629255     0.869810854760     1.007825032230
         H            4.058610308511    -0.803690370745    -0.008142145240     1.007825032230

  Basis Set: AUG-CC-PVTZ
    Blend: AUG-CC-PVTZ
  Basis Set: (AUG-CC-PVTZ AUX)
    Blend: AUG-CC-PVTZ-JKFIT
	 Reference Energy          =    -667.6791837297881784 [Eh]
	 Singles Energy            =      -0.0000000000000000 [Eh]
	 Same-Spin Energy          =      -0.3339136308552499 [Eh]
	 Opposite-Spin Energy      =      -1.1081985128010357 [Eh]
	 Correlation Energy        =      -1.4421121436562856 [Eh]
	 Total Energy              =    -669.1212958734444101 [Eh]

	 ================> DF-SCS-MP2 Energies <==================
	-----------------------------------------------------------
	 SCS Same-Spin Scale       =       0.3333333333333333 [-]
	 SCS Opposite-Spin Scale   =       1.2000000000000000 [-]
	 SCS Same-Spin Energy      =      -0.1113045436184166 [Eh]
	 SCS Opposite-Spin Energy  =      -1.3298382153612427 [Eh]
	 SCS Correlation Energy    =      -1.4411427589796593 [Eh]
	 SCS Total Energy          =    -669.1203264887678870 [Eh]
	-----------------------------------------------------------

  Dipole Moment: [D]
     X:     0.4481      Y:     1.1296      Z:    -0.0015     Total:     1.2152

*** Psi4 exiting successfully. Buy a developer a beer!
