                               Psi4 1.4a3.dev225

  ==> Input File <==

--------------------------------------------------------------------------
#psi4
#
memory 32 gb

molecule  {
0 1
  S       -0.7336830    -0.7988290    -0.0000010
  O        0.7842810     1.3701820    -0.0000010
  C        2.0392260    -0.6993310     0.0000000
  C       -1.9307471     0.5958313    -0.0000020
  C        0.7809180     0.1463140    -0.0000010
  C        3.3000750     0.1543340     0.0000020
  C       -3.3406260     0.0364320     0.0000030
  H        2.0053990    -1.3579180     0.8761960
  H        2.0054010    -1.3579160    -0.8761980
  H       -1.7269280     1.1964810     0.8811220
  H       -1.7269330     1.1964770    -0.8811310
  H        3.3326310     0.7974220     0.8814170
  H        3.3326220     0.7974380    -0.8814010
  H        4.1880090    -0.4829760    -0.0000080
  H       -3.5331250    -0.5739300    -0.8857830
  H       -3.5331200    -0.5739250     0.8857940
  H       -4.0504940     0.8682350     0.0000030
units angstrom
no_reorient  #important for SAPT in psi4, default
symmetry c1  #important for SAPT in psi4, default
}

set PROPERTIES_ORIGIN ["COM"]
properties('MP2/aug-cc-pvtz', properties = ['dipole'])
--------------------------------------------------------------------------

    Molecular point group: c1
  Charge       = 0
  Multiplicity = 1
  Basis Set: AUG-CC-PVTZ
    Blend: AUG-CC-PVTZ
  Basis Set: (AUG-CC-PVTZ AUX)
    Blend: AUG-CC-PVTZ-JKFIT

    Orbital Energies [Eh]
    ---------------------

    Doubly Occupied:

       1A    -91.964885     2A    -20.553631     3A    -11.360103
       4A    -11.262391     5A    -11.247972     6A    -11.230420
       7A    -11.221317     8A     -8.966380     9A     -6.647545
      10A     -6.646433    11A     -6.645799    12A     -1.389346
      13A     -1.085330    14A     -1.060452    15A     -0.976413
      16A     -0.889952    17A     -0.823110    18A     -0.727158
      19A     -0.656676    20A     -0.642484    21A     -0.631506
      22A     -0.629949    23A     -0.561908    24A     -0.551932
      25A     -0.540417    26A     -0.524545    27A     -0.512935
      28A     -0.512814    29A     -0.493895    30A     -0.454844
      31A     -0.405532    32A     -0.367006

  @DF-RHF Final Energy:  -667.68054796533579

   => Energetics <=

    Nuclear Repulsion Energy =            368.8468431530524754
    One-Electron Energy =               -1648.6846275193772726
    Two-Electron Energy =                 612.1572364009889498
    Total Energy =                       -667.6805479653357906
  Basis Set: (AUG-CC-PVTZ AUX)
    Blend: AUG-CC-PVTZ-RI
    Molecular point group: c1

    Geometry (in Angstrom), charge = 0, multiplicity = 1:

       Center              X                  Y                   Z               Mass
    ------------   -----------------  -----------------  -----------------  -----------------
         S           -0.730032295175    -0.796220373227    -0.000000890882    31.972071174400
         O            0.787931704825     1.372790626773    -0.000000890882    15.994914619570
         C            2.042876704825    -0.696722373227     0.000000109118    12.000000000000
         C           -1.927096395175     0.598439926773    -0.000001890882    12.000000000000
         C            0.784568704825     0.148922626773    -0.000000890882    12.000000000000
         C            3.303725704825     0.156942626773     0.000002109118    12.000000000000
         C           -3.336975295175     0.039040626773     0.000003109118    12.000000000000
         H            2.009049704825    -1.355309373227     0.876196109118     1.007825032230
         H            2.009051704825    -1.355307373227    -0.876197890882     1.007825032230
         H           -1.723277295175     1.199089626773     0.881122109118     1.007825032230
         H           -1.723282295175     1.199085626773    -0.881130890882     1.007825032230
         H            3.336281704825     0.800030626773     0.881417109118     1.007825032230
         H            3.336272704825     0.800046626773    -0.881400890882     1.007825032230
         H            4.191659704825    -0.480367373227    -0.000007890882     1.007825032230
         H           -3.529474295175    -0.571321373227    -0.885782890882     1.007825032230
         H           -3.529469295175    -0.571316373227     0.885794109118     1.007825032230
         H           -4.046843295175     0.870843626773     0.000003109118     1.007825032230

  Basis Set: AUG-CC-PVTZ
    Blend: AUG-CC-PVTZ
  Basis Set: (AUG-CC-PVTZ AUX)
    Blend: AUG-CC-PVTZ-JKFIT
	 Reference Energy          =    -667.6805479653357906 [Eh]
	 Singles Energy            =      -0.0000000000000000 [Eh]
	 Same-Spin Energy          =      -0.3334502778856818 [Eh]
	 Opposite-Spin Energy      =      -1.1076082614448306 [Eh]
	 Correlation Energy        =      -1.4410585393305124 [Eh]
	 Total Energy              =    -669.1216065046662607 [Eh]

	 ================> DF-SCS-MP2 Energies <==================
	-----------------------------------------------------------
	 SCS Same-Spin Scale       =       0.3333333333333333 [-]
	 SCS Opposite-Spin Scale   =       1.2000000000000000 [-]
	 SCS Same-Spin Energy      =      -0.1111500926285606 [Eh]
	 SCS Opposite-Spin Energy  =      -1.3291299137337966 [Eh]
	 SCS Correlation Energy    =      -1.4402800063623573 [Eh]
	 SCS Total Energy          =    -669.1208279716981906 [Eh]
	-----------------------------------------------------------

  Dipole Moment: [D]
     X:    -0.3959      Y:    -1.0347      Z:     0.0000     Total:     1.1079

*** Psi4 exiting successfully. Buy a developer a beer!
