                               Psi4 1.4a3.dev225

  ==> Input File <==

--------------------------------------------------------------------------
#psi4
#
memory 32 gb

molecule  {
0 1
  S       -0.7336830    -0.7988290    -0.0000010
  O        0.7842810     1.3701820    -0.0000010
  C        2.0392260    -0.6993310     0.0000000
  C       -1.9177210     0.5806550    -0.0000020
  C        0.7809180     0.1463140    -0.0000010
  C        3.3000750     0.1543340     0.0000020
  C       -3.3219457     0.0435767     0.0000029
  H        2.0053990    -1.3579180     0.8761960
  H        2.0054010    -1.3579160    -0.8761980
  H       -1.7269280     1.1964810     0.8811220
  H       -1.7269330     1.1964770    -0.8811310
  H        3.3326310     0.7974220     0.8814170
  H        3.3326220     0.7974380    -0.8814010
  H        4.1880090    -0.4829760    -0.0000080
  H       -3.5331250    -0.5739300    -0.8857830
  H       -3.5331200    -0.5739250     0.8857940
  H       -4.0504940     0.8682350     0.0000030
units angstrom
no_reorient  #important for SAPT in psi4, default
symmetry c1  #important for SAPT in psi4, default
}

set PROPERTIES_ORIGIN ["COM"]
properties('MP2/aug-cc-pvtz', properties = ['dipole'])
--------------------------------------------------------------------------

    Molecular point group: c1
  Charge       = 0
  Multiplicity = 1
  Basis Set: AUG-CC-PVTZ
    Blend: AUG-CC-PVTZ
  Basis Set: (AUG-CC-PVTZ AUX)
    Blend: AUG-CC-PVTZ-JKFIT

    Orbital Energies [Eh]
    ---------------------

    Doubly Occupied:

       1A    -91.965734     2A    -20.554230     3A    -11.360586
       4A    -11.261056     5A    -11.248422     6A    -11.231109
       7A    -11.221639     8A     -8.967460     9A     -6.648644
      10A     -6.647533    11A     -6.646873    12A     -1.389881
      13A     -1.088654    14A     -1.061501    15A     -0.976983
      16A     -0.890176    17A     -0.821012    18A     -0.727872
      19A     -0.658391    20A     -0.642305    21A     -0.632524
      22A     -0.628698    23A     -0.559357    24A     -0.553686
      25A     -0.539921    26A     -0.525090    27A     -0.513892
      28A     -0.508733    29A     -0.493411    30A     -0.458431
      31A     -0.406188    32A     -0.367169

  @DF-RHF Final Energy:  -667.67995754629146

   => Energetics <=

    Nuclear Repulsion Energy =            369.4687883452851338
    One-Electron Energy =               -1649.9031693785202606
    Two-Electron Energy =                 612.7544234869437787
    Total Energy =                       -667.6799575462914618
  Basis Set: (AUG-CC-PVTZ AUX)
    Blend: AUG-CC-PVTZ-RI
    Molecular point group: c1

    Geometry (in Angstrom), charge = 0, multiplicity = 1:

       Center              X                  Y                   Z               Mass
    ------------   -----------------  -----------------  -----------------  -----------------
         S           -0.733255439221    -0.795403913341    -0.000000880716    31.972071174400
         O            0.784708560779     1.373607086659    -0.000000880716    15.994914619570
         C            2.039653560779    -0.695905913341     0.000000119284    12.000000000000
         C           -1.917293439221     0.584080086659    -0.000001880716    12.000000000000
         C            0.781345560779     0.149739086659    -0.000000880716    12.000000000000
         C            3.300502560779     0.157759086659     0.000002119284    12.000000000000
         C           -3.321518139221     0.047001786659     0.000003019284    12.000000000000
         H            2.005826560779    -1.354492913341     0.876196119284     1.007825032230
         H            2.005828560779    -1.354490913341    -0.876197880716     1.007825032230
         H           -1.726500439221     1.199906086659     0.881122119284     1.007825032230
         H           -1.726505439221     1.199902086659    -0.881130880716     1.007825032230
         H            3.333058560779     0.800847086659     0.881417119284     1.007825032230
         H            3.333049560779     0.800863086659    -0.881400880716     1.007825032230
         H            4.188436560779    -0.479550913341    -0.000007880716     1.007825032230
         H           -3.532697439221    -0.570504913341    -0.885782880716     1.007825032230
         H           -3.532692439221    -0.570499913341     0.885794119284     1.007825032230
         H           -4.050066439221     0.871660086659     0.000003119284     1.007825032230

  Basis Set: AUG-CC-PVTZ
    Blend: AUG-CC-PVTZ
  Basis Set: (AUG-CC-PVTZ AUX)
    Blend: AUG-CC-PVTZ-JKFIT
	 Reference Energy          =    -667.6799575462914618 [Eh]
	 Singles Energy            =      -0.0000000000000000 [Eh]
	 Same-Spin Energy          =      -0.3336855988298598 [Eh]
	 Opposite-Spin Energy      =      -1.1078365945752746 [Eh]
	 Correlation Energy        =      -1.4415221934051343 [Eh]
	 Total Energy              =    -669.1214797396966105 [Eh]

	 ================> DF-SCS-MP2 Energies <==================
	-----------------------------------------------------------
	 SCS Same-Spin Scale       =       0.3333333333333333 [-]
	 SCS Opposite-Spin Scale   =       1.2000000000000000 [-]
	 SCS Same-Spin Energy      =      -0.1112285329432866 [Eh]
	 SCS Opposite-Spin Energy  =      -1.3294039134903295 [Eh]
	 SCS Correlation Energy    =      -1.4406324464336160 [Eh]
	 SCS Total Energy          =    -669.1205899927250584 [Eh]
	-----------------------------------------------------------

  Dipole Moment: [D]
     X:    -0.3526      Y:    -1.0504      Z:     0.0000     Total:     1.1080

*** Psi4 exiting successfully. Buy a developer a beer!
