                               Psi4 1.3.2 release

  ==> Input File <==

--------------------------------------------------------------------------
#psi4
#
memory 32 gb

molecule  {
0 1
  S        0.7163710     0.8062280    -0.0057410
  O       -0.7612550    -1.3859280     0.0083390
  C       -2.0509520     0.6590830     0.0068010
  C        1.9341745    -0.5404834    -0.0016888
  C       -0.7872882    -0.1497847     0.0040077
  C       -3.2947410    -0.2161080     0.0056640
  C        3.3341240     0.0170930    -0.0107850
  H       -2.0279500     1.3158130     0.8843350
  H       -2.0299060     1.3210850    -0.8667760
  H        1.7458030    -1.1645560     0.8835850
  H        1.7388000    -1.1758340    -0.8774310
  H       -3.3141610    -0.8622160     0.8846490
  H       -3.3163930    -0.8568630    -0.8772710
  H       -4.1940350     0.4043620     0.0085730
  H        3.5120120     0.6248690    -0.9008780
  H        3.5189980     0.6365110     0.8698160
  H        4.0585630    -0.8014520    -0.0081370
units angstrom
no_reorient  #important for SAPT in psi4, default
symmetry c1  #important for SAPT in psi4, default
}

set PROPERTIES_ORIGIN ["COM"]
properties('MP2/aug-cc-pvtz', properties = ['dipole'])
--------------------------------------------------------------------------

    Molecular point group: c1
  Charge       = 0
  Multiplicity = 1
  Basis Set: AUG-CC-PVTZ
    Blend: AUG-CC-PVTZ
  Basis Set: (AUG-CC-PVTZ AUX)
    Blend: AUG-CC-PVTZ-JKFIT

    Orbital Energies [Eh]
    ---------------------

    Doubly Occupied:

       1A    -91.966045     2A    -20.552406     3A    -11.361225
       4A    -11.262220     5A    -11.248369     6A    -11.229772
       7A    -11.221753     8A     -8.967805     9A     -6.649000
      10A     -6.647921    11A     -6.647258    12A     -1.381068
      13A     -1.089249    14A     -1.064165    15A     -0.978699
      16A     -0.893044    17A     -0.820756    18A     -0.727349
      19A     -0.658091    20A     -0.642765    21A     -0.630296
      22A     -0.628466    23A     -0.562733    24A     -0.553082
      25A     -0.538278    26A     -0.524397    27A     -0.513019
      28A     -0.509747    29A     -0.490921    30A     -0.459238
      31A     -0.407757    32A     -0.366278

  @DF-RHF Final Energy:  -667.67858895579730

   => Energetics <=

    Nuclear Repulsion Energy =            369.4969546502132403
    One-Electron Energy =               -1649.9647412194542540
    Two-Electron Energy =                 612.7891976134437755
    Total Energy =                       -667.6785889557972951
  Basis Set: (AUG-CC-PVTZ AUX)
    Blend: AUG-CC-PVTZ-RI
    Molecular point group: c1

    Geometry (in Angstrom), charge = 0, multiplicity = 1:

       Center              X                  Y                   Z               Mass
    ------------   -----------------  -----------------  -----------------  -----------------
         S            0.716025520106     0.803822750856    -0.005726474814    31.972071174400
         O           -0.761600479894    -1.388333249144     0.008353525186    15.994914619570
         C           -2.051297479894     0.656677750856     0.006815525186    12.000000000000
         C            1.933829020106    -0.542888649144    -0.001674274814    12.000000000000
         C           -0.787633679894    -0.152189949144     0.004022225186    12.000000000000
         C           -3.295086479894    -0.218513249144     0.005678525186    12.000000000000
         C            3.333778520106     0.014687750856    -0.010770474814    12.000000000000
         H           -2.028295479894     1.313407750856     0.884349525186     1.007825032230
         H           -2.030251479894     1.318679750856    -0.866761474814     1.007825032230
         H            1.745457520106    -1.166961249144     0.883599525186     1.007825032230
         H            1.738454520106    -1.178239249144    -0.877416474814     1.007825032230
         H           -3.314506479894    -0.864621249144     0.884663525186     1.007825032230
         H           -3.316738479894    -0.859268249144    -0.877256474814     1.007825032230
         H           -4.194380479894     0.401956750856     0.008587525186     1.007825032230
         H            3.511666520106     0.622463750856    -0.900863474814     1.007825032230
         H            3.518652520106     0.634105750856     0.869830525186     1.007825032230
         H            4.058217520106    -0.803857249144    -0.008122474814     1.007825032230

  Basis Set: AUG-CC-PVTZ
    Blend: AUG-CC-PVTZ
  Basis Set: (AUG-CC-PVTZ AUX)
    Blend: AUG-CC-PVTZ-JKFIT
	 Reference Energy          =    -667.6785889557972951 [Eh]
	 Singles Energy            =      -0.0000000000000000 [Eh]
	 Same-Spin Energy          =      -0.3340870928424161 [Eh]
	 Opposite-Spin Energy      =      -1.1084052299984117 [Eh]
	 Correlation Energy        =      -1.4424923228408280 [Eh]
	 Total Energy              =    -669.1210812786381439 [Eh]

	 ================> DF-SCS-MP2 Energies <==================
	-----------------------------------------------------------
	 SCS Same-Spin Scale       =       0.3333333333333333 [-]
	 SCS Opposite-Spin Scale   =       1.2000000000000000 [-]
	 SCS Same-Spin Energy      =      -0.1113623642808054 [Eh]
	 SCS Opposite-Spin Energy  =      -1.3300862759980940 [Eh]
	 SCS Correlation Energy    =      -1.4414486402788995 [Eh]
	 SCS Total Energy          =    -669.1200375960761448 [Eh]
	-----------------------------------------------------------

  Dipole Moment: [D]
     X:     0.3409      Y:     1.1081      Z:    -0.0010     Total:     1.1594

*** Psi4 exiting successfully. Buy a developer a beer!
