                               Psi4 1.3.2 release

  ==> Input File <==

--------------------------------------------------------------------------
#psi4
#
memory 32 gb

molecule  {
0 1
  S        0.7551394     0.8370988    -0.0868582
  O       -0.7612550    -1.3859280     0.0083390
  C       -2.0509520     0.6590830     0.0068010
  C        1.9223760    -0.5510590    -0.0015950
  C       -0.7788880    -0.1628700     0.0040570
  C       -3.2947410    -0.2161080     0.0056640
  C        3.3341240     0.0170930    -0.0107850
  H       -2.0279500     1.3158130     0.8843350
  H       -2.0299060     1.3210850    -0.8667760
  H        1.7890761    -1.1980556     0.8671551
  H        1.7388000    -1.1758340    -0.8774310
  H       -3.3141610    -0.8622160     0.8846490
  H       -3.3163930    -0.8568630    -0.8772710
  H       -4.1940350     0.4043620     0.0085730
  H        3.5120120     0.6248690    -0.9008780
  H        3.5189980     0.6365110     0.8698160
  H        4.0585630    -0.8014520    -0.0081370
units angstrom
no_reorient  #important for SAPT in psi4, default
symmetry c1  #important for SAPT in psi4, default
}

set PROPERTIES_ORIGIN ["COM"]
properties('MP2/aug-cc-pvtz', properties = ['dipole'])
--------------------------------------------------------------------------

    Molecular point group: c1
  Charge       = 0
  Multiplicity = 1
  Basis Set: AUG-CC-PVTZ
    Blend: AUG-CC-PVTZ
  Basis Set: (AUG-CC-PVTZ AUX)
    Blend: AUG-CC-PVTZ-JKFIT

    Orbital Energies [Eh]
    ---------------------

    Doubly Occupied:

       1A    -91.967050     2A    -20.559158     3A    -11.365156
       4A    -11.259500     5A    -11.249569     6A    -11.227647
       7A    -11.222289     8A     -8.967756     9A     -6.648879
      10A     -6.647769    11A     -6.647110    12A     -1.392755
      13A     -1.083811    14A     -1.061900    15A     -0.969610
      16A     -0.890807    17A     -0.819205    18A     -0.730760
      19A     -0.658146    20A     -0.641705    21A     -0.633926
      22A     -0.626012    23A     -0.561607    24A     -0.550186
      25A     -0.540057    26A     -0.523851    27A     -0.511472
      28A     -0.508763    29A     -0.494698    30A     -0.462473
      31A     -0.404248    32A     -0.366296

  @DF-RHF Final Energy:  -667.67718541649003

   => Energetics <=

    Nuclear Repulsion Energy =            367.9334603170169657
    One-Electron Energy =               -1646.8329494068591430
    Two-Electron Energy =                 611.2223036733520303
    Total Energy =                       -667.6771854164900333
  Basis Set: (AUG-CC-PVTZ AUX)
    Blend: AUG-CC-PVTZ-RI
    Molecular point group: c1

    Geometry (in Angstrom), charge = 0, multiplicity = 1:

       Center              X                  Y                   Z               Mass
    ------------   -----------------  -----------------  -----------------  -----------------
         S            0.744269665181     0.829023598375    -0.064747686512    31.972071174400
         O           -0.772124734819    -1.394003201625     0.030449513488    15.994914619570
         C           -2.061821734819     0.651007798375     0.028911513488    12.000000000000
         C            1.911506265181    -0.559134201625     0.020515513488    12.000000000000
         C           -0.789757734819    -0.170945201625     0.026167513488    12.000000000000
         C           -3.305610734819    -0.224183201625     0.027774513488    12.000000000000
         C            3.323254265181     0.009017798375     0.011325513488    12.000000000000
         H           -2.038819734819     1.307737798375     0.906445513488     1.007825032230
         H           -2.040775734819     1.313009798375    -0.844665486512     1.007825032230
         H            1.778206365181    -1.206130801625     0.889265613488     1.007825032230
         H            1.727930265181    -1.183909201625    -0.855320486512     1.007825032230
         H           -3.325030734819    -0.870291201625     0.906759513488     1.007825032230
         H           -3.327262734819    -0.864938201625    -0.855160486512     1.007825032230
         H           -4.204904734819     0.396286798375     0.030683513488     1.007825032230
         H            3.501142265181     0.616793798375    -0.878767486512     1.007825032230
         H            3.508128265181     0.628435798375     0.891926513488     1.007825032230
         H            4.047693265181    -0.809527201625     0.013973513488     1.007825032230

  Basis Set: AUG-CC-PVTZ
    Blend: AUG-CC-PVTZ
  Basis Set: (AUG-CC-PVTZ AUX)
    Blend: AUG-CC-PVTZ-JKFIT
	 Reference Energy          =    -667.6771854164900333 [Eh]
	 Singles Energy            =      -0.0000000000000000 [Eh]
	 Same-Spin Energy          =      -0.3336106548609045 [Eh]
	 Opposite-Spin Energy      =      -1.1084935151948552 [Eh]
	 Correlation Energy        =      -1.4421041700557597 [Eh]
	 Total Energy              =    -669.1192895865458468 [Eh]

	 ================> DF-SCS-MP2 Energies <==================
	-----------------------------------------------------------
	 SCS Same-Spin Scale       =       0.3333333333333333 [-]
	 SCS Opposite-Spin Scale   =       1.2000000000000000 [-]
	 SCS Same-Spin Energy      =      -0.1112035516203015 [Eh]
	 SCS Opposite-Spin Energy  =      -1.3301922182338262 [Eh]
	 SCS Correlation Energy    =      -1.4413957698541275 [Eh]
	 SCS Total Energy          =    -669.1185811863441586 [Eh]
	-----------------------------------------------------------

  Dipole Moment: [D]
     X:     0.0991      Y:     0.9743      Z:     0.0368     Total:     0.9800

*** Psi4 exiting successfully. Buy a developer a beer!
