                               Psi4 1.3.2 release

  ==> Input File <==

--------------------------------------------------------------------------
#psi4
#
memory 32 gb

molecule  {
0 1
  S        0.7163710     0.8062280    -0.0057410
  O       -0.7612550    -1.3859280     0.0083390
  C       -2.0509520     0.6590830     0.0068010
  C        1.9223760    -0.5510590    -0.0015950
  C       -0.7760049    -0.3628480     0.0047571
  C       -3.2947410    -0.2161080     0.0056640
  C        3.3341240     0.0170930    -0.0107850
  H       -2.0279500     1.3158130     0.8843350
  H       -2.0299060     1.3210850    -0.8667760
  H        1.7458030    -1.1645560     0.8835850
  H        1.7388000    -1.1758340    -0.8774310
  H       -3.3141610    -0.8622160     0.8846490
  H       -3.3163930    -0.8568630    -0.8772710
  H       -4.1940350     0.4043620     0.0085730
  H        3.5120120     0.6248690    -0.9008780
  H        3.5189980     0.6365110     0.8698160
  H        4.0585630    -0.8014520    -0.0081370
units angstrom
no_reorient  #important for SAPT in psi4, default
symmetry c1  #important for SAPT in psi4, default
}

set PROPERTIES_ORIGIN ["COM"]
properties('MP2/aug-cc-pvtz', properties = ['dipole'])
--------------------------------------------------------------------------

    Molecular point group: c1
  Charge       = 0
  Multiplicity = 1
  Basis Set: AUG-CC-PVTZ
    Blend: AUG-CC-PVTZ
  Basis Set: (AUG-CC-PVTZ AUX)
    Blend: AUG-CC-PVTZ-JKFIT

    Orbital Energies [Eh]
    ---------------------

    Doubly Occupied:

       1A    -91.938157     2A    -20.587383     3A    -11.349095
       4A    -11.251948     5A    -11.245530     6A    -11.221542
       7A    -11.221351     8A     -8.940088     9A     -6.621120
      10A     -6.620039    11A     -6.619279    12A     -1.563369
      13A     -1.069513    14A     -1.048128    15A     -0.952135
      16A     -0.872747    17A     -0.807870    18A     -0.758910
      19A     -0.713077    20A     -0.676538    21A     -0.657747
      22A     -0.622054    23A     -0.603001    24A     -0.568178
      25A     -0.545810    26A     -0.530368    27A     -0.520192
      28A     -0.507472    29A     -0.503807    30A     -0.446248
      31A     -0.357491    32A     -0.350385

  @DF-RHF Final Energy:  -667.61180730342244

   => Energetics <=

    Nuclear Repulsion Energy =            370.9173105141393876
    One-Electron Energy =               -1652.4770908309146762
    Two-Electron Energy =                 613.9479730133527937
    Total Energy =                       -667.6118073034224381
  Basis Set: (AUG-CC-PVTZ AUX)
    Blend: AUG-CC-PVTZ-RI
    Molecular point group: c1

    Geometry (in Angstrom), charge = 0, multiplicity = 1:

       Center              X                  Y                   Z               Mass
    ------------   -----------------  -----------------  -----------------  -----------------
         S            0.716077893248     0.826556974517    -0.005812191107    31.972071174400
         O           -0.761548106752    -1.365599025483     0.008267808893    15.994914619570
         C           -2.051245106752     0.679411974517     0.006729808893    12.000000000000
         C            1.922082893248    -0.530730025483    -0.001666191107    12.000000000000
         C           -0.776298006752    -0.342519025483     0.004685908893    12.000000000000
         C           -3.295034106752    -0.195779025483     0.005592808893    12.000000000000
         C            3.333830893248     0.037421974517    -0.010856191107    12.000000000000
         H           -2.028243106752     1.336141974517     0.884263808893     1.007825032230
         H           -2.030199106752     1.341413974517    -0.866847191107     1.007825032230
         H            1.745509893248    -1.144227025483     0.883513808893     1.007825032230
         H            1.738506893248    -1.155505025483    -0.877502191107     1.007825032230
         H           -3.314454106752    -0.841887025483     0.884577808893     1.007825032230
         H           -3.316686106752    -0.836534025483    -0.877342191107     1.007825032230
         H           -4.194328106752     0.424690974517     0.008501808893     1.007825032230
         H            3.511718893248     0.645197974517    -0.900949191107     1.007825032230
         H            3.518704893248     0.656839974517     0.869744808893     1.007825032230
         H            4.058269893248    -0.781123025483    -0.008208191107     1.007825032230

  Basis Set: AUG-CC-PVTZ
    Blend: AUG-CC-PVTZ
  Basis Set: (AUG-CC-PVTZ AUX)
    Blend: AUG-CC-PVTZ-JKFIT
	 Reference Energy          =    -667.6118073034224381 [Eh]
	 Singles Energy            =      -0.0000000000000000 [Eh]
	 Same-Spin Energy          =      -0.3293578157424664 [Eh]
	 Opposite-Spin Energy      =      -1.0993020946819163 [Eh]
	 Correlation Energy        =      -1.4286599104243827 [Eh]
	 Total Energy              =    -669.0404672138467959 [Eh]

	 ================> DF-SCS-MP2 Energies <==================
	-----------------------------------------------------------
	 SCS Same-Spin Scale       =       0.3333333333333333 [-]
	 SCS Opposite-Spin Scale   =       1.2000000000000000 [-]
	 SCS Same-Spin Energy      =      -0.1097859385808221 [Eh]
	 SCS Opposite-Spin Energy  =      -1.3191625136182996 [Eh]
	 SCS Correlation Energy    =      -1.4289484521991218 [Eh]
	 SCS Total Energy          =    -669.0407557556216034 [Eh]
	-----------------------------------------------------------

  Dipole Moment: [D]
     X:    -0.5253      Y:    -0.1702      Z:     0.0067     Total:     0.5522

*** Psi4 exiting successfully. Buy a developer a beer!
