                               Psi4 1.4a3.dev225

  ==> Input File <==

--------------------------------------------------------------------------
#psi4
#
memory 32 gb

molecule  {
0 1
  S       -0.7336830    -0.7988290    -0.0000010
  O        0.7842810     1.3701820    -0.0000010
  C        2.0392260    -0.6993310     0.0000000
  C       -1.9177210     0.5806550    -0.0000020
  C        0.7394189     0.1742035    -0.0000010
  C        3.3000750     0.1543340     0.0000020
  C       -3.3406260     0.0364320     0.0000030
  H        2.0053990    -1.3579180     0.8761960
  H        2.0054010    -1.3579160    -0.8761980
  H       -1.7269280     1.1964810     0.8811220
  H       -1.7269330     1.1964770    -0.8811310
  H        3.3326310     0.7974220     0.8814170
  H        3.3326220     0.7974380    -0.8814010
  H        4.1880090    -0.4829760    -0.0000080
  H       -3.5331250    -0.5739300    -0.8857830
  H       -3.5331200    -0.5739250     0.8857940
  H       -4.0504940     0.8682350     0.0000030
units angstrom
no_reorient  #important for SAPT in psi4, default
symmetry c1  #important for SAPT in psi4, default
}

set PROPERTIES_ORIGIN ["COM"]
properties('MP2/aug-cc-pvtz', properties = ['dipole'])
--------------------------------------------------------------------------

    Molecular point group: c1
  Charge       = 0
  Multiplicity = 1
  Basis Set: AUG-CC-PVTZ
    Blend: AUG-CC-PVTZ
  Basis Set: (AUG-CC-PVTZ AUX)
    Blend: AUG-CC-PVTZ-JKFIT

    Orbital Energies [Eh]
    ---------------------

    Doubly Occupied:

       1A    -91.966550     2A    -20.555319     3A    -11.356617
       4A    -11.262616     5A    -11.246035     6A    -11.230903
       7A    -11.219164     8A     -8.968698     9A     -6.649913
      10A     -6.648708    11A     -6.648052    12A     -1.407732
      13A     -1.087977    14A     -1.051860    15A     -0.979128
      16A     -0.883853    17A     -0.821863    18A     -0.726809
      19A     -0.659343    20A     -0.640370    21A     -0.636829
      22A     -0.626539    23A     -0.561811    24A     -0.550379
      25A     -0.547177    26A     -0.523197    27A     -0.512782
      28A     -0.511875    29A     -0.495721    30A     -0.459486
      31A     -0.401700    32A     -0.369594

  @DF-RHF Final Energy:  -667.68068986109813

   => Energetics <=

    Nuclear Repulsion Energy =            369.5398389222256696
    One-Electron Energy =               -1650.0238599139843245
    Two-Electron Energy =                 612.8033311306604674
    Total Energy =                       -667.6806898610981307
  Basis Set: (AUG-CC-PVTZ AUX)
    Blend: AUG-CC-PVTZ-RI
    Molecular point group: c1

    Geometry (in Angstrom), charge = 0, multiplicity = 1:

       Center              X                  Y                   Z               Mass
    ------------   -----------------  -----------------  -----------------  -----------------
         S           -0.727137845460    -0.797512745583    -0.000000890882    31.972071174400
         O            0.790826154540     1.371498254417    -0.000000890882    15.994914619570
         C            2.045771154540    -0.698014745583     0.000000109118    12.000000000000
         C           -1.911175845460     0.581971254417    -0.000001890882    12.000000000000
         C            0.745964054540     0.175519754417    -0.000000890882    12.000000000000
         C            3.306620154540     0.155650254417     0.000002109118    12.000000000000
         C           -3.334080845460     0.037748254417     0.000003109118    12.000000000000
         H            2.011944154540    -1.356601745583     0.876196109118     1.007825032230
         H            2.011946154540    -1.356599745583    -0.876197890882     1.007825032230
         H           -1.720382845460     1.197797254417     0.881122109118     1.007825032230
         H           -1.720387845460     1.197793254417    -0.881130890882     1.007825032230
         H            3.339176154540     0.798738254417     0.881417109118     1.007825032230
         H            3.339167154540     0.798754254417    -0.881400890882     1.007825032230
         H            4.194554154540    -0.481659745583    -0.000007890882     1.007825032230
         H           -3.526579845460    -0.572613745583    -0.885782890882     1.007825032230
         H           -3.526574845460    -0.572608745583     0.885794109118     1.007825032230
         H           -4.043948845460     0.869551254417     0.000003109118     1.007825032230

  Basis Set: AUG-CC-PVTZ
    Blend: AUG-CC-PVTZ
  Basis Set: (AUG-CC-PVTZ AUX)
    Blend: AUG-CC-PVTZ-JKFIT
	 Reference Energy          =    -667.6806898610981307 [Eh]
	 Singles Energy            =      -0.0000000000000000 [Eh]
	 Same-Spin Energy          =      -0.3328571970079192 [Eh]
	 Opposite-Spin Energy      =      -1.1063885606244248 [Eh]
	 Correlation Energy        =      -1.4392457576323441 [Eh]
	 Total Energy              =    -669.1199356187304375 [Eh]

	 ================> DF-SCS-MP2 Energies <==================
	-----------------------------------------------------------
	 SCS Same-Spin Scale       =       0.3333333333333333 [-]
	 SCS Opposite-Spin Scale   =       1.2000000000000000 [-]
	 SCS Same-Spin Energy      =      -0.1109523990026397 [Eh]
	 SCS Opposite-Spin Energy  =      -1.3276662727493098 [Eh]
	 SCS Correlation Energy    =      -1.4386186717519496 [Eh]
	 SCS Total Energy          =    -669.1193085328500274 [Eh]
	-----------------------------------------------------------

  Dipole Moment: [D]
     X:    -0.5825      Y:    -0.9747      Z:     0.0000     Total:     1.1355

*** Psi4 exiting successfully. Buy a developer a beer!
