                               Psi4 1.3.2 release

  ==> Input File <==

--------------------------------------------------------------------------
#psi4
#
memory 32 gb

molecule  {
0 1
  S        0.7163710     0.8062280    -0.0057410
  O       -0.7612550    -1.3859280     0.0083390
  C       -2.0509520     0.6590830     0.0068010
  C        2.0552194    -0.7005663    -0.0011383
  C       -0.7788880    -0.1628700     0.0040570
  C       -3.2947410    -0.2161080     0.0056640
  C        3.3341240     0.0170930    -0.0107850
  H       -2.0279500     1.3158130     0.8843350
  H       -2.0299060     1.3210850    -0.8667760
  H        1.7458030    -1.1645560     0.8835850
  H        1.7388000    -1.1758340    -0.8774310
  H       -3.3141610    -0.8622160     0.8846490
  H       -3.3163930    -0.8568630    -0.8772710
  H       -4.1940350     0.4043620     0.0085730
  H        3.5120120     0.6248690    -0.9008780
  H        3.5189980     0.6365110     0.8698160
  H        4.0585630    -0.8014520    -0.0081370
units angstrom
no_reorient  #important for SAPT in psi4, default
symmetry c1  #important for SAPT in psi4, default
}

set PROPERTIES_ORIGIN ["COM"]
properties('MP2/aug-cc-pvtz', properties = ['dipole'])
--------------------------------------------------------------------------

    Molecular point group: c1
  Charge       = 0
  Multiplicity = 1
  Basis Set: AUG-CC-PVTZ
    Blend: AUG-CC-PVTZ
  Basis Set: (AUG-CC-PVTZ AUX)
    Blend: AUG-CC-PVTZ-JKFIT

    Orbital Energies [Eh]
    ---------------------

    Doubly Occupied:

       1A    -91.953819     2A    -20.547931     3A    -11.354790
       4A    -11.274458     5A    -11.242941     6A    -11.234312
       7A    -11.217663     8A     -8.954631     9A     -6.635645
      10A     -6.634475    11A     -6.633958    12A     -1.384976
      13A     -1.082164    14A     -1.060854    15A     -0.974175
      16A     -0.884670    17A     -0.835726    18A     -0.722125
      19A     -0.659675    20A     -0.647266    21A     -0.632874
      22A     -0.624131    23A     -0.582055    24A     -0.557564
      25A     -0.539176    26A     -0.530597    27A     -0.523627
      28A     -0.512591    29A     -0.491680    30A     -0.410213
      31A     -0.399492    32A     -0.362869

  @DF-RHF Final Energy:  -667.66024296291914

   => Energetics <=

    Nuclear Repulsion Energy =            366.6215071762523507
    One-Electron Energy =               -1644.3572585771607919
    Two-Electron Energy =                 610.0755084379892423
    Total Energy =                       -667.6602429629191420
  Basis Set: (AUG-CC-PVTZ AUX)
    Blend: AUG-CC-PVTZ-RI
    Molecular point group: c1

    Geometry (in Angstrom), charge = 0, multiplicity = 1:

       Center              X                  Y                   Z               Mass
    ------------   -----------------  -----------------  -----------------  -----------------
         S            0.702866656173     0.821426327827    -0.005787448050    31.972071174400
         O           -0.774759343827    -1.370729672173     0.008292551950    15.994914619570
         C           -2.064456343827     0.674281327827     0.006754551950    12.000000000000
         C            2.041715056173    -0.685367972173    -0.001184748050    12.000000000000
         C           -0.792392343827    -0.147671672173     0.004010551950    12.000000000000
         C           -3.308245343827    -0.200909672173     0.005617551950    12.000000000000
         C            3.320619656173     0.032291327827    -0.010831448050    12.000000000000
         H           -2.041454343827     1.331011327827     0.884288551950     1.007825032230
         H           -2.043410343827     1.336283327827    -0.866822448050     1.007825032230
         H            1.732298656173    -1.149357672173     0.883538551950     1.007825032230
         H            1.725295656173    -1.160635672173    -0.877477448050     1.007825032230
         H           -3.327665343827    -0.847017672173     0.884602551950     1.007825032230
         H           -3.329897343827    -0.841664672173    -0.877317448050     1.007825032230
         H           -4.207539343827     0.419560327827     0.008526551950     1.007825032230
         H            3.498507656173     0.640067327827    -0.900924448050     1.007825032230
         H            3.505493656173     0.651709327827     0.869769551950     1.007825032230
         H            4.045058656173    -0.786253672173    -0.008183448050     1.007825032230

  Basis Set: AUG-CC-PVTZ
    Blend: AUG-CC-PVTZ
  Basis Set: (AUG-CC-PVTZ AUX)
    Blend: AUG-CC-PVTZ-JKFIT
	 Reference Energy          =    -667.6602429629191420 [Eh]
	 Singles Energy            =      -0.0000000000000000 [Eh]
	 Same-Spin Energy          =      -0.3336345562153206 [Eh]
	 Opposite-Spin Energy      =      -1.1081726364625575 [Eh]
	 Correlation Energy        =      -1.4418071926778782 [Eh]
	 Total Energy              =    -669.1020501555969986 [Eh]

	 ================> DF-SCS-MP2 Energies <==================
	-----------------------------------------------------------
	 SCS Same-Spin Scale       =       0.3333333333333333 [-]
	 SCS Opposite-Spin Scale   =       1.2000000000000000 [-]
	 SCS Same-Spin Energy      =      -0.1112115187384402 [Eh]
	 SCS Opposite-Spin Energy  =      -1.3298071637550690 [Eh]
	 SCS Correlation Energy    =      -1.4410186824935092 [Eh]
	 SCS Total Energy          =    -669.1012616454127055 [Eh]
	-----------------------------------------------------------

  Dipole Moment: [D]
     X:     0.8039      Y:     0.8852      Z:    -0.0012     Total:     1.1957

*** Psi4 exiting successfully. Buy a developer a beer!
