                               Psi4 1.3.2 release

  ==> Input File <==

--------------------------------------------------------------------------
#psi4
#
memory 32 gb

molecule  {
0 1
  S        0.7163710     0.8062280    -0.0057410
  O       -0.7612550    -1.3859280     0.0083390
  C       -2.0509520     0.6590830     0.0068010
  C        1.7895326    -0.4015517    -0.0020517
  C       -0.7788880    -0.1628700     0.0040570
  C       -3.2947410    -0.2161080     0.0056640
  C        3.3341240     0.0170930    -0.0107850
  H       -2.0279500     1.3158130     0.8843350
  H       -2.0299060     1.3210850    -0.8667760
  H        1.7458030    -1.1645560     0.8835850
  H        1.7388000    -1.1758340    -0.8774310
  H       -3.3141610    -0.8622160     0.8846490
  H       -3.3163930    -0.8568630    -0.8772710
  H       -4.1940350     0.4043620     0.0085730
  H        3.5120120     0.6248690    -0.9008780
  H        3.5189980     0.6365110     0.8698160
  H        4.0585630    -0.8014520    -0.0081370
units angstrom
no_reorient  #important for SAPT in psi4, default
symmetry c1  #important for SAPT in psi4, default
}

set PROPERTIES_ORIGIN ["COM"]
properties('MP2/aug-cc-pvtz', properties = ['dipole'])
--------------------------------------------------------------------------

    Molecular point group: c1
  Charge       = 0
  Multiplicity = 1
  Basis Set: AUG-CC-PVTZ
    Blend: AUG-CC-PVTZ
  Basis Set: (AUG-CC-PVTZ AUX)
    Blend: AUG-CC-PVTZ-JKFIT

    Orbital Energies [Eh]
    ---------------------

    Doubly Occupied:

       1A    -91.966902     2A    -20.557655     3A    -11.361335
       4A    -11.261759     5A    -11.249978     6A    -11.234947
       7A    -11.222657     8A     -8.972666     9A     -6.654311
      10A     -6.652834    11A     -6.651901    12A     -1.393262
      13A     -1.113931    14A     -1.063848    15A     -0.972163
      16A     -0.899200    17A     -0.807139    18A     -0.729758
      19A     -0.672249    20A     -0.642522    21A     -0.638386
      22A     -0.611898    23A     -0.562648    24A     -0.549349
      25A     -0.543193    26A     -0.521358    27A     -0.510987
      28A     -0.505360    29A     -0.489311    30A     -0.472962
      31A     -0.407391    32A     -0.357702

  @DF-RHF Final Energy:  -667.64121739522443

   => Energetics <=

    Nuclear Repulsion Energy =            372.9636996933141972
    One-Electron Energy =               -1656.7067112402746716
    Two-Electron Energy =                 616.1017941517361578
    Total Energy =                       -667.6412173952244302
  Basis Set: (AUG-CC-PVTZ AUX)
    Blend: AUG-CC-PVTZ-RI
    Molecular point group: c1

    Geometry (in Angstrom), charge = 0, multiplicity = 1:

       Center              X                  Y                   Z               Mass
    ------------   -----------------  -----------------  -----------------  -----------------
         S            0.729875298833     0.791029716171    -0.005694595510    31.972071174400
         O           -0.747750701167    -1.401126283829     0.008385404490    15.994914619570
         C           -2.037447701167     0.643884716171     0.006847404490    12.000000000000
         C            1.803036898833    -0.416749983829    -0.002005295510    12.000000000000
         C           -0.765383701167    -0.178068283829     0.004103404490    12.000000000000
         C           -3.281236701167    -0.231306283829     0.005710404490    12.000000000000
         C            3.347628298833     0.001894716171    -0.010738595510    12.000000000000
         H           -2.014445701167     1.300614716171     0.884381404490     1.007825032230
         H           -2.016401701167     1.305886716171    -0.866729595510     1.007825032230
         H            1.759307298833    -1.179754283829     0.883631404490     1.007825032230
         H            1.752304298833    -1.191032283829    -0.877384595510     1.007825032230
         H           -3.300656701167    -0.877414283829     0.884695404490     1.007825032230
         H           -3.302888701167    -0.872061283829    -0.877224595510     1.007825032230
         H           -4.180530701167     0.389163716171     0.008619404490     1.007825032230
         H            3.525516298833     0.609670716171    -0.900831595510     1.007825032230
         H            3.532502298833     0.621312716171     0.869862404490     1.007825032230
         H            4.072067298833    -0.816650283829    -0.008090595510     1.007825032230

  Basis Set: AUG-CC-PVTZ
    Blend: AUG-CC-PVTZ
  Basis Set: (AUG-CC-PVTZ AUX)
    Blend: AUG-CC-PVTZ-JKFIT
	 Reference Energy          =    -667.6412173952244302 [Eh]
	 Singles Energy            =      -0.0000000000000000 [Eh]
	 Same-Spin Energy          =      -0.3363359802691112 [Eh]
	 Opposite-Spin Energy      =      -1.1111263396645201 [Eh]
	 Correlation Energy        =      -1.4474623199336314 [Eh]
	 Total Energy              =    -669.0886797151580367 [Eh]

	 ================> DF-SCS-MP2 Energies <==================
	-----------------------------------------------------------
	 SCS Same-Spin Scale       =       0.3333333333333333 [-]
	 SCS Opposite-Spin Scale   =       1.2000000000000000 [-]
	 SCS Same-Spin Energy      =      -0.1121119934230370 [Eh]
	 SCS Opposite-Spin Energy  =      -1.3333516075974241 [Eh]
	 SCS Correlation Energy    =      -1.4454636010204611 [Eh]
	 SCS Total Energy          =    -669.0866809962449224 [Eh]
	-----------------------------------------------------------

  Dipole Moment: [D]
     X:     0.1252      Y:     1.1923      Z:    -0.0012     Total:     1.1989

*** Psi4 exiting successfully. Buy a developer a beer!
