                               Psi4 1.3.2 release

  ==> Input File <==

--------------------------------------------------------------------------
#psi4
#
memory 32 gb

molecule  {
0 1
  S        0.7163710     0.8062280    -0.0057410
  O       -0.7612550    -1.3859280     0.0083390
  C       -2.0509520     0.6590830     0.0068010
  C        1.9887977    -0.6258127    -0.0013667
  C       -0.7788880    -0.1628700     0.0040570
  C       -3.2947410    -0.2161080     0.0056640
  C        3.3341240     0.0170930    -0.0107850
  H       -2.0279500     1.3158130     0.8843350
  H       -2.0299060     1.3210850    -0.8667760
  H        1.7458030    -1.1645560     0.8835850
  H        1.7388000    -1.1758340    -0.8774310
  H       -3.3141610    -0.8622160     0.8846490
  H       -3.3163930    -0.8568630    -0.8772710
  H       -4.1940350     0.4043620     0.0085730
  H        3.5120120     0.6248690    -0.9008780
  H        3.5189980     0.6365110     0.8698160
  H        4.0585630    -0.8014520    -0.0081370
units angstrom
no_reorient  #important for SAPT in psi4, default
symmetry c1  #important for SAPT in psi4, default
}

set PROPERTIES_ORIGIN ["COM"]
properties('MP2/aug-cc-pvtz', properties = ['dipole'])
--------------------------------------------------------------------------

    Molecular point group: c1
  Charge       = 0
  Multiplicity = 1
  Basis Set: AUG-CC-PVTZ
    Blend: AUG-CC-PVTZ
  Basis Set: (AUG-CC-PVTZ AUX)
    Blend: AUG-CC-PVTZ-JKFIT

    Orbital Energies [Eh]
    ---------------------

    Doubly Occupied:

       1A    -91.960797     2A    -20.551094     3A    -11.357708
       4A    -11.265988     5A    -11.245691     6A    -11.231113
       7A    -11.219641     8A     -8.961850     9A     -6.642946
      10A     -6.641799    11A     -6.641238    12A     -1.387817
      13A     -1.082644    14A     -1.060959    15A     -0.976610
      16A     -0.887373    17A     -0.829100    18A     -0.725127
      19A     -0.652609    20A     -0.648194    21A     -0.633672
      22A     -0.628547    23A     -0.566678    24A     -0.556303
      25A     -0.539652    26A     -0.528925    27A     -0.517848
      28A     -0.514141    29A     -0.493309    30A     -0.435299
      31A     -0.403376    32A     -0.366126

  @DF-RHF Final Energy:  -667.67561643348779

   => Energetics <=

    Nuclear Repulsion Energy =            368.0726933475390865
    One-Electron Energy =               -1647.1882744323261250
    Two-Electron Energy =                 611.4399646512991922
    Total Energy =                       -667.6756164334877894
  Basis Set: (AUG-CC-PVTZ AUX)
    Blend: AUG-CC-PVTZ-RI
    Molecular point group: c1

    Geometry (in Angstrom), charge = 0, multiplicity = 1:

       Center              X                  Y                   Z               Mass
    ------------   -----------------  -----------------  -----------------  -----------------
         S            0.709618816838     0.813827179996    -0.005764229832    31.972071174400
         O           -0.768007183162    -1.378328820004     0.008315770168    15.994914619570
         C           -2.057704183162     0.666682179996     0.006777770168    12.000000000000
         C            1.982045516838    -0.618213520004    -0.001389929832    12.000000000000
         C           -0.785640183162    -0.155270820004     0.004033770168    12.000000000000
         C           -3.301493183162    -0.208508820004     0.005640770168    12.000000000000
         C            3.327371816838     0.024692179996    -0.010808229832    12.000000000000
         H           -2.034702183162     1.323412179996     0.884311770168     1.007825032230
         H           -2.036658183162     1.328684179996    -0.866799229832     1.007825032230
         H            1.739050816838    -1.156956820004     0.883561770168     1.007825032230
         H            1.732047816838    -1.168234820004    -0.877454229832     1.007825032230
         H           -3.320913183162    -0.854616820004     0.884625770168     1.007825032230
         H           -3.323145183162    -0.849263820004    -0.877294229832     1.007825032230
         H           -4.200787183162     0.411961179996     0.008549770168     1.007825032230
         H            3.505259816838     0.632468179996    -0.900901229832     1.007825032230
         H            3.512245816838     0.644110179996     0.869792770168     1.007825032230
         H            4.051810816838    -0.793852820004    -0.008160229832     1.007825032230

  Basis Set: AUG-CC-PVTZ
    Blend: AUG-CC-PVTZ
  Basis Set: (AUG-CC-PVTZ AUX)
    Blend: AUG-CC-PVTZ-JKFIT
	 Reference Energy          =    -667.6756164334877894 [Eh]
	 Singles Energy            =      -0.0000000000000000 [Eh]
	 Same-Spin Energy          =      -0.3333764385198486 [Eh]
	 Opposite-Spin Energy      =      -1.1075217308108085 [Eh]
	 Correlation Energy        =      -1.4408981693306571 [Eh]
	 Total Energy              =    -669.1165146028184836 [Eh]

	 ================> DF-SCS-MP2 Energies <==================
	-----------------------------------------------------------
	 SCS Same-Spin Scale       =       0.3333333333333333 [-]
	 SCS Opposite-Spin Scale   =       1.2000000000000000 [-]
	 SCS Same-Spin Energy      =      -0.1111254795066162 [Eh]
	 SCS Opposite-Spin Energy  =      -1.3290260769729703 [Eh]
	 SCS Correlation Energy    =      -1.4401515564795864 [Eh]
	 SCS Total Energy          =    -669.1157679899673667 [Eh]
	-----------------------------------------------------------

  Dipole Moment: [D]
     X:     0.5551      Y:     0.9774      Z:    -0.0010     Total:     1.1241

*** Psi4 exiting successfully. Buy a developer a beer!
