                               Psi4 1.3.2 release

  ==> Input File <==

--------------------------------------------------------------------------
#psi4
#
memory 32 gb

molecule  {
0 1
  S        0.6992298     0.8321766    -0.0057545
  O       -0.7612550    -1.3859280     0.0083390
  C       -2.0364136     0.6811583     0.0066628
  C        1.9223760    -0.5510590    -0.0015950
  C       -0.7788880    -0.1628700     0.0040570
  C       -3.2947410    -0.2161080     0.0056640
  C        3.3341240     0.0170930    -0.0107850
  H       -2.0279500     1.3158130     0.8843350
  H       -2.0299060     1.3210850    -0.8667760
  H        1.7458030    -1.1645560     0.8835850
  H        1.7388000    -1.1758340    -0.8774310
  H       -3.3141610    -0.8622160     0.8846490
  H       -3.3163930    -0.8568630    -0.8772710
  H       -4.1940350     0.4043620     0.0085730
  H        3.5120120     0.6248690    -0.9008780
  H        3.5189980     0.6365110     0.8698160
  H        4.0585630    -0.8014520    -0.0081370
units angstrom
no_reorient  #important for SAPT in psi4, default
symmetry c1  #important for SAPT in psi4, default
}

set PROPERTIES_ORIGIN ["COM"]
properties('MP2/aug-cc-pvtz', properties = ['dipole'])
--------------------------------------------------------------------------

    Molecular point group: c1
  Charge       = 0
  Multiplicity = 1
  Basis Set: AUG-CC-PVTZ
    Blend: AUG-CC-PVTZ
  Basis Set: (AUG-CC-PVTZ AUX)
    Blend: AUG-CC-PVTZ-JKFIT

    Orbital Energies [Eh]
    ---------------------

    Doubly Occupied:

       1A    -91.966183     2A    -20.554978     3A    -11.360373
       4A    -11.263625     5A    -11.245994     6A    -11.229658
       7A    -11.221725     8A     -8.967583     9A     -6.648748
      10A     -6.647583    11A     -6.646977    12A     -1.390223
      13A     -1.084169    14A     -1.057745    15A     -0.976257
      16A     -0.889336    17A     -0.822435    18A     -0.728788
      19A     -0.655663    20A     -0.643535    21A     -0.632638
      22A     -0.628283    23A     -0.561810    24A     -0.547395
      25A     -0.540319    26A     -0.523729    27A     -0.512107
      28A     -0.509081    29A     -0.497509    30A     -0.455340
      31A     -0.406328    32A     -0.368343

  @DF-RHF Final Energy:  -667.67929165785927

   => Energetics <=

    Nuclear Repulsion Energy =            368.7955312987128309
    One-Electron Energy =               -1648.5807262086400442
    Two-Electron Energy =                 612.1059032520679466
    Total Energy =                       -667.6792916578592667
  Basis Set: (AUG-CC-PVTZ AUX)
    Blend: AUG-CC-PVTZ-RI
    Molecular point group: c1

    Geometry (in Angstrom), charge = 0, multiplicity = 1:

       Center              X                  Y                   Z               Mass
    ------------   -----------------  -----------------  -----------------  -----------------
         S            0.702394486886     0.822904463951    -0.005736816509    31.972071174400
         O           -0.758090313114    -1.395200136049     0.008356683491    15.994914619570
         C           -2.033248913114     0.671886163951     0.006680483491    12.000000000000
         C            1.925540686886    -0.560331136049    -0.001577316509    12.000000000000
         C           -0.775723313114    -0.172142136049     0.004074683491    12.000000000000
         C           -3.291576313114    -0.225380136049     0.005681683491    12.000000000000
         C            3.337288686886     0.007820863951    -0.010767316509    12.000000000000
         H           -2.024785313114     1.306540863951     0.884352683491     1.007825032230
         H           -2.026741313114     1.311812863951    -0.866758316509     1.007825032230
         H            1.748967686886    -1.173828136049     0.883602683491     1.007825032230
         H            1.741964686886    -1.185106136049    -0.877413316509     1.007825032230
         H           -3.310996313114    -0.871488136049     0.884666683491     1.007825032230
         H           -3.313228313114    -0.866135136049    -0.877253316509     1.007825032230
         H           -4.190870313114     0.395089863951     0.008590683491     1.007825032230
         H            3.515176686886     0.615596863951    -0.900860316509     1.007825032230
         H            3.522162686886     0.627238863951     0.869833683491     1.007825032230
         H            4.061727686886    -0.810724136049    -0.008119316509     1.007825032230

  Basis Set: AUG-CC-PVTZ
    Blend: AUG-CC-PVTZ
  Basis Set: (AUG-CC-PVTZ AUX)
    Blend: AUG-CC-PVTZ-JKFIT
	 Reference Energy          =    -667.6792916578592667 [Eh]
	 Singles Energy            =      -0.0000000000000000 [Eh]
	 Same-Spin Energy          =      -0.3334293487398767 [Eh]
	 Opposite-Spin Energy      =      -1.1078823273426965 [Eh]
	 Correlation Energy        =      -1.4413116760825733 [Eh]
	 Total Energy              =    -669.1206033339418582 [Eh]

	 ================> DF-SCS-MP2 Energies <==================
	-----------------------------------------------------------
	 SCS Same-Spin Scale       =       0.3333333333333333 [-]
	 SCS Opposite-Spin Scale   =       1.2000000000000000 [-]
	 SCS Same-Spin Energy      =      -0.1111431162466256 [Eh]
	 SCS Opposite-Spin Energy  =      -1.3294587928112358 [Eh]
	 SCS Correlation Energy    =      -1.4406019090578615 [Eh]
	 SCS Total Energy          =    -669.1198935669170851 [Eh]
	-----------------------------------------------------------

  Dipole Moment: [D]
     X:     0.3673      Y:     1.0610      Z:    -0.0010     Total:     1.1227

*** Psi4 exiting successfully. Buy a developer a beer!
