                               Psi4 1.3.2 release

  ==> Input File <==

--------------------------------------------------------------------------
#psi4
#
memory 32 gb

molecule  {
0 1
  S        0.7163710     0.8062280    -0.0057410
  O       -0.7612550    -1.3859280     0.0083390
  C       -2.0509520     0.6590830     0.0068010
  C        1.9223760    -0.5510590    -0.0015950
  C       -0.7788880    -0.1628700     0.0040570
  C       -3.2947410    -0.2161080     0.0056640
  C        3.1485889    -0.0575748    -0.0095772
  H       -2.0279500     1.3158130     0.8843350
  H       -2.0299060     1.3210850    -0.8667760
  H        1.7458030    -1.1645560     0.8835850
  H        1.7388000    -1.1758340    -0.8774310
  H       -3.3141610    -0.8622160     0.8846490
  H       -3.3163930    -0.8568630    -0.8772710
  H       -4.1940350     0.4043620     0.0085730
  H        3.5120120     0.6248690    -0.9008780
  H        3.5189980     0.6365110     0.8698160
  H        4.0585630    -0.8014520    -0.0081370
units angstrom
no_reorient  #important for SAPT in psi4, default
symmetry c1  #important for SAPT in psi4, default
}

set PROPERTIES_ORIGIN ["COM"]
properties('MP2/aug-cc-pvtz', properties = ['dipole'])
--------------------------------------------------------------------------

    Molecular point group: c1
  Charge       = 0
  Multiplicity = 1
  Basis Set: AUG-CC-PVTZ
    Blend: AUG-CC-PVTZ
  Basis Set: (AUG-CC-PVTZ AUX)
    Blend: AUG-CC-PVTZ-JKFIT

    Orbital Energies [Eh]
    ---------------------

    Doubly Occupied:

       1A    -91.967085     2A    -20.554948     3A    -11.361154
       4A    -11.252436     5A    -11.248742     6A    -11.241873
       7A    -11.221846     8A     -8.969195     9A     -6.650351
      10A     -6.649177    11A     -6.648484    12A     -1.391397
      13A     -1.121775    14A     -1.067982    15A     -0.985582
      16A     -0.886477    17A     -0.811247    18A     -0.731043
      19A     -0.666222    20A     -0.649843    21A     -0.636096
      22A     -0.635002    23A     -0.596415    24A     -0.543440
      25A     -0.538064    26A     -0.533691    27A     -0.517647
      28A     -0.497789    29A     -0.464253    30A     -0.440079
      31A     -0.407191    32A     -0.369532

  @DF-RHF Final Energy:  -667.63015696997184

   => Energetics <=

    Nuclear Repulsion Energy =            372.9771745041032887
    One-Electron Energy =               -1656.7025451315578266
    Two-Electron Energy =                 616.0952136574827591
    Total Energy =                       -667.6301569699718357
  Basis Set: (AUG-CC-PVTZ AUX)
    Blend: AUG-CC-PVTZ-RI
    Molecular point group: c1

    Geometry (in Angstrom), charge = 0, multiplicity = 1:

       Center              X                  Y                   Z               Mass
    ------------   -----------------  -----------------  -----------------  -----------------
         S            0.735231723377     0.813818447750    -0.005863801830    31.972071174400
         O           -0.742394276623    -1.378337552250     0.008216198170    15.994914619570
         C           -2.032091276623     0.666673447750     0.006678198170    12.000000000000
         C            1.941236723377    -0.543468552250    -0.001717801830    12.000000000000
         C           -0.760027276623    -0.155279552250     0.003934198170    12.000000000000
         C           -3.275880276623    -0.208517552250     0.005541198170    12.000000000000
         C            3.167449623377    -0.049984352250    -0.009700001830    12.000000000000
         H           -2.009089276623     1.323403447750     0.884212198170     1.007825032230
         H           -2.011045276623     1.328675447750    -0.866898801830     1.007825032230
         H            1.764663723377    -1.156965552250     0.883462198170     1.007825032230
         H            1.757660723377    -1.168243552250    -0.877553801830     1.007825032230
         H           -3.295300276623    -0.854625552250     0.884526198170     1.007825032230
         H           -3.297532276623    -0.849272552250    -0.877393801830     1.007825032230
         H           -4.175174276623     0.411952447750     0.008450198170     1.007825032230
         H            3.530872723377     0.632459447750    -0.901000801830     1.007825032230
         H            3.537858723377     0.644101447750     0.869693198170     1.007825032230
         H            4.077423723377    -0.793861552250    -0.008259801830     1.007825032230

  Basis Set: AUG-CC-PVTZ
    Blend: AUG-CC-PVTZ
  Basis Set: (AUG-CC-PVTZ AUX)
    Blend: AUG-CC-PVTZ-JKFIT
	 Reference Energy          =    -667.6301569699718357 [Eh]
	 Singles Energy            =      -0.0000000000000000 [Eh]
	 Same-Spin Energy          =      -0.3364684372870320 [Eh]
	 Opposite-Spin Energy      =      -1.1114958058179436 [Eh]
	 Correlation Energy        =      -1.4479642431049755 [Eh]
	 Total Energy              =    -669.0781212130767699 [Eh]

	 ================> DF-SCS-MP2 Energies <==================
	-----------------------------------------------------------
	 SCS Same-Spin Scale       =       0.3333333333333333 [-]
	 SCS Opposite-Spin Scale   =       1.2000000000000000 [-]
	 SCS Same-Spin Energy      =      -0.1121561457623440 [Eh]
	 SCS Opposite-Spin Energy  =      -1.3337949669815323 [Eh]
	 SCS Correlation Energy    =      -1.4459511127438762 [Eh]
	 SCS Total Energy          =    -669.0761080827156775 [Eh]
	-----------------------------------------------------------

  Dipole Moment: [D]
     X:     0.2449      Y:     1.0366      Z:    -0.0004     Total:     1.0651

*** Psi4 exiting successfully. Buy a developer a beer!
