                               Psi4 1.3.2 release

  ==> Input File <==

--------------------------------------------------------------------------
#psi4
#
memory 32 gb

molecule  {
0 1
  S        0.7163710     0.8062280    -0.0057410
  O       -0.7612550    -1.3859280     0.0083390
  C       -2.0509520     0.6590830     0.0068010
  C        1.9223760    -0.5510590    -0.0015950
  C       -0.7647366    -0.1405443     0.0040981
  C       -3.3098258    -0.1942677     0.0057241
  C        3.3341240     0.0170930    -0.0107850
  H       -2.0279500     1.3158130     0.8843350
  H       -2.0299060     1.3210850    -0.8667760
  H        1.7458030    -1.1645560     0.8835850
  H        1.7388000    -1.1758340    -0.8774310
  H       -3.3141610    -0.8622160     0.8846490
  H       -3.3163930    -0.8568630    -0.8772710
  H       -4.1940350     0.4043620     0.0085730
  H        3.5120120     0.6248690    -0.9008780
  H        3.5189980     0.6365110     0.8698160
  H        4.0585630    -0.8014520    -0.0081370
units angstrom
no_reorient  #important for SAPT in psi4, default
symmetry c1  #important for SAPT in psi4, default
}

set PROPERTIES_ORIGIN ["COM"]
properties('MP2/aug-cc-pvtz', properties = ['dipole'])
--------------------------------------------------------------------------

    Molecular point group: c1
  Charge       = 0
  Multiplicity = 1
  Basis Set: AUG-CC-PVTZ
    Blend: AUG-CC-PVTZ
  Basis Set: (AUG-CC-PVTZ AUX)
    Blend: AUG-CC-PVTZ-JKFIT

    Orbital Energies [Eh]
    ---------------------

    Doubly Occupied:

       1A    -91.969401     2A    -20.549481     3A    -11.360481
       4A    -11.263108     5A    -11.247450     6A    -11.231546
       7A    -11.220525     8A     -8.971473     9A     -6.652710
      10A     -6.651545    11A     -6.650907    12A     -1.373391
      13A     -1.090792    14A     -1.060467    15A     -0.981822
      16A     -0.891877    17A     -0.824302    18A     -0.725158
      19A     -0.656960    20A     -0.641048    21A     -0.628135
      22A     -0.627195    23A     -0.562584    24A     -0.556229
      25A     -0.535228    26A     -0.523922    27A     -0.509665
      28A     -0.508967    29A     -0.486864    30A     -0.461804
      31A     -0.410071    32A     -0.369481

  @DF-RHF Final Energy:  -667.67677092378847

   => Energetics <=

    Nuclear Repulsion Energy =            369.4448100903327941
    One-Electron Energy =               -1649.8539826199641993
    Two-Electron Energy =                 612.7324016058429379
    Total Energy =                       -667.6767709237884674
  Basis Set: (AUG-CC-PVTZ AUX)
    Blend: AUG-CC-PVTZ-RI
    Molecular point group: c1

    Geometry (in Angstrom), charge = 0, multiplicity = 1:

       Center              X                  Y                   Z               Mass
    ------------   -----------------  -----------------  -----------------  -----------------
         S            0.716465863162     0.801738285544    -0.005751309362    31.972071174400
         O           -0.761160136838    -1.390417714456     0.008328690638    15.994914619570
         C           -2.050857136838     0.654593285544     0.006790690638    12.000000000000
         C            1.922470863162    -0.555548714456    -0.001605309362    12.000000000000
         C           -0.764641736838    -0.145034014456     0.004087790638    12.000000000000
         C           -3.309730936838    -0.198757414456     0.005713790638    12.000000000000
         C            3.334218863162     0.012603285544    -0.010795309362    12.000000000000
         H           -2.027855136838     1.311323285544     0.884324690638     1.007825032230
         H           -2.029811136838     1.316595285544    -0.866786309362     1.007825032230
         H            1.745897863162    -1.169045714456     0.883574690638     1.007825032230
         H            1.738894863162    -1.180323714456    -0.877441309362     1.007825032230
         H           -3.314066136838    -0.866705714456     0.884638690638     1.007825032230
         H           -3.316298136838    -0.861352714456    -0.877281309362     1.007825032230
         H           -4.193940136838     0.399872285544     0.008562690638     1.007825032230
         H            3.512106863162     0.620379285544    -0.900888309362     1.007825032230
         H            3.519092863162     0.632021285544     0.869805690638     1.007825032230
         H            4.058657863162    -0.805941714456    -0.008147309362     1.007825032230

  Basis Set: AUG-CC-PVTZ
    Blend: AUG-CC-PVTZ
  Basis Set: (AUG-CC-PVTZ AUX)
    Blend: AUG-CC-PVTZ-JKFIT
	 Reference Energy          =    -667.6767709237884674 [Eh]
	 Singles Energy            =      -0.0000000000000000 [Eh]
	 Same-Spin Energy          =      -0.3342381119701318 [Eh]
	 Opposite-Spin Energy      =      -1.1088132192614051 [Eh]
	 Correlation Energy        =      -1.4430513312315369 [Eh]
	 Total Energy              =    -669.1198222550200398 [Eh]

	 ================> DF-SCS-MP2 Energies <==================
	-----------------------------------------------------------
	 SCS Same-Spin Scale       =       0.3333333333333333 [-]
	 SCS Opposite-Spin Scale   =       1.2000000000000000 [-]
	 SCS Same-Spin Energy      =      -0.1114127039900439 [Eh]
	 SCS Opposite-Spin Energy  =      -1.3305758631136861 [Eh]
	 SCS Correlation Energy    =      -1.4419885671037300 [Eh]
	 SCS Total Energy          =    -669.1187594908922165 [Eh]
	-----------------------------------------------------------

  Dipole Moment: [D]
     X:     0.5451      Y:     1.1962      Z:    -0.0021     Total:     1.3145

*** Psi4 exiting successfully. Buy a developer a beer!
