                               Psi4 1.4a3.dev225

  ==> Input File <==

--------------------------------------------------------------------------
#psi4
#
memory 32 gb

molecule  {
0 1
  S       -0.7336830    -0.7988290    -0.0000010
  O        0.7842810     1.3701820    -0.0000010
  C        2.0392260    -0.6993310     0.0000000
  C       -1.8851557     0.5427142    -0.0000020
  C        0.7809180     0.1463140    -0.0000010
  C        3.3000750     0.1543340     0.0000020
  C       -3.3406260     0.0364320     0.0000030
  H        2.0053990    -1.3579180     0.8761960
  H        2.0054010    -1.3579160    -0.8761980
  H       -1.7269280     1.1964810     0.8811220
  H       -1.7269330     1.1964770    -0.8811310
  H        3.3326310     0.7974220     0.8814170
  H        3.3326220     0.7974380    -0.8814010
  H        4.1880090    -0.4829760    -0.0000080
  H       -3.5331250    -0.5739300    -0.8857830
  H       -3.5331200    -0.5739250     0.8857940
  H       -4.0504940     0.8682350     0.0000030
units angstrom
no_reorient  #important for SAPT in psi4, default
symmetry c1  #important for SAPT in psi4, default
}

set PROPERTIES_ORIGIN ["COM"]
properties('MP2/aug-cc-pvtz', properties = ['dipole'])
--------------------------------------------------------------------------

    Molecular point group: c1
  Charge       = 0
  Multiplicity = 1
  Basis Set: AUG-CC-PVTZ
    Blend: AUG-CC-PVTZ
  Basis Set: (AUG-CC-PVTZ AUX)
    Blend: AUG-CC-PVTZ-JKFIT

    Orbital Energies [Eh]
    ---------------------

    Doubly Occupied:

       1A    -91.967004     2A    -20.555258     3A    -11.361189
       4A    -11.260772     5A    -11.249133     6A    -11.230733
       7A    -11.222139     8A     -8.969335     9A     -6.650585
      10A     -6.649478    11A     -6.648752    12A     -1.390729
      13A     -1.090834    14A     -1.061071    15A     -0.975760
      16A     -0.892669    17A     -0.817834    18A     -0.728555
      19A     -0.661116    20A     -0.641614    21A     -0.634087
      22A     -0.623666    23A     -0.561166    24A     -0.549493
      25A     -0.541279    26A     -0.521787    27A     -0.509042
      28A     -0.507708    29A     -0.493290    30A     -0.470135
      31A     -0.407012    32A     -0.366232

  @DF-RHF Final Energy:  -667.67789332341465

   => Energetics <=

    Nuclear Repulsion Energy =            369.9435273166552065
    One-Electron Energy =               -1650.8239280029981728
    Two-Electron Energy =                 613.2025073629282588
    Total Energy =                       -667.6778933234146507
  Basis Set: (AUG-CC-PVTZ AUX)
    Blend: AUG-CC-PVTZ-RI
    Molecular point group: c1

    Geometry (in Angstrom), charge = 0, multiplicity = 1:

       Center              X                  Y                   Z               Mass
    ------------   -----------------  -----------------  -----------------  -----------------
         S           -0.734666932014    -0.790820704244    -0.000000890882    31.972071174400
         O            0.783297067986     1.378190295756    -0.000000890882    15.994914619570
         C            2.038242067986    -0.691322704244     0.000000109118    12.000000000000
         C           -1.886139632014     0.550722495756    -0.000001890882    12.000000000000
         C            0.779934067986     0.154322295756    -0.000000890882    12.000000000000
         C            3.299091067986     0.162342295756     0.000002109118    12.000000000000
         C           -3.341609932014     0.044440295756     0.000003109118    12.000000000000
         H            2.004415067986    -1.349909704244     0.876196109118     1.007825032230
         H            2.004417067986    -1.349907704244    -0.876197890882     1.007825032230
         H           -1.727911932014     1.204489295756     0.881122109118     1.007825032230
         H           -1.727916932014     1.204485295756    -0.881130890882     1.007825032230
         H            3.331647067986     0.805430295756     0.881417109118     1.007825032230
         H            3.331638067986     0.805446295756    -0.881400890882     1.007825032230
         H            4.187025067986    -0.474967704244    -0.000007890882     1.007825032230
         H           -3.534108932014    -0.565921704244    -0.885782890882     1.007825032230
         H           -3.534103932014    -0.565916704244     0.885794109118     1.007825032230
         H           -4.051477932014     0.876243295756     0.000003109118     1.007825032230

  Basis Set: AUG-CC-PVTZ
    Blend: AUG-CC-PVTZ
  Basis Set: (AUG-CC-PVTZ AUX)
    Blend: AUG-CC-PVTZ-JKFIT
	 Reference Energy          =    -667.6778933234146507 [Eh]
	 Singles Energy            =      -0.0000000000000000 [Eh]
	 Same-Spin Energy          =      -0.3339071361113187 [Eh]
	 Opposite-Spin Energy      =      -1.1081106235357374 [Eh]
	 Correlation Energy        =      -1.4420177596470563 [Eh]
	 Total Energy              =    -669.1199110830616519 [Eh]

	 ================> DF-SCS-MP2 Energies <==================
	-----------------------------------------------------------
	 SCS Same-Spin Scale       =       0.3333333333333333 [-]
	 SCS Opposite-Spin Scale   =       1.2000000000000000 [-]
	 SCS Same-Spin Energy      =      -0.1113023787037729 [Eh]
	 SCS Opposite-Spin Energy  =      -1.3297327482428849 [Eh]
	 SCS Correlation Energy    =      -1.4410351269466577 [Eh]
	 SCS Total Energy          =    -669.1189284503612953 [Eh]
	-----------------------------------------------------------

  Dipole Moment: [D]
     X:    -0.2792      Y:    -1.0889      Z:     0.0000     Total:     1.1241

*** Psi4 exiting successfully. Buy a developer a beer!
