                               Psi4 1.3.2 release

  ==> Input File <==

--------------------------------------------------------------------------
#psi4
#
memory 32 gb

molecule  {
0 1
  S        0.7045726     0.7956525    -0.0056263
  O       -0.7612550    -1.3859280     0.0083390
  C       -2.0509520     0.6590830     0.0068010
  C        1.9223760    -0.5510590    -0.0015950
  C       -0.7788880    -0.1628700     0.0040570
  C       -3.2947410    -0.2161080     0.0056640
  C        3.3390286     0.0047517    -0.0107237
  H       -2.0279500     1.3158130     0.8843350
  H       -2.0299060     1.3210850    -0.8667760
  H        1.7458030    -1.1645560     0.8835850
  H        1.7388000    -1.1758340    -0.8774310
  H       -3.3141610    -0.8622160     0.8846490
  H       -3.3163930    -0.8568630    -0.8772710
  H       -4.1940350     0.4043620     0.0085730
  H        3.5120120     0.6248690    -0.9008780
  H        3.5189980     0.6365110     0.8698160
  H        4.0585630    -0.8014520    -0.0081370
units angstrom
no_reorient  #important for SAPT in psi4, default
symmetry c1  #important for SAPT in psi4, default
}

set PROPERTIES_ORIGIN ["COM"]
properties('MP2/aug-cc-pvtz', properties = ['dipole'])
--------------------------------------------------------------------------

    Molecular point group: c1
  Charge       = 0
  Multiplicity = 1
  Basis Set: AUG-CC-PVTZ
    Blend: AUG-CC-PVTZ
  Basis Set: (AUG-CC-PVTZ AUX)
    Blend: AUG-CC-PVTZ-JKFIT

    Orbital Energies [Eh]
    ---------------------

    Doubly Occupied:

       1A    -91.965550     2A    -20.552154     3A    -11.358357
       4A    -11.261550     5A    -11.247463     6A    -11.230575
       7A    -11.220912     8A     -8.967686     9A     -6.648906
      10A     -6.647790    11A     -6.647127    12A     -1.389463
      13A     -1.088674    14A     -1.061027    15A     -0.979628
      16A     -0.891024    17A     -0.822448    18A     -0.726815
      19A     -0.659180    20A     -0.642291    21A     -0.632912
      22A     -0.627759    23A     -0.564719    24A     -0.551267
      25A     -0.540484    26A     -0.522974    27A     -0.512450
      28A     -0.509839    29A     -0.493106    30A     -0.460341
      31A     -0.406871    32A     -0.367368

  @DF-RHF Final Energy:  -667.68072964902933

   => Energetics <=

    Nuclear Repulsion Energy =            370.0104926055253145
    One-Electron Energy =               -1650.9850199084366977
    Two-Electron Energy =                 613.2937976538820521
    Total Energy =                       -667.6807296490293311
  Basis Set: (AUG-CC-PVTZ AUX)
    Blend: AUG-CC-PVTZ-RI
    Molecular point group: c1

    Geometry (in Angstrom), charge = 0, multiplicity = 1:

       Center              X                  Y                   Z               Mass
    ------------   -----------------  -----------------  -----------------  -----------------
         S            0.707269544318     0.799771419590    -0.005663619317    31.972071174400
         O           -0.758558055682    -1.381809080410     0.008301680683    15.994914619570
         C           -2.048255055682     0.663201919590     0.006763680683    12.000000000000
         C            1.925072944318    -0.546940080410    -0.001632319317    12.000000000000
         C           -0.776191055682    -0.158751080410     0.004019680683    12.000000000000
         C           -3.292044055682    -0.211989080410     0.005626680683    12.000000000000
         C            3.341725544318     0.008870619590    -0.010761019317    12.000000000000
         H           -2.025253055682     1.319931919590     0.884297680683     1.007825032230
         H           -2.027209055682     1.325203919590    -0.866813319317     1.007825032230
         H            1.748499944318    -1.160437080410     0.883547680683     1.007825032230
         H            1.741496944318    -1.171715080410    -0.877468319317     1.007825032230
         H           -3.311464055682    -0.858097080410     0.884611680683     1.007825032230
         H           -3.313696055682    -0.852744080410    -0.877308319317     1.007825032230
         H           -4.191338055682     0.408480919590     0.008535680683     1.007825032230
         H            3.514708944318     0.628987919590    -0.900915319317     1.007825032230
         H            3.521694944318     0.640629919590     0.869778680683     1.007825032230
         H            4.061259944318    -0.797333080410    -0.008174319317     1.007825032230

  Basis Set: AUG-CC-PVTZ
    Blend: AUG-CC-PVTZ
  Basis Set: (AUG-CC-PVTZ AUX)
    Blend: AUG-CC-PVTZ-JKFIT
	 Reference Energy          =    -667.6807296490293311 [Eh]
	 Singles Energy            =      -0.0000000000000000 [Eh]
	 Same-Spin Energy          =      -0.3336217551189977 [Eh]
	 Opposite-Spin Energy      =      -1.1074401721340044 [Eh]
	 Correlation Energy        =      -1.4410619272530021 [Eh]
	 Total Energy              =    -669.1217915762823623 [Eh]

	 ================> DF-SCS-MP2 Energies <==================
	-----------------------------------------------------------
	 SCS Same-Spin Scale       =       0.3333333333333333 [-]
	 SCS Opposite-Spin Scale   =       1.2000000000000000 [-]
	 SCS Same-Spin Energy      =      -0.1112072517063326 [Eh]
	 SCS Opposite-Spin Energy  =      -1.3289282065608052 [Eh]
	 SCS Correlation Energy    =      -1.4401354582671377 [Eh]
	 SCS Total Energy          =    -669.1208651072964813 [Eh]
	-----------------------------------------------------------

  Dipole Moment: [D]
     X:     0.4072      Y:     1.0832      Z:    -0.0012     Total:     1.1572

*** Psi4 exiting successfully. Buy a developer a beer!
