                               Psi4 1.3.2 release

  ==> Input File <==

--------------------------------------------------------------------------
#psi4
#
memory 32 gb

molecule  {
0 1
  S        0.7163710     0.8062280    -0.0057410
  O       -0.8039497    -1.3857977     0.0085290
  C       -2.0788620     0.6141882     0.0070856
  C        1.9223760    -0.5510590    -0.0015950
  C       -0.7788880    -0.1628700     0.0040570
  C       -3.2947410    -0.2161080     0.0056640
  C        3.3341240     0.0170930    -0.0107850
  H       -2.0279500     1.3158130     0.8843350
  H       -2.0299060     1.3210850    -0.8667760
  H        1.7458030    -1.1645560     0.8835850
  H        1.7388000    -1.1758340    -0.8774310
  H       -3.3141610    -0.8622160     0.8846490
  H       -3.3163930    -0.8568630    -0.8772710
  H       -4.1940350     0.4043620     0.0085730
  H        3.5120120     0.6248690    -0.9008780
  H        3.5189980     0.6365110     0.8698160
  H        4.0585630    -0.8014520    -0.0081370
units angstrom
no_reorient  #important for SAPT in psi4, default
symmetry c1  #important for SAPT in psi4, default
}

set PROPERTIES_ORIGIN ["COM"]
properties('MP2/aug-cc-pvtz', properties = ['dipole'])
--------------------------------------------------------------------------

    Molecular point group: c1
  Charge       = 0
  Multiplicity = 1
  Basis Set: AUG-CC-PVTZ
    Blend: AUG-CC-PVTZ
  Basis Set: (AUG-CC-PVTZ AUX)
    Blend: AUG-CC-PVTZ-JKFIT

    Orbital Energies [Eh]
    ---------------------

    Doubly Occupied:

       1A    -91.968883     2A    -20.551690     3A    -11.358359
       4A    -11.263404     5A    -11.248145     6A    -11.231643
       7A    -11.217356     8A     -8.970474     9A     -6.651677
      10A     -6.650557    11A     -6.649884    12A     -1.389353
      13A     -1.088957    14A     -1.065004    15A     -0.980066
      16A     -0.890039    17A     -0.821576    18A     -0.724408
      19A     -0.660368    20A     -0.640210    21A     -0.631733
      22A     -0.627522    23A     -0.566135    24A     -0.556020
      25A     -0.540320    26A     -0.521948    27A     -0.515126
      28A     -0.511207    29A     -0.482385    30A     -0.461928
      31A     -0.406971    32A     -0.368887

  @DF-RHF Final Energy:  -667.67671410855019

   => Energetics <=

    Nuclear Repulsion Energy =            369.6197622113942316
    One-Electron Energy =               -1650.1684785258842112
    Two-Electron Energy =                 612.8720022059396797
    Total Energy =                       -667.6767141085501862
  Basis Set: (AUG-CC-PVTZ AUX)
    Blend: AUG-CC-PVTZ-RI
    Molecular point group: c1

    Geometry (in Angstrom), charge = 0, multiplicity = 1:

       Center              X                  Y                   Z               Mass
    ------------   -----------------  -----------------  -----------------  -----------------
         S            0.724993249055     0.810774189894    -0.005795697716    31.972071174400
         O           -0.795327450945    -1.381251510106     0.008474302284    15.994914619570
         C           -2.070239750945     0.618734389894     0.007030902284    12.000000000000
         C            1.930998249055    -0.546512810106    -0.001649697716    12.000000000000
         C           -0.770265750945    -0.158323810106     0.004002302284    12.000000000000
         C           -3.286118750945    -0.211561810106     0.005609302284    12.000000000000
         C            3.342746249055     0.021639189894    -0.010839697716    12.000000000000
         H           -2.019327750945     1.320359189894     0.884280302284     1.007825032230
         H           -2.021283750945     1.325631189894    -0.866830697716     1.007825032230
         H            1.754425249055    -1.160009810106     0.883530302284     1.007825032230
         H            1.747422249055    -1.171287810106    -0.877485697716     1.007825032230
         H           -3.305538750945    -0.857669810106     0.884594302284     1.007825032230
         H           -3.307770750945    -0.852316810106    -0.877325697716     1.007825032230
         H           -4.185412750945     0.408908189894     0.008518302284     1.007825032230
         H            3.520634249055     0.629415189894    -0.900932697716     1.007825032230
         H            3.527620249055     0.641057189894     0.869761302284     1.007825032230
         H            4.067185249055    -0.796905810106    -0.008191697716     1.007825032230

  Basis Set: AUG-CC-PVTZ
    Blend: AUG-CC-PVTZ
  Basis Set: (AUG-CC-PVTZ AUX)
    Blend: AUG-CC-PVTZ-JKFIT
	 Reference Energy          =    -667.6767141085501862 [Eh]
	 Singles Energy            =      -0.0000000000000000 [Eh]
	 Same-Spin Energy          =      -0.3339201931370825 [Eh]
	 Opposite-Spin Energy      =      -1.1080304758586210 [Eh]
	 Correlation Energy        =      -1.4419506689957036 [Eh]
	 Total Energy              =    -669.1186647775458596 [Eh]

	 ================> DF-SCS-MP2 Energies <==================
	-----------------------------------------------------------
	 SCS Same-Spin Scale       =       0.3333333333333333 [-]
	 SCS Opposite-Spin Scale   =       1.2000000000000000 [-]
	 SCS Same-Spin Energy      =      -0.1113067310456942 [Eh]
	 SCS Opposite-Spin Energy  =      -1.3296365710303453 [Eh]
	 SCS Correlation Energy    =      -1.4409433020760394 [Eh]
	 SCS Total Energy          =    -669.1176574106261796 [Eh]
	-----------------------------------------------------------

  Dipole Moment: [D]
     X:     0.5000      Y:     1.0612      Z:    -0.0014     Total:     1.1730

*** Psi4 exiting successfully. Buy a developer a beer!
