                               Psi4 1.3.2 release

  ==> Input File <==

--------------------------------------------------------------------------
#psi4
#
memory 32 gb

molecule  {
0 1
  S        0.6816384     0.8578221    -0.0057774
  O       -0.8039497    -1.3857977     0.0085197
  C       -2.0509520     0.6590830     0.0068010
  C        1.9223760    -0.5510590    -0.0015950
  C       -0.7788880    -0.1628700     0.0040570
  C       -3.2947410    -0.2161080     0.0056640
  C        3.3341240     0.0170930    -0.0107850
  H       -2.0279500     1.3158130     0.8843350
  H       -2.0299060     1.3210850    -0.8667760
  H        1.7458030    -1.1645560     0.8835850
  H        1.7388000    -1.1758340    -0.8774310
  H       -3.3141610    -0.8622160     0.8846490
  H       -3.3163930    -0.8568630    -0.8772710
  H       -4.1940350     0.4043620     0.0085730
  H        3.5120120     0.6248690    -0.9008780
  H        3.5189980     0.6365110     0.8698160
  H        4.0585630    -0.8014520    -0.0081370
units angstrom
no_reorient  #important for SAPT in psi4, default
symmetry c1  #important for SAPT in psi4, default
}

set PROPERTIES_ORIGIN ["COM"]
properties('MP2/aug-cc-pvtz', properties = ['dipole'])
--------------------------------------------------------------------------

    Molecular point group: c1
  Charge       = 0
  Multiplicity = 1
  Basis Set: AUG-CC-PVTZ
    Blend: AUG-CC-PVTZ
  Basis Set: (AUG-CC-PVTZ AUX)
    Blend: AUG-CC-PVTZ-JKFIT

    Orbital Energies [Eh]
    ---------------------

    Doubly Occupied:

       1A    -91.970082     2A    -20.554100     3A    -11.359226
       4A    -11.268106     5A    -11.243905     6A    -11.230887
       7A    -11.218521     8A     -8.970881     9A     -6.652027
      10A     -6.650808    11A     -6.650233    12A     -1.389407
      13A     -1.082242    14A     -1.057213    15A     -0.978657
      16A     -0.886890    17A     -0.823088    18A     -0.726808
      19A     -0.654506    20A     -0.640587    21A     -0.631322
      22A     -0.627714    23A     -0.563908    24A     -0.548878
      25A     -0.539118    26A     -0.521872    27A     -0.511703
      28A     -0.511202    29A     -0.492553    30A     -0.453655
      31A     -0.407257    32A     -0.371291

  @DF-RHF Final Energy:  -667.67770611684909

   => Energetics <=

    Nuclear Repulsion Energy =            368.0432791328120743
    One-Electron Energy =               -1647.0646799709516017
    Two-Electron Energy =                 611.3436947212903760
    Total Energy =                       -667.6777061168490945
  Basis Set: (AUG-CC-PVTZ AUX)
    Blend: AUG-CC-PVTZ-RI
    Molecular point group: c1

    Geometry (in Angstrom), charge = 0, multiplicity = 1:

       Center              X                  Y                   Z               Mass
    ------------   -----------------  -----------------  -----------------  -----------------
         S            0.696830614813     0.843830414844    -0.005792047510    31.972071174400
         O           -0.788757485187    -1.399789385156     0.008505052490    15.994914619570
         C           -2.035759785187     0.645091314844     0.006786352490    12.000000000000
         C            1.937568214813    -0.565050685156    -0.001609647510    12.000000000000
         C           -0.763695785187    -0.176861685156     0.004042352490    12.000000000000
         C           -3.279548785187    -0.230099685156     0.005649352490    12.000000000000
         C            3.349316214813     0.003101314844    -0.010799647510    12.000000000000
         H           -2.012757785187     1.301821314844     0.884320352490     1.007825032230
         H           -2.014713785187     1.307093314844    -0.866790647510     1.007825032230
         H            1.760995214813    -1.178547685156     0.883570352490     1.007825032230
         H            1.753992214813    -1.189825685156    -0.877445647510     1.007825032230
         H           -3.298968785187    -0.876207685156     0.884634352490     1.007825032230
         H           -3.301200785187    -0.870854685156    -0.877285647510     1.007825032230
         H           -4.178842785187     0.390370314844     0.008558352490     1.007825032230
         H            3.527204214813     0.610877314844    -0.900892647510     1.007825032230
         H            3.534190214813     0.622519314844     0.869801352490     1.007825032230
         H            4.073755214813    -0.815443685156    -0.008151647510     1.007825032230

  Basis Set: AUG-CC-PVTZ
    Blend: AUG-CC-PVTZ
  Basis Set: (AUG-CC-PVTZ AUX)
    Blend: AUG-CC-PVTZ-JKFIT
	 Reference Energy          =    -667.6777061168490945 [Eh]
	 Singles Energy            =      -0.0000000000000000 [Eh]
	 Same-Spin Energy          =      -0.3334136130876806 [Eh]
	 Opposite-Spin Energy      =      -1.1082400376963033 [Eh]
	 Correlation Energy        =      -1.4416536507839839 [Eh]
	 Total Energy              =    -669.1193597676331137 [Eh]

	 ================> DF-SCS-MP2 Energies <==================
	-----------------------------------------------------------
	 SCS Same-Spin Scale       =       0.3333333333333333 [-]
	 SCS Opposite-Spin Scale   =       1.2000000000000000 [-]
	 SCS Same-Spin Energy      =      -0.1111378710292269 [Eh]
	 SCS Opposite-Spin Energy  =      -1.3298880452355639 [Eh]
	 SCS Correlation Energy    =      -1.4410259162647907 [Eh]
	 SCS Total Energy          =    -669.1187320331139290 [Eh]
	-----------------------------------------------------------

  Dipole Moment: [D]
     X:     0.5432      Y:     1.0648      Z:    -0.0016     Total:     1.1953

*** Psi4 exiting successfully. Buy a developer a beer!
