                               Psi4 1.4a3.dev225

  ==> Input File <==

--------------------------------------------------------------------------
#psi4
#
memory 32 gb

molecule  {
0 1
  S       -0.7336830    -0.7988290    -0.0000010
  O        0.7842810     1.3701820    -0.0000010
  C        2.0392260    -0.6993310     0.0000000
  C       -1.9177210     0.5806550    -0.0000020
  C        0.7639506     0.1357260    -0.0000010
  C        3.3000750     0.1543340     0.0000020
  C       -3.3406260     0.0364320     0.0000030
  H        2.0053990    -1.3579180     0.8761960
  H        2.0054010    -1.3579160    -0.8761980
  H       -1.7269280     1.1964810     0.8811220
  H       -1.7269330     1.1964770    -0.8811310
  H        3.3326310     0.7974220     0.8814170
  H        3.3326220     0.7974380    -0.8814010
  H        4.1880090    -0.4829760    -0.0000080
  H       -3.5331250    -0.5739300    -0.8857830
  H       -3.5331200    -0.5739250     0.8857940
  H       -4.0504940     0.8682350     0.0000030
units angstrom
no_reorient  #important for SAPT in psi4, default
symmetry c1  #important for SAPT in psi4, default
}

set PROPERTIES_ORIGIN ["COM"]
properties('MP2/aug-cc-pvtz', properties = ['dipole'])
--------------------------------------------------------------------------

    Molecular point group: c1
  Charge       = 0
  Multiplicity = 1
  Basis Set: AUG-CC-PVTZ
    Blend: AUG-CC-PVTZ
  Basis Set: (AUG-CC-PVTZ AUX)
    Blend: AUG-CC-PVTZ-JKFIT

    Orbital Energies [Eh]
    ---------------------

    Doubly Occupied:

       1A    -91.968313     2A    -20.551301     3A    -11.359979
       4A    -11.263042     5A    -11.247845     6A    -11.231412
       7A    -11.220709     8A     -8.970269     9A     -6.651490
      10A     -6.650331    11A     -6.649690    12A     -1.380993
      13A     -1.088933    14A     -1.058706    15A     -0.980000
      16A     -0.889952    17A     -0.823376    18A     -0.725730
      19A     -0.656232    20A     -0.641199    21A     -0.629385
      22A     -0.628367    23A     -0.561531    24A     -0.551123
      25A     -0.538817    26A     -0.521984    27A     -0.511746
      28A     -0.511126    29A     -0.491267    30A     -0.460527
      31A     -0.408030    32A     -0.369076

  @DF-RHF Final Energy:  -667.67909103778902

   => Energetics <=

    Nuclear Repulsion Energy =            369.2297569145615057
    One-Electron Energy =               -1649.4327392120239892
    Two-Electron Energy =                 612.5238912596735190
    Total Energy =                       -667.6790910377890214
  Basis Set: (AUG-CC-PVTZ AUX)
    Blend: AUG-CC-PVTZ-RI
    Molecular point group: c1

    Geometry (in Angstrom), charge = 0, multiplicity = 1:

       Center              X                  Y                   Z               Mass
    ------------   -----------------  -----------------  -----------------  -----------------
         S           -0.729631638600    -0.793601278970    -0.000000890882    31.972071174400
         O            0.788332361400     1.375409721030    -0.000000890882    15.994914619570
         C            2.043277361400    -0.694103278970     0.000000109118    12.000000000000
         C           -1.913669638600     0.585882721030    -0.000001890882    12.000000000000
         C            0.768001961400     0.140953721030    -0.000000890882    12.000000000000
         C            3.304126361400     0.159561721030     0.000002109118    12.000000000000
         C           -3.336574638600     0.041659721030     0.000003109118    12.000000000000
         H            2.009450361400    -1.352690278970     0.876196109118     1.007825032230
         H            2.009452361400    -1.352688278970    -0.876197890882     1.007825032230
         H           -1.722876638600     1.201708721030     0.881122109118     1.007825032230
         H           -1.722881638600     1.201704721030    -0.881130890882     1.007825032230
         H            3.336682361400     0.802649721030     0.881417109118     1.007825032230
         H            3.336673361400     0.802665721030    -0.881400890882     1.007825032230
         H            4.192060361400    -0.477748278970    -0.000007890882     1.007825032230
         H           -3.529073638600    -0.568702278970    -0.885782890882     1.007825032230
         H           -3.529068638600    -0.568697278970     0.885794109118     1.007825032230
         H           -4.046442638600     0.873462721030     0.000003109118     1.007825032230

  Basis Set: AUG-CC-PVTZ
    Blend: AUG-CC-PVTZ
  Basis Set: (AUG-CC-PVTZ AUX)
    Blend: AUG-CC-PVTZ-JKFIT
	 Reference Energy          =    -667.6790910377890214 [Eh]
	 Singles Energy            =      -0.0000000000000000 [Eh]
	 Same-Spin Energy          =      -0.3338400221835625 [Eh]
	 Opposite-Spin Energy      =      -1.1082315232721529 [Eh]
	 Correlation Energy        =      -1.4420715454557154 [Eh]
	 Total Energy              =    -669.1211625832447680 [Eh]

	 ================> DF-SCS-MP2 Energies <==================
	-----------------------------------------------------------
	 SCS Same-Spin Scale       =       0.3333333333333333 [-]
	 SCS Opposite-Spin Scale   =       1.2000000000000000 [-]
	 SCS Same-Spin Energy      =      -0.1112800073945208 [Eh]
	 SCS Opposite-Spin Energy  =      -1.3298778279265835 [Eh]
	 SCS Correlation Energy    =      -1.4411578353211043 [Eh]
	 SCS Total Energy          =    -669.1202488731100857 [Eh]
	-----------------------------------------------------------

  Dipole Moment: [D]
     X:    -0.5304      Y:    -1.1260      Z:     0.0000     Total:     1.2446

*** Psi4 exiting successfully. Buy a developer a beer!
