                               Psi4 1.3.2 release

  ==> Input File <==

--------------------------------------------------------------------------
#psi4
#
memory 32 gb

molecule  {
0 1
  S        0.7163710     0.8062280    -0.0057410
  O       -0.7612550    -1.3859280     0.0083390
  C       -2.0509520     0.6590830     0.0068010
  C        1.9223760    -0.5510590    -0.0015950
  C       -0.7868761    -0.1747333    -0.0181726
  C       -3.2947410    -0.2161080     0.0056640
  C        3.3341240     0.0170930    -0.0107850
  H       -2.0449807     1.3229080     0.8792631
  H       -2.0299060     1.3210850    -0.8667760
  H        1.7458030    -1.1645560     0.8835850
  H        1.7388000    -1.1758340    -0.8774310
  H       -3.3141610    -0.8622160     0.8846490
  H       -3.3163930    -0.8568630    -0.8772710
  H       -4.1940350     0.4043620     0.0085730
  H        3.5120120     0.6248690    -0.9008780
  H        3.5189980     0.6365110     0.8698160
  H        4.0585630    -0.8014520    -0.0081370
units angstrom
no_reorient  #important for SAPT in psi4, default
symmetry c1  #important for SAPT in psi4, default
}

set PROPERTIES_ORIGIN ["COM"]
properties('MP2/aug-cc-pvtz', properties = ['dipole'])
--------------------------------------------------------------------------

    Molecular point group: c1
  Charge       = 0
  Multiplicity = 1
  Basis Set: AUG-CC-PVTZ
    Blend: AUG-CC-PVTZ
  Basis Set: (AUG-CC-PVTZ AUX)
    Blend: AUG-CC-PVTZ-JKFIT

    Orbital Energies [Eh]
    ---------------------

    Doubly Occupied:

       1A    -91.963472     2A    -20.556348     3A    -11.360071
       4A    -11.260397     5A    -11.247940     6A    -11.229346
       7A    -11.221369     8A     -8.965156     9A     -6.646328
      10A     -6.645240    11A     -6.644569    12A     -1.399303
      13A     -1.085921    14A     -1.061481    15A     -0.974503
      16A     -0.890325    17A     -0.820408    18A     -0.729601
      19A     -0.660514    20A     -0.642594    21A     -0.635530
      22A     -0.628012    23A     -0.561610    24A     -0.551244
      25A     -0.543341    26A     -0.524485    27A     -0.512878
      28A     -0.511151    29A     -0.495549    30A     -0.458841
      31A     -0.404281    32A     -0.365580

  @DF-RHF Final Energy:  -667.68133140629709

   => Energetics <=

    Nuclear Repulsion Energy =            369.5394904213462723
    One-Electron Energy =               -1650.0468681863469556
    Two-Electron Energy =                 612.8260463587035929
    Total Energy =                       -667.6813314062970903
  Basis Set: (AUG-CC-PVTZ AUX)
    Blend: AUG-CC-PVTZ-RI
    Molecular point group: c1

    Geometry (in Angstrom), charge = 0, multiplicity = 1:

       Center              X                  Y                   Z               Mass
    ------------   -----------------  -----------------  -----------------  -----------------
         S            0.717328416951     0.807373422575    -0.003437948850    31.972071174400
         O           -0.760297583049    -1.384782577425     0.010642051150    15.994914619570
         C           -2.049994583049     0.660228422575     0.009104051150    12.000000000000
         C            1.923333416951    -0.549913577425     0.000708051150    12.000000000000
         C           -0.785918683049    -0.173587877425    -0.015869548850    12.000000000000
         C           -3.293783583049    -0.214962577425     0.007967051150    12.000000000000
         C            3.335081416951     0.018238422575    -0.008481948850    12.000000000000
         H           -2.044023283049     1.324053422575     0.881566151150     1.007825032230
         H           -2.028948583049     1.322230422575    -0.864472948850     1.007825032230
         H            1.746760416951    -1.163410577425     0.885888051150     1.007825032230
         H            1.739757416951    -1.174688577425    -0.875127948850     1.007825032230
         H           -3.313203583049    -0.861070577425     0.886952051150     1.007825032230
         H           -3.315435583049    -0.855717577425    -0.874967948850     1.007825032230
         H           -4.193077583049     0.405507422575     0.010876051150     1.007825032230
         H            3.512969416951     0.626014422575    -0.898574948850     1.007825032230
         H            3.519955416951     0.637656422575     0.872119051150     1.007825032230
         H            4.059520416951    -0.800306577425    -0.005833948850     1.007825032230

  Basis Set: AUG-CC-PVTZ
    Blend: AUG-CC-PVTZ
  Basis Set: (AUG-CC-PVTZ AUX)
    Blend: AUG-CC-PVTZ-JKFIT
	 Reference Energy          =    -667.6813314062970903 [Eh]
	 Singles Energy            =      -0.0000000000000000 [Eh]
	 Same-Spin Energy          =      -0.3333209043286904 [Eh]
	 Opposite-Spin Energy      =      -1.1071213870083527 [Eh]
	 Correlation Energy        =      -1.4404422913370432 [Eh]
	 Total Energy              =    -669.1217736976341257 [Eh]

	 ================> DF-SCS-MP2 Energies <==================
	-----------------------------------------------------------
	 SCS Same-Spin Scale       =       0.3333333333333333 [-]
	 SCS Opposite-Spin Scale   =       1.2000000000000000 [-]
	 SCS Same-Spin Energy      =      -0.1111069681095635 [Eh]
	 SCS Opposite-Spin Energy  =      -1.3285456644100233 [Eh]
	 SCS Correlation Energy    =      -1.4396526325195869 [Eh]
	 SCS Total Energy          =    -669.1209840388166867 [Eh]
	-----------------------------------------------------------

  Dipole Moment: [D]
     X:     0.2428      Y:     0.9947      Z:    -0.0028     Total:     1.0239

*** Psi4 exiting successfully. Buy a developer a beer!
