                               Psi4 1.3.2 release

  ==> Input File <==

--------------------------------------------------------------------------
#psi4
#
memory 32 gb

molecule  {
0 1
  S        0.6923556     0.7835750     0.0483572
  O       -0.7612550    -1.3859280     0.0083390
  C       -2.0509520     0.6590830     0.0068010
  C        1.9223760    -0.5510590    -0.0015950
  C       -0.7788880    -0.1628700     0.0040570
  C       -3.2947410    -0.2161080     0.0056640
  C        3.3341240     0.0170930    -0.0107850
  H       -2.0279500     1.3158130     0.8843350
  H       -2.0299060     1.3210850    -0.8667760
  H        1.7172159    -1.1412829     0.8931929
  H        1.7388000    -1.1758340    -0.8774310
  H       -3.3141610    -0.8622160     0.8846490
  H       -3.3163930    -0.8568630    -0.8772710
  H       -4.1940350     0.4043620     0.0085730
  H        3.5120120     0.6248690    -0.9008780
  H        3.5189980     0.6365110     0.8698160
  H        4.0585630    -0.8014520    -0.0081370
units angstrom
no_reorient  #important for SAPT in psi4, default
symmetry c1  #important for SAPT in psi4, default
}

set PROPERTIES_ORIGIN ["COM"]
properties('MP2/aug-cc-pvtz', properties = ['dipole'])
--------------------------------------------------------------------------

    Molecular point group: c1
  Charge       = 0
  Multiplicity = 1
  Basis Set: AUG-CC-PVTZ
    Blend: AUG-CC-PVTZ
  Basis Set: (AUG-CC-PVTZ AUX)
    Blend: AUG-CC-PVTZ-JKFIT

    Orbital Energies [Eh]
    ---------------------

    Doubly Occupied:

       1A    -91.964323     2A    -20.550254     3A    -11.356343
       4A    -11.262403     5A    -11.246786     6A    -11.231666
       7A    -11.220453     8A     -8.966944     9A     -6.648187
      10A     -6.647056    11A     -6.646389    12A     -1.388628
      13A     -1.090333    14A     -1.060835    15A     -0.981650
      16A     -0.891169    17A     -0.823448    18A     -0.725530
      19A     -0.658923    20A     -0.643199    21A     -0.632598
      22A     -0.628887    23A     -0.561869    24A     -0.552496
      25A     -0.541582    26A     -0.523392    27A     -0.513848
      28A     -0.512015    29A     -0.493026    30A     -0.457208
      31A     -0.407008    32A     -0.366937

  @DF-RHF Final Energy:  -667.68030712377072

   => Energetics <=

    Nuclear Repulsion Energy =            370.6637666620802634
    One-Electron Energy =               -1652.2973693667697717
    Two-Electron Energy =                 613.9532955809188479
    Total Energy =                       -667.6803071237707172
  Basis Set: (AUG-CC-PVTZ AUX)
    Blend: AUG-CC-PVTZ-RI
    Molecular point group: c1

    Geometry (in Angstrom), charge = 0, multiplicity = 1:

       Center              X                  Y                   Z               Mass
    ------------   -----------------  -----------------  -----------------  -----------------
         S            0.699104116447     0.789511797922     0.033622872625    31.972071174400
         O           -0.754506483553    -1.379991202078    -0.006395327375    15.994914619570
         C           -2.044203483553     0.665019797922    -0.007933327375    12.000000000000
         C            1.929124516447    -0.545122202078    -0.016329327375    12.000000000000
         C           -0.772139483553    -0.156933202078    -0.010677327375    12.000000000000
         C           -3.287992483553    -0.210171202078    -0.009070327375    12.000000000000
         C            3.340872516447     0.023029797922    -0.025519327375    12.000000000000
         H           -2.021201483553     1.321749797922     0.869600672625     1.007825032230
         H           -2.023157483553     1.327021797922    -0.881510327375     1.007825032230
         H            1.723964416447    -1.135346102078     0.878458572625     1.007825032230
         H            1.745548516447    -1.169897202078    -0.892165327375     1.007825032230
         H           -3.307412483553    -0.856279202078     0.869914672625     1.007825032230
         H           -3.309644483553    -0.850926202078    -0.892005327375     1.007825032230
         H           -4.187286483553     0.410298797922    -0.006161327375     1.007825032230
         H            3.518760516447     0.630805797922    -0.915612327375     1.007825032230
         H            3.525746516447     0.642447797922     0.855081672625     1.007825032230
         H            4.065311516447    -0.795515202078    -0.022871327375     1.007825032230

  Basis Set: AUG-CC-PVTZ
    Blend: AUG-CC-PVTZ
  Basis Set: (AUG-CC-PVTZ AUX)
    Blend: AUG-CC-PVTZ-JKFIT
	 Reference Energy          =    -667.6803071237707172 [Eh]
	 Singles Energy            =      -0.0000000000000000 [Eh]
	 Same-Spin Energy          =      -0.3337453533609950 [Eh]
	 Opposite-Spin Energy      =      -1.1073209120002845 [Eh]
	 Correlation Energy        =      -1.4410662653612794 [Eh]
	 Total Energy              =    -669.1213733891320317 [Eh]

	 ================> DF-SCS-MP2 Energies <==================
	-----------------------------------------------------------
	 SCS Same-Spin Scale       =       0.3333333333333333 [-]
	 SCS Opposite-Spin Scale   =       1.2000000000000000 [-]
	 SCS Same-Spin Energy      =      -0.1112484511203317 [Eh]
	 SCS Opposite-Spin Energy  =      -1.3287850944003414 [Eh]
	 SCS Correlation Energy    =      -1.4400335455206732 [Eh]
	 SCS Total Energy          =    -669.1203406692914086 [Eh]
	-----------------------------------------------------------

  Dipole Moment: [D]
     X:     0.4994      Y:     1.1136      Z:    -0.0231     Total:     1.2206

*** Psi4 exiting successfully. Buy a developer a beer!
