                               Psi4 1.3.2 release

  ==> Input File <==

--------------------------------------------------------------------------
#psi4
#
memory 32 gb

molecule  {
0 1
  S        0.7163710     0.8062280    -0.0057410
  O       -0.7612550    -1.3859280     0.0083390
  C       -2.0509520     0.6590830     0.0068010
  C        1.9223760    -0.5510590    -0.0015950
  C       -0.8628033    -0.2172567     0.0046069
  C       -3.2947410    -0.2161080     0.0056640
  C        3.3341240     0.0170930    -0.0107850
  H       -2.0279500     1.3158130     0.8843350
  H       -2.0299060     1.3210850    -0.8667760
  H        1.7458030    -1.1645560     0.8835850
  H        1.7388000    -1.1758340    -0.8774310
  H       -3.3141610    -0.8622160     0.8846490
  H       -3.3163930    -0.8568630    -0.8772710
  H       -4.1940350     0.4043620     0.0085730
  H        3.5120120     0.6248690    -0.9008780
  H        3.5189980     0.6365110     0.8698160
  H        4.0585630    -0.8014520    -0.0081370
units angstrom
no_reorient  #important for SAPT in psi4, default
symmetry c1  #important for SAPT in psi4, default
}

set PROPERTIES_ORIGIN ["COM"]
properties('MP2/aug-cc-pvtz', properties = ['dipole'])
--------------------------------------------------------------------------

    Molecular point group: c1
  Charge       = 0
  Multiplicity = 1
  Basis Set: AUG-CC-PVTZ
    Blend: AUG-CC-PVTZ
  Basis Set: (AUG-CC-PVTZ AUX)
    Blend: AUG-CC-PVTZ-JKFIT

    Orbital Energies [Eh]
    ---------------------

    Doubly Occupied:

       1A    -91.949872     2A    -20.568862     3A    -11.363730
       4A    -11.254310     5A    -11.252101     6A    -11.226377
       7A    -11.224454     8A     -8.950899     9A     -6.631969
      10A     -6.631035    11A     -6.630319    12A     -1.434656
      13A     -1.085064    14A     -1.064798    15A     -0.959742
      16A     -0.894465    17A     -0.812182    18A     -0.739310
      19A     -0.672628    20A     -0.651661    21A     -0.643304
      22A     -0.624547    23A     -0.561559    24A     -0.555894
      25A     -0.552363    26A     -0.531751    27A     -0.516419
      28A     -0.510104    29A     -0.504093    30A     -0.452674
      31A     -0.389583    32A     -0.354564

  @DF-RHF Final Energy:  -667.67685993321231

   => Energetics <=

    Nuclear Repulsion Energy =            369.2870826255983161
    One-Electron Energy =               -1649.5373058990217032
    Two-Electron Energy =                 612.5733633402111309
    Total Energy =                       -667.6768599332123131
  Basis Set: (AUG-CC-PVTZ AUX)
    Blend: AUG-CC-PVTZ-RI
    Molecular point group: c1

    Geometry (in Angstrom), charge = 0, multiplicity = 1:

       Center              X                  Y                   Z               Mass
    ------------   -----------------  -----------------  -----------------  -----------------
         S            0.724901466603     0.811756753369    -0.005796922384    31.972071174400
         O           -0.752724533397    -1.380399246631     0.008283077616    15.994914619570
         C           -2.042421533397     0.664611753369     0.006745077616    12.000000000000
         C            1.930906466603    -0.545530246631    -0.001650922384    12.000000000000
         C           -0.854272833397    -0.211727946631     0.004550977616    12.000000000000
         C           -3.286210533397    -0.210579246631     0.005608077616    12.000000000000
         C            3.342654466603     0.022621753369    -0.010840922384    12.000000000000
         H           -2.019419533397     1.321341753369     0.884279077616     1.007825032230
         H           -2.021375533397     1.326613753369    -0.866831922384     1.007825032230
         H            1.754333466603    -1.159027246631     0.883529077616     1.007825032230
         H            1.747330466603    -1.170305246631    -0.877486922384     1.007825032230
         H           -3.305630533397    -0.856687246631     0.884593077616     1.007825032230
         H           -3.307862533397    -0.851334246631    -0.877326922384     1.007825032230
         H           -4.185504533397     0.409890753369     0.008517077616     1.007825032230
         H            3.520542466603     0.630397753369    -0.900933922384     1.007825032230
         H            3.527528466603     0.642039753369     0.869760077616     1.007825032230
         H            4.067093466603    -0.795923246631    -0.008192922384     1.007825032230

  Basis Set: AUG-CC-PVTZ
    Blend: AUG-CC-PVTZ
  Basis Set: (AUG-CC-PVTZ AUX)
    Blend: AUG-CC-PVTZ-JKFIT
	 Reference Energy          =    -667.6768599332123131 [Eh]
	 Singles Energy            =      -0.0000000000000000 [Eh]
	 Same-Spin Energy          =      -0.3327417273138529 [Eh]
	 Opposite-Spin Energy      =      -1.1059466340096886 [Eh]
	 Correlation Energy        =      -1.4386883613235415 [Eh]
	 Total Energy              =    -669.1155482945358699 [Eh]

	 ================> DF-SCS-MP2 Energies <==================
	-----------------------------------------------------------
	 SCS Same-Spin Scale       =       0.3333333333333333 [-]
	 SCS Opposite-Spin Scale   =       1.2000000000000000 [-]
	 SCS Same-Spin Energy      =      -0.1109139091046176 [Eh]
	 SCS Opposite-Spin Energy  =      -1.3271359608116262 [Eh]
	 SCS Correlation Energy    =      -1.4380498699162438 [Eh]
	 SCS Total Energy          =    -669.1149098031285121 [Eh]
	-----------------------------------------------------------

  Dipole Moment: [D]
     X:    -0.5773      Y:     0.6421      Z:     0.0044     Total:     0.8635

*** Psi4 exiting successfully. Buy a developer a beer!
