                               Psi4 1.3.2 release

  ==> Input File <==

--------------------------------------------------------------------------
#psi4
#
memory 32 gb

molecule  {
0 1
  S        0.7163710     0.8062280    -0.0057410
  O       -0.7505827    -1.3857277     0.0082907
  C       -2.0437310     0.6701523     0.0067293
  C        1.9223760    -0.5510590    -0.0015950
  C       -0.7788880    -0.1628700     0.0040570
  C       -3.2947410    -0.2161080     0.0056640
  C        3.3341240     0.0170930    -0.0107850
  H       -2.0279500     1.3158130     0.8843350
  H       -2.0299060     1.3210850    -0.8667760
  H        1.7458030    -1.1645560     0.8835850
  H        1.7388000    -1.1758340    -0.8774310
  H       -3.3141610    -0.8622160     0.8846490
  H       -3.3163930    -0.8568630    -0.8772710
  H       -4.1940350     0.4043620     0.0085730
  H        3.5120120     0.6248690    -0.9008780
  H        3.5189980     0.6365110     0.8698160
  H        4.0585630    -0.8014520    -0.0081370
units angstrom
no_reorient  #important for SAPT in psi4, default
symmetry c1  #important for SAPT in psi4, default
}

set PROPERTIES_ORIGIN ["COM"]
properties('MP2/aug-cc-pvtz', properties = ['dipole'])
--------------------------------------------------------------------------

    Molecular point group: c1
  Charge       = 0
  Multiplicity = 1
  Basis Set: AUG-CC-PVTZ
    Blend: AUG-CC-PVTZ
  Basis Set: (AUG-CC-PVTZ AUX)
    Blend: AUG-CC-PVTZ-JKFIT

    Orbital Energies [Eh]
    ---------------------

    Doubly Occupied:

       1A    -91.964618     2A    -20.554254     3A    -11.360239
       4A    -11.260773     5A    -11.247822     6A    -11.229692
       7A    -11.222083     8A     -8.966495     9A     -6.647688
      10A     -6.646576    11A     -6.645920    12A     -1.390393
      13A     -1.087232    14A     -1.060416    15A     -0.976234
      16A     -0.891107    17A     -0.821782    18A     -0.728340
      19A     -0.658133    20A     -0.643352    21A     -0.632966
      22A     -0.628705    23A     -0.561090    24A     -0.550010
      25A     -0.541009    26A     -0.524048    27A     -0.511924
      28A     -0.510732    29A     -0.495900    30A     -0.459161
      31A     -0.405838    32A     -0.366540

  @DF-RHF Final Energy:  -667.68057498142844

   => Energetics <=

    Nuclear Repulsion Energy =            369.5863915847505723
    One-Electron Energy =               -1650.1517946055189441
    Two-Electron Energy =                 612.8848280393399364
    Total Energy =                       -667.6805749814284354
  Basis Set: (AUG-CC-PVTZ AUX)
    Blend: AUG-CC-PVTZ-RI
    Molecular point group: c1

    Geometry (in Angstrom), charge = 0, multiplicity = 1:

       Center              X                  Y                   Z               Mass
    ------------   -----------------  -----------------  -----------------  -----------------
         S            0.714190842702     0.805075621565    -0.005727188487    31.972071174400
         O           -0.752762857298    -1.386880078435     0.008304511513    15.994914619570
         C           -2.045911157298     0.668999921565     0.006743111513    12.000000000000
         C            1.920195842702    -0.552211378435    -0.001581188487    12.000000000000
         C           -0.781068157298    -0.164022378435     0.004070811513    12.000000000000
         C           -3.296921157298    -0.217260378435     0.005677811513    12.000000000000
         C            3.331943842702     0.015940621565    -0.010771188487    12.000000000000
         H           -2.030130157298     1.314660621565     0.884348811513     1.007825032230
         H           -2.032086157298     1.319932621565    -0.866762188487     1.007825032230
         H            1.743622842702    -1.165708378435     0.883598811513     1.007825032230
         H            1.736619842702    -1.176986378435    -0.877417188487     1.007825032230
         H           -3.316341157298    -0.863368378435     0.884662811513     1.007825032230
         H           -3.318573157298    -0.858015378435    -0.877257188487     1.007825032230
         H           -4.196215157298     0.403209621565     0.008586811513     1.007825032230
         H            3.509831842702     0.623716621565    -0.900864188487     1.007825032230
         H            3.516817842702     0.635358621565     0.869829811513     1.007825032230
         H            4.056382842702    -0.802604378435    -0.008123188487     1.007825032230

  Basis Set: AUG-CC-PVTZ
    Blend: AUG-CC-PVTZ
  Basis Set: (AUG-CC-PVTZ AUX)
    Blend: AUG-CC-PVTZ-JKFIT
	 Reference Energy          =    -667.6805749814284354 [Eh]
	 Singles Energy            =      -0.0000000000000000 [Eh]
	 Same-Spin Energy          =      -0.3335809444766181 [Eh]
	 Opposite-Spin Energy      =      -1.1076188502065532 [Eh]
	 Correlation Energy        =      -1.4411997946831714 [Eh]
	 Total Energy              =    -669.1217747761115788 [Eh]

	 ================> DF-SCS-MP2 Energies <==================
	-----------------------------------------------------------
	 SCS Same-Spin Scale       =       0.3333333333333333 [-]
	 SCS Opposite-Spin Scale   =       1.2000000000000000 [-]
	 SCS Same-Spin Energy      =      -0.1111936481588727 [Eh]
	 SCS Opposite-Spin Energy  =      -1.3291426202478638 [Eh]
	 SCS Correlation Energy    =      -1.4403362684067365 [Eh]
	 SCS Total Energy          =    -669.1209112498352169 [Eh]
	-----------------------------------------------------------

  Dipole Moment: [D]
     X:     0.3104      Y:     1.0590      Z:    -0.0007     Total:     1.1036

*** Psi4 exiting successfully. Buy a developer a beer!
