                               Psi4 1.3.2 release

  ==> Input File <==

--------------------------------------------------------------------------
#psi4
#
memory 32 gb

molecule  {
0 1
  S        0.7330567     0.7799842    -0.0057183
  O       -0.7399124    -1.3854343     0.0082467
  C       -2.0509520     0.6590830     0.0068010
  C        1.9223760    -0.5510590    -0.0015950
  C       -0.7788880    -0.1628700     0.0040570
  C       -3.2947410    -0.2161080     0.0056640
  C        3.3341240     0.0170930    -0.0107850
  H       -2.0279500     1.3158130     0.8843350
  H       -2.0299060     1.3210850    -0.8667760
  H        1.7458030    -1.1645560     0.8835850
  H        1.7388000    -1.1758340    -0.8774310
  H       -3.3141610    -0.8622160     0.8846490
  H       -3.3163930    -0.8568630    -0.8772710
  H       -4.1940350     0.4043620     0.0085730
  H        3.5120120     0.6248690    -0.9008780
  H        3.5189980     0.6365110     0.8698160
  H        4.0585630    -0.8014520    -0.0081370
units angstrom
no_reorient  #important for SAPT in psi4, default
symmetry c1  #important for SAPT in psi4, default
}

set PROPERTIES_ORIGIN ["COM"]
properties('MP2/aug-cc-pvtz', properties = ['dipole'])
--------------------------------------------------------------------------

    Molecular point group: c1
  Charge       = 0
  Multiplicity = 1
  Basis Set: AUG-CC-PVTZ
    Blend: AUG-CC-PVTZ
  Basis Set: (AUG-CC-PVTZ AUX)
    Blend: AUG-CC-PVTZ-JKFIT

    Orbital Energies [Eh]
    ---------------------

    Doubly Occupied:

       1A    -91.962889     2A    -20.553483     3A    -11.360091
       4A    -11.257965     5A    -11.249664     6A    -11.229831
       7A    -11.222402     8A     -8.965302     9A     -6.646524
      10A     -6.645460    11A     -6.644748    12A     -1.390577
      13A     -1.090870    14A     -1.063112    15A     -0.976113
      16A     -0.892892    17A     -0.821183    18A     -0.727865
      19A     -0.660737    20A     -0.643383    21A     -0.633185
      22A     -0.629222    23A     -0.560625    24A     -0.552778
      25A     -0.541700    26A     -0.524348    27A     -0.512390
      28A     -0.511890    29A     -0.494161    30A     -0.462654
      31A     -0.404972    32A     -0.364530

  @DF-RHF Final Energy:  -667.68036953817716

   => Energetics <=

    Nuclear Repulsion Energy =            370.4093274682450101
    One-Electron Energy =               -1651.7843017601142037
    Two-Electron Energy =                 613.6946047536920332
    Total Energy =                       -667.6803695381771604
  Basis Set: (AUG-CC-PVTZ AUX)
    Blend: AUG-CC-PVTZ-RI
    Molecular point group: c1

    Geometry (in Angstrom), charge = 0, multiplicity = 1:

       Center              X                  Y                   Z               Mass
    ------------   -----------------  -----------------  -----------------  -----------------
         S            0.725645540200     0.787025352836    -0.005711963501    31.972071174400
         O           -0.747323559800    -1.378393147164     0.008253036499    15.994914619570
         C           -2.058363159800     0.666124152836     0.006807336499    12.000000000000
         C            1.914964840200    -0.544017847164    -0.001588663501    12.000000000000
         C           -0.786299159800    -0.155828847164     0.004063336499    12.000000000000
         C           -3.302152159800    -0.209066847164     0.005670336499    12.000000000000
         C            3.326712840200     0.024134152836    -0.010778663501    12.000000000000
         H           -2.035361159800     1.322854152836     0.884341336499     1.007825032230
         H           -2.037317159800     1.328126152836    -0.866769663501     1.007825032230
         H            1.738391840200    -1.157514847164     0.883591336499     1.007825032230
         H            1.731388840200    -1.168792847164    -0.877424663501     1.007825032230
         H           -3.321572159800    -0.855174847164     0.884655336499     1.007825032230
         H           -3.323804159800    -0.849821847164    -0.877264663501     1.007825032230
         H           -4.201446159800     0.411403152836     0.008579336499     1.007825032230
         H            3.504600840200     0.631910152836    -0.900871663501     1.007825032230
         H            3.511586840200     0.643552152836     0.869822336499     1.007825032230
         H            4.051151840200    -0.794410847164    -0.008130663501     1.007825032230

  Basis Set: AUG-CC-PVTZ
    Blend: AUG-CC-PVTZ
  Basis Set: (AUG-CC-PVTZ AUX)
    Blend: AUG-CC-PVTZ-JKFIT
	 Reference Energy          =    -667.6803695381771604 [Eh]
	 Singles Energy            =      -0.0000000000000000 [Eh]
	 Same-Spin Energy          =      -0.3337887304829550 [Eh]
	 Opposite-Spin Energy      =      -1.1074535653206441 [Eh]
	 Correlation Energy        =      -1.4412422958035991 [Eh]
	 Total Energy              =    -669.1216118339807508 [Eh]

	 ================> DF-SCS-MP2 Energies <==================
	-----------------------------------------------------------
	 SCS Same-Spin Scale       =       0.3333333333333333 [-]
	 SCS Opposite-Spin Scale   =       1.2000000000000000 [-]
	 SCS Same-Spin Energy      =      -0.1112629101609850 [Eh]
	 SCS Opposite-Spin Energy  =      -1.3289442783847729 [Eh]
	 SCS Correlation Energy    =      -1.4402071885457579 [Eh]
	 SCS Total Energy          =    -669.1205767267229021 [Eh]
	-----------------------------------------------------------

  Dipole Moment: [D]
     X:     0.2570      Y:     1.0551      Z:    -0.0005     Total:     1.0859

*** Psi4 exiting successfully. Buy a developer a beer!
