                               Psi4 1.3.2 release

  ==> Input File <==

--------------------------------------------------------------------------
#psi4
#
memory 32 gb

molecule  {
0 1
  S        0.6636022     0.8831567    -0.0057726
  O       -0.7612550    -1.3859280     0.0083390
  C       -2.0061921     0.7245308     0.0063840
  C        1.9223760    -0.5510590    -0.0015950
  C       -0.7788880    -0.1628700     0.0040570
  C       -3.2947410    -0.2161080     0.0056640
  C        3.3341240     0.0170930    -0.0107850
  H       -2.0279500     1.3158130     0.8843350
  H       -2.0299060     1.3210850    -0.8667760
  H        1.7458030    -1.1645560     0.8835850
  H        1.7388000    -1.1758340    -0.8774310
  H       -3.3141610    -0.8622160     0.8846490
  H       -3.3163930    -0.8568630    -0.8772710
  H       -4.1940350     0.4043620     0.0085730
  H        3.5120120     0.6248690    -0.9008780
  H        3.5189980     0.6365110     0.8698160
  H        4.0585630    -0.8014520    -0.0081370
units angstrom
no_reorient  #important for SAPT in psi4, default
symmetry c1  #important for SAPT in psi4, default
}

set PROPERTIES_ORIGIN ["COM"]
properties('MP2/aug-cc-pvtz', properties = ['dipole'])
--------------------------------------------------------------------------

    Molecular point group: c1
  Charge       = 0
  Multiplicity = 1
  Basis Set: AUG-CC-PVTZ
    Blend: AUG-CC-PVTZ
  Basis Set: (AUG-CC-PVTZ AUX)
    Blend: AUG-CC-PVTZ-JKFIT

    Orbital Energies [Eh]
    ---------------------

    Doubly Occupied:

       1A    -91.967187     2A    -20.557325     3A    -11.361573
       4A    -11.268363     5A    -11.242972     6A    -11.229117
       7A    -11.222738     8A     -8.967913     9A     -6.649023
      10A     -6.647749    11A     -6.647229    12A     -1.390448
      13A     -1.079405    14A     -1.051661    15A     -0.974247
      16A     -0.886361    17A     -0.823932    18A     -0.731115
      19A     -0.650731    20A     -0.647726    21A     -0.632232
      22A     -0.627565    23A     -0.563169    24A     -0.541476
      25A     -0.539360    26A     -0.523801    27A     -0.515210
      28A     -0.502429    29A     -0.501660    30A     -0.445303
      31A     -0.405006    32A     -0.370484

  @DF-RHF Final Energy:  -667.66931008582162

   => Energetics <=

    Nuclear Repulsion Energy =            367.3277964065733840
    One-Electron Energy =               -1645.6651905549986168
    Two-Electron Energy =                 610.6680840626034978
    Total Energy =                       -667.6693100858216212
  Basis Set: (AUG-CC-PVTZ AUX)
    Blend: AUG-CC-PVTZ-RI
    Molecular point group: c1

    Geometry (in Angstrom), charge = 0, multiplicity = 1:

       Center              X                  Y                   Z               Mass
    ------------   -----------------  -----------------  -----------------  -----------------
         S            0.673344282032     0.855667739144    -0.005721672520    31.972071174400
         O           -0.751512917968    -1.413416960856     0.008389927480    15.994914619570
         C           -1.996450017968     0.697041839144     0.006434927480    12.000000000000
         C            1.932118082032    -0.578547960856    -0.001544072520    12.000000000000
         C           -0.769145917968    -0.190358960856     0.004107927480    12.000000000000
         C           -3.284998917968    -0.243596960856     0.005714927480    12.000000000000
         C            3.343866082032    -0.010395960856    -0.010734072520    12.000000000000
         H           -2.018207917968     1.288324039144     0.884385927480     1.007825032230
         H           -2.020163917968     1.293596039144    -0.866725072520     1.007825032230
         H            1.755545082032    -1.192044960856     0.883635927480     1.007825032230
         H            1.748542082032    -1.203322960856    -0.877380072520     1.007825032230
         H           -3.304418917968    -0.889704960856     0.884699927480     1.007825032230
         H           -3.306650917968    -0.884351960856    -0.877220072520     1.007825032230
         H           -4.184292917968     0.376873039144     0.008623927480     1.007825032230
         H            3.521754082032     0.597380039144    -0.900827072520     1.007825032230
         H            3.528740082032     0.609022039144     0.869866927480     1.007825032230
         H            4.068305082032    -0.828940960856    -0.008086072520     1.007825032230

  Basis Set: AUG-CC-PVTZ
    Blend: AUG-CC-PVTZ
  Basis Set: (AUG-CC-PVTZ AUX)
    Blend: AUG-CC-PVTZ-JKFIT
	 Reference Energy          =    -667.6693100858216212 [Eh]
	 Singles Energy            =      -0.0000000000000000 [Eh]
	 Same-Spin Energy          =      -0.3333456153575198 [Eh]
	 Opposite-Spin Energy      =      -1.1089161341513409 [Eh]
	 Correlation Energy        =      -1.4422617495088608 [Eh]
	 Total Energy              =    -669.1115718353304374 [Eh]

	 ================> DF-SCS-MP2 Energies <==================
	-----------------------------------------------------------
	 SCS Same-Spin Scale       =       0.3333333333333333 [-]
	 SCS Opposite-Spin Scale   =       1.2000000000000000 [-]
	 SCS Same-Spin Energy      =      -0.1111152051191733 [Eh]
	 SCS Opposite-Spin Energy  =      -1.3306993609816091 [Eh]
	 SCS Correlation Energy    =      -1.4418145661007824 [Eh]
	 SCS Total Energy          =    -669.1111246519224096 [Eh]
	-----------------------------------------------------------

  Dipole Moment: [D]
     X:     0.4105      Y:     1.0537      Z:    -0.0010     Total:     1.1308

*** Psi4 exiting successfully. Buy a developer a beer!
