                               Psi4 1.3.2 release

  ==> Input File <==

--------------------------------------------------------------------------
#psi4
#
memory 32 gb

molecule  {
0 1
  S        0.7163710     0.8062280    -0.0057410
  O       -0.7612550    -1.3859280     0.0083390
  C       -2.0509520     0.6590830     0.0068010
  C        1.8496885    -0.6123144    -0.0010390
  C       -0.7261183    -0.2397976     0.0043372
  C       -3.2947410    -0.2161080     0.0056640
  C        3.3341240     0.0170930    -0.0107850
  H       -2.0279500     1.3158130     0.8843350
  H       -2.0299060     1.3210850    -0.8667760
  H        1.7458030    -1.1645560     0.8835850
  H        1.7388000    -1.1758340    -0.8774310
  H       -3.3141610    -0.8622160     0.8846490
  H       -3.3163930    -0.8568630    -0.8772710
  H       -4.1940350     0.4043620     0.0085730
  H        3.5120120     0.6248690    -0.9008780
  H        3.5189980     0.6365110     0.8698160
  H        4.0585630    -0.8014520    -0.0081370
units angstrom
no_reorient  #important for SAPT in psi4, default
symmetry c1  #important for SAPT in psi4, default
}

set PROPERTIES_ORIGIN ["COM"]
properties('MP2/aug-cc-pvtz', properties = ['dipole'])
--------------------------------------------------------------------------

    Molecular point group: c1
  Charge       = 0
  Multiplicity = 1
  Basis Set: AUG-CC-PVTZ
    Blend: AUG-CC-PVTZ
  Basis Set: (AUG-CC-PVTZ AUX)
    Blend: AUG-CC-PVTZ-JKFIT

    Orbital Energies [Eh]
    ---------------------

    Doubly Occupied:

       1A    -91.963360     2A    -20.561736     3A    -11.351731
       4A    -11.257396     5A    -11.242357     6A    -11.231704
       7A    -11.217252     8A     -8.965416     9A     -6.646593
      10A     -6.645301    11A     -6.644642    12A     -1.447407
      13A     -1.080449    14A     -1.044991    15A     -0.967056
      16A     -0.879399    17A     -0.826345    18A     -0.731450
      19A     -0.666458    20A     -0.647593    21A     -0.644026
      22A     -0.628158    23A     -0.562210    24A     -0.560107
      25A     -0.543765    26A     -0.525698    27A     -0.518813
      28A     -0.497716    29A     -0.497103    30A     -0.464322
      31A     -0.388806    32A     -0.371219

  @DF-RHF Final Energy:  -667.66675327203052

   => Energetics <=

    Nuclear Repulsion Energy =            370.2631668295445024
    One-Electron Energy =               -1651.4186818655332445
    Two-Electron Energy =                 613.4887617639581094
    Total Energy =                       -667.6667532720305189
  Basis Set: (AUG-CC-PVTZ AUX)
    Blend: AUG-CC-PVTZ-RI
    Molecular point group: c1

    Geometry (in Angstrom), charge = 0, multiplicity = 1:

       Center              X                  Y                   Z               Mass
    ------------   -----------------  -----------------  -----------------  -----------------
         S            0.718395740279     0.820275145412    -0.005826026481    31.972071174400
         O           -0.759230259721    -1.371880854588     0.008253973519    15.994914619570
         C           -2.048927259721     0.673130145412     0.006715973519    12.000000000000
         C            1.851713240279    -0.598267254588    -0.001124026481    12.000000000000
         C           -0.724093559721    -0.225750454588     0.004252173519    12.000000000000
         C           -3.292716259721    -0.202060854588     0.005578973519    12.000000000000
         C            3.336148740279     0.031140145412    -0.010870026481    12.000000000000
         H           -2.025925259721     1.329860145412     0.884249973519     1.007825032230
         H           -2.027881259721     1.335132145412    -0.866861026481     1.007825032230
         H            1.747827740279    -1.150508854588     0.883499973519     1.007825032230
         H            1.740824740279    -1.161786854588    -0.877516026481     1.007825032230
         H           -3.312136259721    -0.848168854588     0.884563973519     1.007825032230
         H           -3.314368259721    -0.842815854588    -0.877356026481     1.007825032230
         H           -4.192010259721     0.418409145412     0.008487973519     1.007825032230
         H            3.514036740279     0.638916145412    -0.900963026481     1.007825032230
         H            3.521022740279     0.650558145412     0.869730973519     1.007825032230
         H            4.060587740279    -0.787404854588    -0.008222026481     1.007825032230

  Basis Set: AUG-CC-PVTZ
    Blend: AUG-CC-PVTZ
  Basis Set: (AUG-CC-PVTZ AUX)
    Blend: AUG-CC-PVTZ-JKFIT
	 Reference Energy          =    -667.6667532720305189 [Eh]
	 Singles Energy            =      -0.0000000000000000 [Eh]
	 Same-Spin Energy          =      -0.3317436579662696 [Eh]
	 Opposite-Spin Energy      =      -1.1047765697192240 [Eh]
	 Correlation Energy        =      -1.4365202276854936 [Eh]
	 Total Energy              =    -669.1032734997160105 [Eh]

	 ================> DF-SCS-MP2 Energies <==================
	-----------------------------------------------------------
	 SCS Same-Spin Scale       =       0.3333333333333333 [-]
	 SCS Opposite-Spin Scale   =       1.2000000000000000 [-]
	 SCS Same-Spin Energy      =      -0.1105812193220899 [Eh]
	 SCS Opposite-Spin Energy  =      -1.3257318836630687 [Eh]
	 SCS Correlation Energy    =      -1.4363131029851586 [Eh]
	 SCS Total Energy          =    -669.1030663750157146 [Eh]
	-----------------------------------------------------------

  Dipole Moment: [D]
     X:     0.4406      Y:     0.7518      Z:    -0.0003     Total:     0.8714

*** Psi4 exiting successfully. Buy a developer a beer!
