                               Psi4 1.3.2 release

  ==> Input File <==

--------------------------------------------------------------------------
#psi4
#
memory 32 gb

molecule  {
0 1
  S        0.7163710     0.8062280    -0.0057410
  O       -0.7612550    -1.3859280     0.0083390
  C       -2.0509520     0.6590830     0.0068010
  C        1.9223760    -0.5510590    -0.0015950
  C       -0.7712873    -0.1507563     0.0262874
  C       -3.2947410    -0.2161080     0.0056640
  C        3.3341240     0.0170930    -0.0107850
  H       -2.0109263     1.3085180     0.8891396
  H       -2.0299060     1.3210850    -0.8667760
  H        1.7458030    -1.1645560     0.8835850
  H        1.7388000    -1.1758340    -0.8774310
  H       -3.3141610    -0.8622160     0.8846490
  H       -3.3163930    -0.8568630    -0.8772710
  H       -4.1940350     0.4043620     0.0085730
  H        3.5120120     0.6248690    -0.9008780
  H        3.5189980     0.6365110     0.8698160
  H        4.0585630    -0.8014520    -0.0081370
units angstrom
no_reorient  #important for SAPT in psi4, default
symmetry c1  #important for SAPT in psi4, default
}

set PROPERTIES_ORIGIN ["COM"]
properties('MP2/aug-cc-pvtz', properties = ['dipole'])
--------------------------------------------------------------------------

    Molecular point group: c1
  Charge       = 0
  Multiplicity = 1
  Basis Set: AUG-CC-PVTZ
    Blend: AUG-CC-PVTZ
  Basis Set: (AUG-CC-PVTZ AUX)
    Blend: AUG-CC-PVTZ-JKFIT

    Orbital Energies [Eh]
    ---------------------

    Doubly Occupied:

       1A    -91.967448     2A    -20.551215     3A    -11.359740
       4A    -11.262191     5A    -11.247737     6A    -11.230803
       7A    -11.220938     8A     -8.969405     9A     -6.650623
      10A     -6.649482    11A     -6.648834    12A     -1.380771
      13A     -1.089216    14A     -1.060925    15A     -0.979449
      16A     -0.891502    17A     -0.823031    18A     -0.725715
      19A     -0.656837    20A     -0.642403    21A     -0.629841
      22A     -0.628562    23A     -0.561748    24A     -0.551501
      25A     -0.538679    26A     -0.522329    27A     -0.511854
      28A     -0.511338    29A     -0.491380    30A     -0.460619
      31A     -0.407887    32A     -0.368286

  @DF-RHF Final Energy:  -667.67895038260383

   => Energetics <=

    Nuclear Repulsion Energy =            369.6140761687055374
    One-Electron Energy =               -1650.2014744017956218
    Two-Electron Energy =                 612.9084478504861409
    Total Energy =                       -667.6789503826038299
  Basis Set: (AUG-CC-PVTZ AUX)
    Blend: AUG-CC-PVTZ-RI
    Molecular point group: c1

    Geometry (in Angstrom), charge = 0, multiplicity = 1:

       Center              X                  Y                   Z               Mass
    ------------   -----------------  -----------------  -----------------  -----------------
         S            0.715452979330     0.805058874298    -0.008041893930    31.972071174400
         O           -0.762173020670    -1.387097125702     0.006038106070    15.994914619570
         C           -2.051870020670     0.657913874298     0.004500106070    12.000000000000
         C            1.921457979330    -0.552228125702    -0.003895893930    12.000000000000
         C           -0.772205320670    -0.151925425702     0.023986506070    12.000000000000
         C           -3.295659020670    -0.217277125702     0.003363106070    12.000000000000
         C            3.333205979330     0.015923874298    -0.013085893930    12.000000000000
         H           -2.011844320670     1.307348874298     0.886838706070     1.007825032230
         H           -2.030824020670     1.319915874298    -0.869076893930     1.007825032230
         H            1.744884979330    -1.165725125702     0.881284106070     1.007825032230
         H            1.737881979330    -1.177003125702    -0.879731893930     1.007825032230
         H           -3.315079020670    -0.863385125702     0.882348106070     1.007825032230
         H           -3.317311020670    -0.858032125702    -0.879571893930     1.007825032230
         H           -4.194953020670     0.403192874298     0.006272106070     1.007825032230
         H            3.511093979330     0.623699874298    -0.903178893930     1.007825032230
         H            3.518079979330     0.635341874298     0.867515106070     1.007825032230
         H            4.057644979330    -0.802621125702    -0.010437893930     1.007825032230

  Basis Set: AUG-CC-PVTZ
    Blend: AUG-CC-PVTZ
  Basis Set: (AUG-CC-PVTZ AUX)
    Blend: AUG-CC-PVTZ-JKFIT
	 Reference Energy          =    -667.6789503826038299 [Eh]
	 Singles Energy            =      -0.0000000000000000 [Eh]
	 Same-Spin Energy          =      -0.3339664223449166 [Eh]
	 Opposite-Spin Energy      =      -1.1082739504768893 [Eh]
	 Correlation Energy        =      -1.4422403728218058 [Eh]
	 Total Energy              =    -669.1211907554256868 [Eh]

	 ================> DF-SCS-MP2 Energies <==================
	-----------------------------------------------------------
	 SCS Same-Spin Scale       =       0.3333333333333333 [-]
	 SCS Opposite-Spin Scale   =       1.2000000000000000 [-]
	 SCS Same-Spin Energy      =      -0.1113221407816389 [Eh]
	 SCS Opposite-Spin Energy  =      -1.3299287405722671 [Eh]
	 SCS Correlation Energy    =      -1.4412508813539060 [Eh]
	 SCS Total Energy          =    -669.1202012639577106 [Eh]
	-----------------------------------------------------------

  Dipole Moment: [D]
     X:     0.4517      Y:     1.1250      Z:    -0.0007     Total:     1.2123

*** Psi4 exiting successfully. Buy a developer a beer!
