                               Psi4 1.3.2 release

  ==> Input File <==

--------------------------------------------------------------------------
#psi4
#
memory 32 gb

molecule  {
0 1
  S        0.7163710     0.8062280    -0.0057410
  O       -0.7612550    -1.3859280     0.0083390
  C       -2.0509520     0.6590830     0.0068010
  C        1.9917579    -0.4860834    -0.0021623
  C       -0.8275593    -0.0832862     0.0037499
  C       -3.2947410    -0.2161080     0.0056640
  C        3.3341240     0.0170930    -0.0107850
  H       -2.0279500     1.3158130     0.8843350
  H       -2.0299060     1.3210850    -0.8667760
  H        1.7458030    -1.1645560     0.8835850
  H        1.7388000    -1.1758340    -0.8774310
  H       -3.3141610    -0.8622160     0.8846490
  H       -3.3163930    -0.8568630    -0.8772710
  H       -4.1940350     0.4043620     0.0085730
  H        3.5120120     0.6248690    -0.9008780
  H        3.5189980     0.6365110     0.8698160
  H        4.0585630    -0.8014520    -0.0081370
units angstrom
no_reorient  #important for SAPT in psi4, default
symmetry c1  #important for SAPT in psi4, default
}

set PROPERTIES_ORIGIN ["COM"]
properties('MP2/aug-cc-pvtz', properties = ['dipole'])
--------------------------------------------------------------------------

    Molecular point group: c1
  Charge       = 0
  Multiplicity = 1
  Basis Set: AUG-CC-PVTZ
    Blend: AUG-CC-PVTZ
  Basis Set: (AUG-CC-PVTZ AUX)
    Blend: AUG-CC-PVTZ-JKFIT

    Orbital Energies [Eh]
    ---------------------

    Doubly Occupied:

       1A    -91.969615     2A    -20.545182     3A    -11.367944
       4A    -11.267621     5A    -11.250315     6A    -11.227986
       7A    -11.224851     8A     -8.971006     9A     -6.652190
      10A     -6.651295    11A     -6.650606    12A     -1.338247
      13A     -1.099793    14A     -1.080580    15A     -0.986952
      16A     -0.904460    17A     -0.815416    18A     -0.727193
      19A     -0.658792    20A     -0.647854    21A     -0.628734
      22A     -0.617507    23A     -0.575808    24A     -0.559391
      25A     -0.530667    26A     -0.528594    27A     -0.512278
      28A     -0.501682    29A     -0.470570    30A     -0.456110
      31A     -0.409761    32A     -0.362233

  @DF-RHF Final Energy:  -667.64891800688247

   => Energetics <=

    Nuclear Repulsion Energy =            369.1820405089621886
    One-Electron Energy =               -1649.2794534962586113
    Two-Electron Energy =                 612.4484949804138978
    Total Energy =                       -667.6489180068824680
  Basis Set: (AUG-CC-PVTZ AUX)
    Blend: AUG-CC-PVTZ-RI
    Molecular point group: c1

    Geometry (in Angstrom), charge = 0, multiplicity = 1:

       Center              X                  Y                   Z               Mass
    ------------   -----------------  -----------------  -----------------  -----------------
         S            0.714265621894     0.791532699620    -0.005652133822    31.972071174400
         O           -0.763360378106    -1.400623300380     0.008427866178    15.994914619570
         C           -2.053057378106     0.644387699620     0.006889866178    12.000000000000
         C            1.989652521894    -0.500778700380    -0.002073433822    12.000000000000
         C           -0.829664678106    -0.097981500380     0.003838766178    12.000000000000
         C           -3.296846378106    -0.230803300380     0.005752866178    12.000000000000
         C            3.332018621894     0.002397699620    -0.010696133822    12.000000000000
         H           -2.030055378106     1.301117699620     0.884423866178     1.007825032230
         H           -2.032011378106     1.306389699620    -0.866687133822     1.007825032230
         H            1.743697621894    -1.179251300380     0.883673866178     1.007825032230
         H            1.736694621894    -1.190529300380    -0.877342133822     1.007825032230
         H           -3.316266378106    -0.876911300380     0.884737866178     1.007825032230
         H           -3.318498378106    -0.871558300380    -0.877182133822     1.007825032230
         H           -4.196140378106     0.389666699620     0.008661866178     1.007825032230
         H            3.509906621894     0.610173699620    -0.900789133822     1.007825032230
         H            3.516892621894     0.621815699620     0.869904866178     1.007825032230
         H            4.056457621894    -0.816147300380    -0.008048133822     1.007825032230

  Basis Set: AUG-CC-PVTZ
    Blend: AUG-CC-PVTZ
  Basis Set: (AUG-CC-PVTZ AUX)
    Blend: AUG-CC-PVTZ-JKFIT
	 Reference Energy          =    -667.6489180068824680 [Eh]
	 Singles Energy            =      -0.0000000000000000 [Eh]
	 Same-Spin Energy          =      -0.3371025418076928 [Eh]
	 Opposite-Spin Energy      =      -1.1134624083019493 [Eh]
	 Correlation Energy        =      -1.4505649501096420 [Eh]
	 Total Energy              =    -669.0994829569921194 [Eh]

	 ================> DF-SCS-MP2 Energies <==================
	-----------------------------------------------------------
	 SCS Same-Spin Scale       =       0.3333333333333333 [-]
	 SCS Opposite-Spin Scale   =       1.2000000000000000 [-]
	 SCS Same-Spin Energy      =      -0.1123675139358976 [Eh]
	 SCS Opposite-Spin Energy  =      -1.3361548899623392 [Eh]
	 SCS Correlation Energy    =      -1.4485224038982367 [Eh]
	 SCS Total Energy          =    -669.0974404107806777 [Eh]
	-----------------------------------------------------------

  Dipole Moment: [D]
     X:     0.3154      Y:     1.3271      Z:    -0.0014     Total:     1.3640

*** Psi4 exiting successfully. Buy a developer a beer!
