                               Psi4 1.3.2 release

  ==> Input File <==

--------------------------------------------------------------------------
#psi4
#
memory 32 gb

molecule  {
0 1
  S        0.7163710     0.8062280    -0.0057410
  O       -0.7612550    -1.3859280     0.0083390
  C       -2.0509520     0.6590830     0.0068010
  C        1.9223760    -0.5510590    -0.0015950
  C       -0.7952493    -0.1863426    -0.0403945
  C       -3.2947410    -0.2161080     0.0056640
  C        3.3341240     0.0170930    -0.0107850
  H       -2.0620132     1.3298007     0.8739254
  H       -2.0299060     1.3210850    -0.8667760
  H        1.7458030    -1.1645560     0.8835850
  H        1.7388000    -1.1758340    -0.8774310
  H       -3.3141610    -0.8622160     0.8846490
  H       -3.3163930    -0.8568630    -0.8772710
  H       -4.1940350     0.4043620     0.0085730
  H        3.5120120     0.6248690    -0.9008780
  H        3.5189980     0.6365110     0.8698160
  H        4.0585630    -0.8014520    -0.0081370
units angstrom
no_reorient  #important for SAPT in psi4, default
symmetry c1  #important for SAPT in psi4, default
}

set PROPERTIES_ORIGIN ["COM"]
properties('MP2/aug-cc-pvtz', properties = ['dipole'])
--------------------------------------------------------------------------

    Molecular point group: c1
  Charge       = 0
  Multiplicity = 1
  Basis Set: AUG-CC-PVTZ
    Blend: AUG-CC-PVTZ
  Basis Set: (AUG-CC-PVTZ AUX)
    Blend: AUG-CC-PVTZ-JKFIT

    Orbital Energies [Eh]
    ---------------------

    Doubly Occupied:

       1A    -91.961437     2A    -20.559022     3A    -11.360508
       4A    -11.259477     5A    -11.248199     6A    -11.228588
       7A    -11.221637     8A     -8.962991     9A     -6.644140
      10A     -6.643075    11A     -6.642394    12A     -1.408215
      13A     -1.084350    14A     -1.061810    15A     -0.971947
      16A     -0.889815    17A     -0.819077    18A     -0.731742
      19A     -0.662791    20A     -0.643243    21A     -0.637706
      22A     -0.627396    23A     -0.561611    24A     -0.551119
      25A     -0.546118    26A     -0.525454    27A     -0.513683
      28A     -0.510743    29A     -0.497030    30A     -0.457771
      31A     -0.402093    32A     -0.363996

  @DF-RHF Final Energy:  -667.68080446333101

   => Energetics <=

    Nuclear Repulsion Energy =            369.4813291914521756
    One-Electron Energy =               -1649.9259056657881501
    Two-Electron Energy =                 612.7637720110049031
    Total Energy =                       -667.6808044633310146
  Basis Set: (AUG-CC-PVTZ AUX)
    Blend: AUG-CC-PVTZ-RI
    Molecular point group: c1

    Geometry (in Angstrom), charge = 0, multiplicity = 1:

       Center              X                  Y                   Z               Mass
    ------------   -----------------  -----------------  -----------------  -----------------
         S            0.718325019472     0.808494729700    -0.001133389373    31.972071174400
         O           -0.759300980528    -1.383661270300     0.012946610627    15.994914619570
         C           -2.048997980528     0.661349729700     0.011408610627    12.000000000000
         C            1.924330019472    -0.548792270300     0.003012610627    12.000000000000
         C           -0.793295280528    -0.184075870300    -0.035786889373    12.000000000000
         C           -3.292786980528    -0.213841270300     0.010271610627    12.000000000000
         C            3.336078019472     0.019359729700    -0.006177389373    12.000000000000
         H           -2.060059180528     1.332067429700     0.878533010627     1.007825032230
         H           -2.027951980528     1.323351729700    -0.862168389373     1.007825032230
         H            1.747757019472    -1.162289270300     0.888192610627     1.007825032230
         H            1.740754019472    -1.173567270300    -0.872823389373     1.007825032230
         H           -3.312206980528    -0.859949270300     0.889256610627     1.007825032230
         H           -3.314438980528    -0.854596270300    -0.872663389373     1.007825032230
         H           -4.192080980528     0.406628729700     0.013180610627     1.007825032230
         H            3.513966019472     0.627135729700    -0.896270389373     1.007825032230
         H            3.520952019472     0.638777729700     0.874423610627     1.007825032230
         H            4.060517019472    -0.799185270300    -0.003529389373     1.007825032230

  Basis Set: AUG-CC-PVTZ
    Blend: AUG-CC-PVTZ
  Basis Set: (AUG-CC-PVTZ AUX)
    Blend: AUG-CC-PVTZ-JKFIT
	 Reference Energy          =    -667.6808044633310146 [Eh]
	 Singles Energy            =      -0.0000000000000000 [Eh]
	 Same-Spin Energy          =      -0.3330843179179335 [Eh]
	 Opposite-Spin Energy      =      -1.1067382088846585 [Eh]
	 Correlation Energy        =      -1.4398225268025919 [Eh]
	 Total Energy              =    -669.1206269901335872 [Eh]

	 ================> DF-SCS-MP2 Energies <==================
	-----------------------------------------------------------
	 SCS Same-Spin Scale       =       0.3333333333333333 [-]
	 SCS Opposite-Spin Scale   =       1.2000000000000000 [-]
	 SCS Same-Spin Energy      =      -0.1110281059726445 [Eh]
	 SCS Opposite-Spin Energy  =      -1.3280858506615900 [Eh]
	 SCS Correlation Energy    =      -1.4391139566342346 [Eh]
	 SCS Total Energy          =    -669.1199184199653018 [Eh]
	-----------------------------------------------------------

  Dipole Moment: [D]
     X:     0.1329      Y:     0.9264      Z:    -0.0065     Total:     0.9359

*** Psi4 exiting successfully. Buy a developer a beer!
