                               Psi4 1.3.2 release

  ==> Input File <==

--------------------------------------------------------------------------
#psi4
#
memory 32 gb

molecule  {
0 1
  S        0.7890581     0.8674827    -0.0064225
  O       -0.7612550    -1.3859280     0.0083390
  C       -2.0509520     0.6590830     0.0068010
  C        1.9223760    -0.5510590    -0.0015950
  C       -0.7788880    -0.1628700     0.0040570
  C       -3.2947410    -0.2161080     0.0056640
  C        3.3024522     0.0901993    -0.0111378
  H       -2.0279500     1.3158130     0.8843350
  H       -2.0299060     1.3210850    -0.8667760
  H        1.7458030    -1.1645560     0.8835850
  H        1.7388000    -1.1758340    -0.8774310
  H       -3.3141610    -0.8622160     0.8846490
  H       -3.3163930    -0.8568630    -0.8772710
  H       -4.1940350     0.4043620     0.0085730
  H        3.5120120     0.6248690    -0.9008780
  H        3.5189980     0.6365110     0.8698160
  H        4.0585630    -0.8014520    -0.0081370
units angstrom
no_reorient  #important for SAPT in psi4, default
symmetry c1  #important for SAPT in psi4, default
}

set PROPERTIES_ORIGIN ["COM"]
properties('MP2/aug-cc-pvtz', properties = ['dipole'])
--------------------------------------------------------------------------

    Molecular point group: c1
  Charge       = 0
  Multiplicity = 1
  Basis Set: AUG-CC-PVTZ
    Blend: AUG-CC-PVTZ
  Basis Set: (AUG-CC-PVTZ AUX)
    Blend: AUG-CC-PVTZ-JKFIT

    Orbital Energies [Eh]
    ---------------------

    Doubly Occupied:

       1A    -91.965000     2A    -20.562921     3A    -11.367954
       4A    -11.260464     5A    -11.250001     6A    -11.228692
       7A    -11.222591     8A     -8.965278     9A     -6.646352
      10A     -6.645171    11A     -6.644534    12A     -1.394525
      13A     -1.083033    14A     -1.062560    15A     -0.961905
      16A     -0.890682    17A     -0.818904    18A     -0.732158
      19A     -0.656160    20A     -0.644321    21A     -0.634072
      22A     -0.630680    23A     -0.552904    24A     -0.544824
      25A     -0.544219    26A     -0.526491    27A     -0.520295
      28A     -0.511777    29A     -0.496630    30A     -0.451497
      31A     -0.399807    32A     -0.364887

  @DF-RHF Final Energy:  -667.66757213493202

   => Energetics <=

    Nuclear Repulsion Energy =            367.2194484019505012
    One-Electron Energy =               -1645.4114611540690021
    Two-Electron Energy =                 610.5244406171864284
    Total Energy =                       -667.6675721349320156
  Basis Set: (AUG-CC-PVTZ AUX)
    Blend: AUG-CC-PVTZ-RI
    Molecular point group: c1

    Geometry (in Angstrom), charge = 0, multiplicity = 1:

       Center              X                  Y                   Z               Mass
    ------------   -----------------  -----------------  -----------------  -----------------
         S            0.772590699414     0.843460446120    -0.006202076065    31.972071174400
         O           -0.777722400586    -1.409950253880     0.008559423935    15.994914619570
         C           -2.067419400586     0.635060746120     0.007021423935    12.000000000000
         C            1.905908599414    -0.575081253880    -0.001374576065    12.000000000000
         C           -0.795355400586    -0.186892253880     0.004277423935    12.000000000000
         C           -3.311208400586    -0.240130253880     0.005884423935    12.000000000000
         C            3.285984799414     0.066177046120    -0.010917376065    12.000000000000
         H           -2.044417400586     1.291790746120     0.884555423935     1.007825032230
         H           -2.046373400586     1.297062746120    -0.866555576065     1.007825032230
         H            1.729335599414    -1.188578253880     0.883805423935     1.007825032230
         H            1.722332599414    -1.199856253880    -0.877210576065     1.007825032230
         H           -3.330628400586    -0.886238253880     0.884869423935     1.007825032230
         H           -3.332860400586    -0.880885253880    -0.877050576065     1.007825032230
         H           -4.210502400586     0.380339746120     0.008793423935     1.007825032230
         H            3.495544599414     0.600846746120    -0.900657576065     1.007825032230
         H            3.502530599414     0.612488746120     0.870036423935     1.007825032230
         H            4.042095599414    -0.825474253880    -0.007916576065     1.007825032230

  Basis Set: AUG-CC-PVTZ
    Blend: AUG-CC-PVTZ
  Basis Set: (AUG-CC-PVTZ AUX)
    Blend: AUG-CC-PVTZ-JKFIT
	 Reference Energy          =    -667.6675721349320156 [Eh]
	 Singles Energy            =      -0.0000000000000000 [Eh]
	 Same-Spin Energy          =      -0.3340188507802344 [Eh]
	 Opposite-Spin Energy      =      -1.1096800486598188 [Eh]
	 Correlation Energy        =      -1.4436988994400533 [Eh]
	 Total Energy              =    -669.1112710343720664 [Eh]

	 ================> DF-SCS-MP2 Energies <==================
	-----------------------------------------------------------
	 SCS Same-Spin Scale       =       0.3333333333333333 [-]
	 SCS Opposite-Spin Scale   =       1.2000000000000000 [-]
	 SCS Same-Spin Energy      =      -0.1113396169267448 [Eh]
	 SCS Opposite-Spin Energy  =      -1.3316160583917827 [Eh]
	 SCS Correlation Energy    =      -1.4429556753185275 [Eh]
	 SCS Total Energy          =    -669.1105278102505736 [Eh]
	-----------------------------------------------------------

  Dipole Moment: [D]
     X:    -0.0346      Y:     0.9276      Z:     0.0011     Total:     0.9283

*** Psi4 exiting successfully. Buy a developer a beer!
