                               Psi4 1.3.2 release

  ==> Input File <==

--------------------------------------------------------------------------
#psi4
#
memory 32 gb

molecule  {
0 1
  S        0.7163710     0.8062280    -0.0057410
  O       -0.7612550    -1.3859280     0.0083390
  C       -2.0509520     0.6590830     0.0068010
  C        1.9223760    -0.5510590    -0.0015950
  C       -0.9467187    -0.2716434     0.0051567
  C       -3.2947410    -0.2161080     0.0056640
  C        3.3341240     0.0170930    -0.0107850
  H       -2.0279500     1.3158130     0.8843350
  H       -2.0299060     1.3210850    -0.8667760
  H        1.7458030    -1.1645560     0.8835850
  H        1.7388000    -1.1758340    -0.8774310
  H       -3.3141610    -0.8622160     0.8846490
  H       -3.3163930    -0.8568630    -0.8772710
  H       -4.1940350     0.4043620     0.0085730
  H        3.5120120     0.6248690    -0.9008780
  H        3.5189980     0.6365110     0.8698160
  H        4.0585630    -0.8014520    -0.0081370
units angstrom
no_reorient  #important for SAPT in psi4, default
symmetry c1  #important for SAPT in psi4, default
}

set PROPERTIES_ORIGIN ["COM"]
properties('MP2/aug-cc-pvtz', properties = ['dipole'])
--------------------------------------------------------------------------

    Molecular point group: c1
  Charge       = 0
  Multiplicity = 1
  Basis Set: AUG-CC-PVTZ
    Blend: AUG-CC-PVTZ
  Basis Set: (AUG-CC-PVTZ AUX)
    Blend: AUG-CC-PVTZ-JKFIT

    Orbital Energies [Eh]
    ---------------------

    Doubly Occupied:

       1A    -91.929939     2A    -20.587427     3A    -11.372024
       4A    -11.260076     5A    -11.246136     6A    -11.233630
       7A    -11.217607     8A     -8.930942     9A     -6.611961
      10A     -6.611100    11A     -6.610375    12A     -1.480158
      13A     -1.099235    14A     -1.055966    15A     -0.946269
      16A     -0.896438    17A     -0.802228    18A     -0.754174
      19A     -0.695012    20A     -0.666959    21A     -0.651527
      22A     -0.617769    23A     -0.577453    24A     -0.562205
      25A     -0.555228    26A     -0.543097    27A     -0.518647
      28A     -0.516784    29A     -0.500920    30A     -0.442166
      31A     -0.365283    32A     -0.339314

  @DF-RHF Final Energy:  -667.65669593520238

   => Energetics <=

    Nuclear Repulsion Energy =            369.0766550467918137
    One-Electron Energy =               -1649.0706003601123939
    Two-Electron Energy =                 612.3372493781182584
    Total Energy =                       -667.6566959352023787
  Basis Set: (AUG-CC-PVTZ AUX)
    Blend: AUG-CC-PVTZ-RI
    Molecular point group: c1

    Geometry (in Angstrom), charge = 0, multiplicity = 1:

       Center              X                  Y                   Z               Mass
    ------------   -----------------  -----------------  -----------------  -----------------
         S            0.733431965868     0.817285484739    -0.005852812823    31.972071174400
         O           -0.744194034132    -1.374870515261     0.008227187177    15.994914619570
         C           -2.033891034132     0.670140484739     0.006689187177    12.000000000000
         C            1.939436965868    -0.540001515261    -0.001706812823    12.000000000000
         C           -0.929657734132    -0.260585915261     0.005044887177    12.000000000000
         C           -3.277680034132    -0.205050515261     0.005552187177    12.000000000000
         C            3.351184965868     0.028150484739    -0.010896812823    12.000000000000
         H           -2.010889034132     1.326870484739     0.884223187177     1.007825032230
         H           -2.012845034132     1.332142484739    -0.866887812823     1.007825032230
         H            1.762863965868    -1.153498515261     0.883473187177     1.007825032230
         H            1.755860965868    -1.164776515261    -0.877542812823     1.007825032230
         H           -3.297100034132    -0.851158515261     0.884537187177     1.007825032230
         H           -3.299332034132    -0.845805515261    -0.877382812823     1.007825032230
         H           -4.176974034132     0.415419484739     0.008461187177     1.007825032230
         H            3.529072965868     0.635926484739    -0.900989812823     1.007825032230
         H            3.536058965868     0.647568484739     0.869704187177     1.007825032230
         H            4.075623965868    -0.790394515261    -0.008248812823     1.007825032230

  Basis Set: AUG-CC-PVTZ
    Blend: AUG-CC-PVTZ
  Basis Set: (AUG-CC-PVTZ AUX)
    Blend: AUG-CC-PVTZ-JKFIT
	 Reference Energy          =    -667.6566959352023787 [Eh]
	 Singles Energy            =      -0.0000000000000000 [Eh]
	 Same-Spin Energy          =      -0.3327265970505694 [Eh]
	 Opposite-Spin Energy      =      -1.1055785273892222 [Eh]
	 Correlation Energy        =      -1.4383051244397915 [Eh]
	 Total Energy              =    -669.0950010596421862 [Eh]

	 ================> DF-SCS-MP2 Energies <==================
	-----------------------------------------------------------
	 SCS Same-Spin Scale       =       0.3333333333333333 [-]
	 SCS Opposite-Spin Scale   =       1.2000000000000000 [-]
	 SCS Same-Spin Energy      =      -0.1109088656835231 [Eh]
	 SCS Opposite-Spin Energy  =      -1.3266942328670666 [Eh]
	 SCS Correlation Energy    =      -1.4376030985505897 [Eh]
	 SCS Total Energy          =    -669.0942990337529181 [Eh]
	-----------------------------------------------------------

  Dipole Moment: [D]
     X:    -1.6403      Y:     0.1685      Z:     0.0103     Total:     1.6489

*** Psi4 exiting successfully. Buy a developer a beer!
