                               Psi4 1.3.2 release

  ==> Input File <==

--------------------------------------------------------------------------
#psi4
#
memory 32 gb

molecule  {
0 1
  S        0.7492818     0.7534532    -0.0057050
  O       -0.7612550    -1.3859280     0.0083390
  C       -2.0788621     0.6141882     0.0070749
  C        1.9223760    -0.5510590    -0.0015950
  C       -0.7788880    -0.1628700     0.0040570
  C       -3.2947410    -0.2161080     0.0056640
  C        3.3341240     0.0170930    -0.0107850
  H       -2.0279500     1.3158130     0.8843350
  H       -2.0299060     1.3210850    -0.8667760
  H        1.7458030    -1.1645560     0.8835850
  H        1.7388000    -1.1758340    -0.8774310
  H       -3.3141610    -0.8622160     0.8846490
  H       -3.3163930    -0.8568630    -0.8772710
  H       -4.1940350     0.4043620     0.0085730
  H        3.5120120     0.6248690    -0.9008780
  H        3.5189980     0.6365110     0.8698160
  H        4.0585630    -0.8014520    -0.0081370
units angstrom
no_reorient  #important for SAPT in psi4, default
symmetry c1  #important for SAPT in psi4, default
}

set PROPERTIES_ORIGIN ["COM"]
properties('MP2/aug-cc-pvtz', properties = ['dipole'])
--------------------------------------------------------------------------

    Molecular point group: c1
  Charge       = 0
  Multiplicity = 1
  Basis Set: AUG-CC-PVTZ
    Blend: AUG-CC-PVTZ
  Basis Set: (AUG-CC-PVTZ AUX)
    Blend: AUG-CC-PVTZ-JKFIT

    Orbital Energies [Eh]
    ---------------------

    Doubly Occupied:

       1A    -91.963615     2A    -20.551160     3A    -11.358804
       4A    -11.256782     5A    -11.251862     6A    -11.231271
       7A    -11.219829     8A     -8.966459     9A     -6.647721
      10A     -6.646691    11A     -6.645908    12A     -1.390029
      13A     -1.096422    14A     -1.068838    15A     -0.978051
      16A     -0.894083    17A     -0.820401    18A     -0.725180
      19A     -0.664755    20A     -0.642274    21A     -0.632550
      22A     -0.628914    23A     -0.566265    24A     -0.557033
      25A     -0.541988    26A     -0.523008    27A     -0.516790
      28A     -0.511623    29A     -0.483870    30A     -0.466747
      31A     -0.404879    32A     -0.363785

  @DF-RHF Final Energy:  -667.67558210186064

   => Energetics <=

    Nuclear Repulsion Energy =            371.2681052559083241
    One-Electron Energy =               -1653.4521975443203701
    Two-Electron Energy =                 614.5085101865514616
    Total Energy =                       -667.6755821018606412
  Basis Set: (AUG-CC-PVTZ AUX)
    Blend: AUG-CC-PVTZ-RI
    Molecular point group: c1

    Geometry (in Angstrom), charge = 0, multiplicity = 1:

       Center              X                  Y                   Z               Mass
    ------------   -----------------  -----------------  -----------------  -----------------
         S            0.743205249016     0.772310884833    -0.005742615797    31.972071174400
         O           -0.767331550984    -1.367070315167     0.008301384203    15.994914619570
         C           -2.084938650984     0.633045884833     0.007037284203    12.000000000000
         C            1.916299449016    -0.532201315167    -0.001632615797    12.000000000000
         C           -0.784964550984    -0.144012315167     0.004019384203    12.000000000000
         C           -3.300817550984    -0.197250315167     0.005626384203    12.000000000000
         C            3.328047449016     0.035950684833    -0.010822615797    12.000000000000
         H           -2.034026550984     1.334670684833     0.884297384203     1.007825032230
         H           -2.035982550984     1.339942684833    -0.866813615797     1.007825032230
         H            1.739726449016    -1.145698315167     0.883547384203     1.007825032230
         H            1.732723449016    -1.156976315167    -0.877468615797     1.007825032230
         H           -3.320237550984    -0.843358315167     0.884611384203     1.007825032230
         H           -3.322469550984    -0.838005315167    -0.877308615797     1.007825032230
         H           -4.200111550984     0.423219684833     0.008535384203     1.007825032230
         H            3.505935449016     0.643726684833    -0.900915615797     1.007825032230
         H            3.512921449016     0.655368684833     0.869778384203     1.007825032230
         H            4.052486449016    -0.782594315167    -0.008174615797     1.007825032230

  Basis Set: AUG-CC-PVTZ
    Blend: AUG-CC-PVTZ
  Basis Set: (AUG-CC-PVTZ AUX)
    Blend: AUG-CC-PVTZ-JKFIT
	 Reference Energy          =    -667.6755821018606412 [Eh]
	 Singles Energy            =      -0.0000000000000000 [Eh]
	 Same-Spin Energy          =      -0.3342750706199222 [Eh]
	 Opposite-Spin Energy      =      -1.1076762436730074 [Eh]
	 Correlation Energy        =      -1.4419513142929297 [Eh]
	 Total Energy              =    -669.1175334161536057 [Eh]

	 ================> DF-SCS-MP2 Energies <==================
	-----------------------------------------------------------
	 SCS Same-Spin Scale       =       0.3333333333333333 [-]
	 SCS Opposite-Spin Scale   =       1.2000000000000000 [-]
	 SCS Same-Spin Energy      =      -0.1114250235399741 [Eh]
	 SCS Opposite-Spin Energy  =      -1.3292114924076088 [Eh]
	 SCS Correlation Energy    =      -1.4406365159475829 [Eh]
	 SCS Total Energy          =    -669.1162186178082720 [Eh]
	-----------------------------------------------------------

  Dipole Moment: [D]
     X:     0.3216      Y:     1.0523      Z:    -0.0007     Total:     1.1004

*** Psi4 exiting successfully. Buy a developer a beer!
