                               Psi4 1.3.2 release

  ==> Input File <==

--------------------------------------------------------------------------
#psi4
#
memory 32 gb

molecule  {
0 1
  S        0.7163710     0.8062280    -0.0057410
  O       -0.7612550    -1.3859280     0.0083390
  C       -2.0509520     0.6590830     0.0068010
  C        1.8559543    -0.4763053    -0.0018233
  C       -0.7788880    -0.1628700     0.0040570
  C       -3.2947410    -0.2161080     0.0056640
  C        3.3341240     0.0170930    -0.0107850
  H       -2.0279500     1.3158130     0.8843350
  H       -2.0299060     1.3210850    -0.8667760
  H        1.7458030    -1.1645560     0.8835850
  H        1.7388000    -1.1758340    -0.8774310
  H       -3.3141610    -0.8622160     0.8846490
  H       -3.3163930    -0.8568630    -0.8772710
  H       -4.1940350     0.4043620     0.0085730
  H        3.5120120     0.6248690    -0.9008780
  H        3.5189980     0.6365110     0.8698160
  H        4.0585630    -0.8014520    -0.0081370
units angstrom
no_reorient  #important for SAPT in psi4, default
symmetry c1  #important for SAPT in psi4, default
}

set PROPERTIES_ORIGIN ["COM"]
properties('MP2/aug-cc-pvtz', properties = ['dipole'])
--------------------------------------------------------------------------

    Molecular point group: c1
  Charge       = 0
  Multiplicity = 1
  Basis Set: AUG-CC-PVTZ
    Blend: AUG-CC-PVTZ
  Basis Set: (AUG-CC-PVTZ AUX)
    Blend: AUG-CC-PVTZ-JKFIT

    Orbital Energies [Eh]
    ---------------------

    Doubly Occupied:

       1A    -91.967524     2A    -20.555897     3A    -11.361033
       4A    -11.260176     5A    -11.249198     6A    -11.231374
       7A    -11.222129     8A     -8.970832     9A     -6.652177
      10A     -6.651026    11A     -6.650222    12A     -1.391930
      13A     -1.097439    14A     -1.062368    15A     -0.975348
      16A     -0.894925    17A     -0.814243    18A     -0.729267
      19A     -0.665183    20A     -0.642052    21A     -0.635992
      22A     -0.619396    23A     -0.561378    24A     -0.549136
      25A     -0.542045    26A     -0.521296    27A     -0.507052
      28A     -0.504181    29A     -0.492071    30A     -0.477585
      31A     -0.407837    32A     -0.364549

  @DF-RHF Final Energy:  -667.67098639261098

   => Energetics <=

    Nuclear Repulsion Energy =            371.1972928110914154
    One-Electron Energy =               -1653.2828363408245878
    Two-Electron Energy =                 614.4145571371220740
    Total Energy =                       -667.6709863926109847
  Basis Set: (AUG-CC-PVTZ AUX)
    Blend: AUG-CC-PVTZ-RI
    Molecular point group: c1

    Geometry (in Angstrom), charge = 0, multiplicity = 1:

       Center              X                  Y                   Z               Mass
    ------------   -----------------  -----------------  -----------------  -----------------
         S            0.723123138168     0.798628864003    -0.005717813728    31.972071174400
         O           -0.754502861832    -1.393527135997     0.008362186272    15.994914619570
         C           -2.044199861832     0.651483864003     0.006824186272    12.000000000000
         C            1.862706438168    -0.483904435997    -0.001800113728    12.000000000000
         C           -0.772135861832    -0.170469135997     0.004080186272    12.000000000000
         C           -3.287988861832    -0.223707135997     0.005687186272    12.000000000000
         C            3.340876138168     0.009493864003    -0.010761813728    12.000000000000
         H           -2.021197861832     1.308213864003     0.884358186272     1.007825032230
         H           -2.023153861832     1.313485864003    -0.866752813728     1.007825032230
         H            1.752555138168    -1.172155135997     0.883608186272     1.007825032230
         H            1.745552138168    -1.183433135997    -0.877407813728     1.007825032230
         H           -3.307408861832    -0.869815135997     0.884672186272     1.007825032230
         H           -3.309640861832    -0.864462135997    -0.877247813728     1.007825032230
         H           -4.187282861832     0.396762864003     0.008596186272     1.007825032230
         H            3.518764138168     0.617269864003    -0.900854813728     1.007825032230
         H            3.525750138168     0.628911864003     0.869839186272     1.007825032230
         H            4.065315138168    -0.809051135997    -0.008113813728     1.007825032230

  Basis Set: AUG-CC-PVTZ
    Blend: AUG-CC-PVTZ
  Basis Set: (AUG-CC-PVTZ AUX)
    Blend: AUG-CC-PVTZ-JKFIT
	 Reference Energy          =    -667.6709863926109847 [Eh]
	 Singles Energy            =      -0.0000000000000000 [Eh]
	 Same-Spin Energy          =      -0.3345377189911504 [Eh]
	 Opposite-Spin Energy      =      -1.1087391351754843 [Eh]
	 Correlation Energy        =      -1.4432768541666348 [Eh]
	 Total Energy              =    -669.1142632467775684 [Eh]

	 ================> DF-SCS-MP2 Energies <==================
	-----------------------------------------------------------
	 SCS Same-Spin Scale       =       0.3333333333333333 [-]
	 SCS Opposite-Spin Scale   =       1.2000000000000000 [-]
	 SCS Same-Spin Energy      =      -0.1115125729970501 [Eh]
	 SCS Opposite-Spin Energy  =      -1.3304869622105810 [Eh]
	 SCS Correlation Energy    =      -1.4419995352076311 [Eh]
	 SCS Total Energy          =    -669.1129859278186132 [Eh]
	-----------------------------------------------------------

  Dipole Moment: [D]
     X:     0.2053      Y:     1.1303      Z:    -0.0009     Total:     1.1488

*** Psi4 exiting successfully. Buy a developer a beer!
