                               Psi4 1.4a3.dev225

  ==> Input File <==

--------------------------------------------------------------------------
#psi4
#
memory 32 gb

molecule  {
0 1
  S       -0.7336830    -0.7988290    -0.0000010
  O        0.7842810     1.3701820    -0.0000010
  C        2.0392260    -0.6993310     0.0000000
  C       -1.9177210     0.5806550    -0.0000020
  C        0.7808630     0.1263141    -0.0000010
  C        3.3000750     0.1543340     0.0000020
  C       -3.3406260     0.0364320     0.0000030
  H        2.0053990    -1.3579180     0.8761960
  H        2.0054010    -1.3579160    -0.8761980
  H       -1.7269280     1.1964810     0.8811220
  H       -1.7269330     1.1964770    -0.8811310
  H        3.3326310     0.7974220     0.8814170
  H        3.3326220     0.7974380    -0.8814010
  H        4.1880090    -0.4829760    -0.0000080
  H       -3.5331250    -0.5739300    -0.8857830
  H       -3.5331200    -0.5739250     0.8857940
  H       -4.0504940     0.8682350     0.0000030
units angstrom
no_reorient  #important for SAPT in psi4, default
symmetry c1  #important for SAPT in psi4, default
}

set PROPERTIES_ORIGIN ["COM"]
properties('MP2/aug-cc-pvtz', properties = ['dipole'])
--------------------------------------------------------------------------

    Molecular point group: c1
  Charge       = 0
  Multiplicity = 1
  Basis Set: AUG-CC-PVTZ
    Blend: AUG-CC-PVTZ
  Basis Set: (AUG-CC-PVTZ AUX)
    Blend: AUG-CC-PVTZ-JKFIT

    Orbital Energies [Eh]
    ---------------------

    Doubly Occupied:

       1A    -91.967802     2A    -20.551091     3A    -11.361445
       4A    -11.262624     5A    -11.248541     6A    -11.231141
       7A    -11.221670     8A     -8.969549     9A     -6.650754
      10A     -6.649638    11A     -6.648994    12A     -1.375376
      13A     -1.088465    14A     -1.062090    15A     -0.978620
      16A     -0.892601    17A     -0.823088    18A     -0.726379
      19A     -0.656100    20A     -0.642162    21A     -0.628933
      22A     -0.627878    23A     -0.561776    24A     -0.551013
      25A     -0.537205    26A     -0.522441    27A     -0.511920
      28A     -0.510491    29A     -0.489921    30A     -0.460698
      31A     -0.408806    32A     -0.367917

  @DF-RHF Final Energy:  -667.67786804447223

   => Energetics <=

    Nuclear Repulsion Energy =            369.0859799049318326
    One-Electron Energy =               -1649.1534429350242590
    Two-Electron Energy =                 612.3895949856200787
    Total Energy =                       -667.6778680444722340
  Basis Set: (AUG-CC-PVTZ AUX)
    Blend: AUG-CC-PVTZ-RI
    Molecular point group: c1

    Geometry (in Angstrom), charge = 0, multiplicity = 1:

       Center              X                  Y                   Z               Mass
    ------------   -----------------  -----------------  -----------------  -----------------
         S           -0.731350884600    -0.792644503383    -0.000000890882    31.972071174400
         O            0.786613115400     1.376366496617    -0.000000890882    15.994914619570
         C            2.041558115400    -0.693146503383     0.000000109118    12.000000000000
         C           -1.915388884600     0.586839496617    -0.000001890882    12.000000000000
         C            0.783195115400     0.132498596617    -0.000000890882    12.000000000000
         C            3.302407115400     0.160518496617     0.000002109118    12.000000000000
         C           -3.338293884600     0.042616496617     0.000003109118    12.000000000000
         H            2.007731115400    -1.351733503383     0.876196109118     1.007825032230
         H            2.007733115400    -1.351731503383    -0.876197890882     1.007825032230
         H           -1.724595884600     1.202665496617     0.881122109118     1.007825032230
         H           -1.724600884600     1.202661496617    -0.881130890882     1.007825032230
         H            3.334963115400     0.803606496617     0.881417109118     1.007825032230
         H            3.334954115400     0.803622496617    -0.881400890882     1.007825032230
         H            4.190341115400    -0.476791503383    -0.000007890882     1.007825032230
         H           -3.530792884600    -0.567745503383    -0.885782890882     1.007825032230
         H           -3.530787884600    -0.567740503383     0.885794109118     1.007825032230
         H           -4.048161884600     0.874419496617     0.000003109118     1.007825032230

  Basis Set: AUG-CC-PVTZ
    Blend: AUG-CC-PVTZ
  Basis Set: (AUG-CC-PVTZ AUX)
    Blend: AUG-CC-PVTZ-JKFIT
	 Reference Energy          =    -667.6778680444722340 [Eh]
	 Singles Energy            =      -0.0000000000000000 [Eh]
	 Same-Spin Energy          =      -0.3341099559501198 [Eh]
	 Opposite-Spin Energy      =      -1.1087513595704150 [Eh]
	 Correlation Energy        =      -1.4428613155205348 [Eh]
	 Total Energy              =    -669.1207293599927652 [Eh]

	 ================> DF-SCS-MP2 Energies <==================
	-----------------------------------------------------------
	 SCS Same-Spin Scale       =       0.3333333333333333 [-]
	 SCS Opposite-Spin Scale   =       1.2000000000000000 [-]
	 SCS Same-Spin Energy      =      -0.1113699853167066 [Eh]
	 SCS Opposite-Spin Energy  =      -1.3305016314844980 [Eh]
	 SCS Correlation Energy    =      -1.4418716168012045 [Eh]
	 SCS Total Energy          =    -669.1197396612734565 [Eh]
	-----------------------------------------------------------

  Dipole Moment: [D]
     X:    -0.4346      Y:    -1.1448      Z:     0.0000     Total:     1.2245

*** Psi4 exiting successfully. Buy a developer a beer!
