                               Psi4 1.4a3.dev225

  ==> Input File <==

--------------------------------------------------------------------------
#psi4
#
memory 32 gb

molecule  {
0 1
  S       -0.7336830    -0.7988290    -0.0000010
  O        0.7842810     1.3701820    -0.0000010
  C        2.0392260    -0.6993310     0.0000000
  C       -1.9177210     0.5806550    -0.0000020
  C        0.7809180     0.1463140    -0.0000010
  C        3.3000750     0.1543340     0.0000020
  C       -3.3873267     0.0185702     0.0000032
  H        2.0053990    -1.3579180     0.8761960
  H        2.0054010    -1.3579160    -0.8761980
  H       -1.7269280     1.1964810     0.8811220
  H       -1.7269330     1.1964770    -0.8811310
  H        3.3326310     0.7974220     0.8814170
  H        3.3326220     0.7974380    -0.8814010
  H        4.1880090    -0.4829760    -0.0000080
  H       -3.5331250    -0.5739300    -0.8857830
  H       -3.5331200    -0.5739250     0.8857940
  H       -4.0504940     0.8682350     0.0000030
units angstrom
no_reorient  #important for SAPT in psi4, default
symmetry c1  #important for SAPT in psi4, default
}

set PROPERTIES_ORIGIN ["COM"]
properties('MP2/aug-cc-pvtz', properties = ['dipole'])
--------------------------------------------------------------------------

    Molecular point group: c1
  Charge       = 0
  Multiplicity = 1
  Basis Set: AUG-CC-PVTZ
    Blend: AUG-CC-PVTZ
  Basis Set: (AUG-CC-PVTZ AUX)
    Blend: AUG-CC-PVTZ-JKFIT

    Orbital Energies [Eh]
    ---------------------

    Doubly Occupied:

       1A    -91.965376     2A    -20.553852     3A    -11.360133
       4A    -11.263293     5A    -11.248131     6A    -11.229162
       7A    -11.221424     8A     -8.967001     9A     -6.648193
      10A     -6.647094    11A     -6.646442    12A     -1.389484
      13A     -1.082685    14A     -1.058082    15A     -0.974925
      16A     -0.892023    17A     -0.822779    18A     -0.726957
      19A     -0.656864    20A     -0.641442    21A     -0.631790
      22A     -0.627747    23A     -0.567990    24A     -0.546080
      25A     -0.543367    26A     -0.520843    27A     -0.517914
      28A     -0.502902    29A     -0.494270    30A     -0.461545
      31A     -0.405519    32A     -0.366453

  @DF-RHF Final Energy:  -667.67885239445047

   => Energetics <=

    Nuclear Repulsion Energy =            368.3877728952377879
    One-Electron Energy =               -1647.7697268867407274
    Two-Electron Energy =                 611.7031015970525232
    Total Energy =                       -667.6788523944504732
  Basis Set: (AUG-CC-PVTZ AUX)
    Blend: AUG-CC-PVTZ-RI
    Molecular point group: c1

    Geometry (in Angstrom), charge = 0, multiplicity = 1:

       Center              X                  Y                   Z               Mass
    ------------   -----------------  -----------------  -----------------  -----------------
         S           -0.726609071898    -0.792861853959    -0.000000911213    31.972071174400
         O            0.791354928102     1.376149146041    -0.000000911213    15.994914619570
         C            2.046299928102    -0.693363853959     0.000000088787    12.000000000000
         C           -1.910647071898     0.586622146041    -0.000001911213    12.000000000000
         C            0.787991928102     0.152281146041    -0.000000911213    12.000000000000
         C            3.307148928102     0.160301146041     0.000002088787    12.000000000000
         C           -3.380252771898     0.024537346041     0.000003288787    12.000000000000
         H            2.012472928102    -1.351950853959     0.876196088787     1.007825032230
         H            2.012474928102    -1.351948853959    -0.876197911213     1.007825032230
         H           -1.719854071898     1.202448146041     0.881122088787     1.007825032230
         H           -1.719859071898     1.202444146041    -0.881130911213     1.007825032230
         H            3.339704928102     0.803389146041     0.881417088787     1.007825032230
         H            3.339695928102     0.803405146041    -0.881400911213     1.007825032230
         H            4.195082928102    -0.477008853959    -0.000007911213     1.007825032230
         H           -3.526051071898    -0.567962853959    -0.885782911213     1.007825032230
         H           -3.526046071898    -0.567957853959     0.885794088787     1.007825032230
         H           -4.043420071898     0.874202146041     0.000003088787     1.007825032230

  Basis Set: AUG-CC-PVTZ
    Blend: AUG-CC-PVTZ
  Basis Set: (AUG-CC-PVTZ AUX)
    Blend: AUG-CC-PVTZ-JKFIT
	 Reference Energy          =    -667.6788523944504732 [Eh]
	 Singles Energy            =      -0.0000000000000000 [Eh]
	 Same-Spin Energy          =      -0.3333159613280524 [Eh]
	 Opposite-Spin Energy      =      -1.1075780566583111 [Eh]
	 Correlation Energy        =      -1.4408940179863634 [Eh]
	 Total Energy              =    -669.1197464124368253 [Eh]

	 ================> DF-SCS-MP2 Energies <==================
	-----------------------------------------------------------
	 SCS Same-Spin Scale       =       0.3333333333333333 [-]
	 SCS Opposite-Spin Scale   =       1.2000000000000000 [-]
	 SCS Same-Spin Energy      =      -0.1111053204426841 [Eh]
	 SCS Opposite-Spin Energy  =      -1.3290936679899732 [Eh]
	 SCS Correlation Energy    =      -1.4401989884326574 [Eh]
	 SCS Total Energy          =    -669.1190513828831854 [Eh]
	-----------------------------------------------------------

  Dipole Moment: [D]
     X:    -0.3737      Y:    -1.0516      Z:     0.0000     Total:     1.1160

*** Psi4 exiting successfully. Buy a developer a beer!
