                               Psi4 1.3.2 release

  ==> Input File <==

--------------------------------------------------------------------------
#psi4
#
memory 32 gb

molecule  {
0 1
  S        0.7644739     0.8474884    -0.0061967
  O       -0.7612550    -1.3859280     0.0083390
  C       -2.0509520     0.6590830     0.0068010
  C        1.9223760    -0.5510590    -0.0015950
  C       -0.7788880    -0.1628700     0.0040570
  C       -3.2947410    -0.2161080     0.0056640
  C        3.3134343     0.0660160    -0.0110230
  H       -2.0279500     1.3158130     0.8843350
  H       -2.0299060     1.3210850    -0.8667760
  H        1.7458030    -1.1645560     0.8835850
  H        1.7388000    -1.1758340    -0.8774310
  H       -3.3141610    -0.8622160     0.8846490
  H       -3.3163930    -0.8568630    -0.8772710
  H       -4.1940350     0.4043620     0.0085730
  H        3.5120120     0.6248690    -0.9008780
  H        3.5189980     0.6365110     0.8698160
  H        4.0585630    -0.8014520    -0.0081370
units angstrom
no_reorient  #important for SAPT in psi4, default
symmetry c1  #important for SAPT in psi4, default
}

set PROPERTIES_ORIGIN ["COM"]
properties('MP2/aug-cc-pvtz', properties = ['dipole'])
--------------------------------------------------------------------------

    Molecular point group: c1
  Charge       = 0
  Multiplicity = 1
  Basis Set: AUG-CC-PVTZ
    Blend: AUG-CC-PVTZ
  Basis Set: (AUG-CC-PVTZ AUX)
    Blend: AUG-CC-PVTZ-JKFIT

    Orbital Energies [Eh]
    ---------------------

    Doubly Occupied:

       1A    -91.965158     2A    -20.559930     3A    -11.365361
       4A    -11.260622     5A    -11.249216     6A    -11.228852
       7A    -11.222086     8A     -8.965884     9A     -6.646994
      10A     -6.645848    11A     -6.645204    12A     -1.393008
      13A     -1.084127    14A     -1.062020    15A     -0.966793
      16A     -0.890651    17A     -0.819578    18A     -0.730645
      19A     -0.656675    20A     -0.643353    21A     -0.632211
      22A     -0.631367    23A     -0.553054    24A     -0.549322
      25A     -0.542893    26A     -0.525429    27A     -0.517648
      28A     -0.511531    29A     -0.495680    30A     -0.455114
      31A     -0.402487    32A     -0.365584

  @DF-RHF Final Energy:  -667.67426813034365

   => Energetics <=

    Nuclear Repulsion Energy =            367.9700916183296044
    One-Electron Energy =               -1646.9200637304600150
    Two-Electron Energy =                 611.2757039817867053
    Total Energy =                       -667.6742681303436484
  Basis Set: (AUG-CC-PVTZ AUX)
    Blend: AUG-CC-PVTZ-RI
    Molecular point group: c1

    Geometry (in Angstrom), charge = 0, multiplicity = 1:

       Center              X                  Y                   Z               Mass
    ------------   -----------------  -----------------  -----------------  -----------------
         S            0.753548634054     0.831339897008    -0.006049103177    31.972071174400
         O           -0.772180265946    -1.402076502992     0.008486596823    15.994914619570
         C           -2.061877265946     0.642934497008     0.006948596823    12.000000000000
         C            1.911450734054    -0.567207502992    -0.001447403177    12.000000000000
         C           -0.789813265946    -0.179018502992     0.004204596823    12.000000000000
         C           -3.305666265946    -0.232256502992     0.005811596823    12.000000000000
         C            3.302509034054     0.049867497008    -0.010875403177    12.000000000000
         H           -2.038875265946     1.299664497008     0.884482596823     1.007825032230
         H           -2.040831265946     1.304936497008    -0.866628403177     1.007825032230
         H            1.734877734054    -1.180704502992     0.883732596823     1.007825032230
         H            1.727874734054    -1.191982502992    -0.877283403177     1.007825032230
         H           -3.325086265946    -0.878364502992     0.884796596823     1.007825032230
         H           -3.327318265946    -0.873011502992    -0.877123403177     1.007825032230
         H           -4.204960265946     0.388213497008     0.008720596823     1.007825032230
         H            3.501086734054     0.608720497008    -0.900730403177     1.007825032230
         H            3.508072734054     0.620362497008     0.869963596823     1.007825032230
         H            4.047637734054    -0.817600502992    -0.007989403177     1.007825032230

  Basis Set: AUG-CC-PVTZ
    Blend: AUG-CC-PVTZ
  Basis Set: (AUG-CC-PVTZ AUX)
    Blend: AUG-CC-PVTZ-JKFIT
	 Reference Energy          =    -667.6742681303436484 [Eh]
	 Singles Energy            =      -0.0000000000000000 [Eh]
	 Same-Spin Energy          =      -0.3337994868094183 [Eh]
	 Opposite-Spin Energy      =      -1.1088301839084849 [Eh]
	 Correlation Energy        =      -1.4426296707179032 [Eh]
	 Total Energy              =    -669.1168978010615547 [Eh]

	 ================> DF-SCS-MP2 Energies <==================
	-----------------------------------------------------------
	 SCS Same-Spin Scale       =       0.3333333333333333 [-]
	 SCS Opposite-Spin Scale   =       1.2000000000000000 [-]
	 SCS Same-Spin Energy      =      -0.1112664956031394 [Eh]
	 SCS Opposite-Spin Energy  =      -1.3305962206901818 [Eh]
	 SCS Correlation Energy    =      -1.4418627162933213 [Eh]
	 SCS Total Energy          =    -669.1161308466370201 [Eh]
	-----------------------------------------------------------

  Dipole Moment: [D]
     X:     0.0996      Y:     0.9720      Z:     0.0004     Total:     0.9771

*** Psi4 exiting successfully. Buy a developer a beer!
