                               Psi4 1.3.2 release

  ==> Input File <==

--------------------------------------------------------------------------
#psi4
#
memory 32 gb

molecule  {
0 1
  S        0.7418557     0.8272274    -0.0598342
  O       -0.7612550    -1.3859280     0.0083390
  C       -2.0509520     0.6590830     0.0068010
  C        1.9223760    -0.5510590    -0.0015950
  C       -0.7788880    -0.1628700     0.0040570
  C       -3.2947410    -0.2161080     0.0056640
  C        3.3341240     0.0170930    -0.0107850
  H       -2.0279500     1.3158130     0.8843350
  H       -2.0299060     1.3210850    -0.8667760
  H        1.7746053    -1.1870817     0.8728987
  H        1.7388000    -1.1758340    -0.8774310
  H       -3.3141610    -0.8622160     0.8846490
  H       -3.3163930    -0.8568630    -0.8772710
  H       -4.1940350     0.4043620     0.0085730
  H        3.5120120     0.6248690    -0.9008780
  H        3.5189980     0.6365110     0.8698160
  H        4.0585630    -0.8014520    -0.0081370
units angstrom
no_reorient  #important for SAPT in psi4, default
symmetry c1  #important for SAPT in psi4, default
}

set PROPERTIES_ORIGIN ["COM"]
properties('MP2/aug-cc-pvtz', properties = ['dipole'])
--------------------------------------------------------------------------

    Molecular point group: c1
  Charge       = 0
  Multiplicity = 1
  Basis Set: AUG-CC-PVTZ
    Blend: AUG-CC-PVTZ
  Basis Set: (AUG-CC-PVTZ AUX)
    Blend: AUG-CC-PVTZ-JKFIT

    Orbital Energies [Eh]
    ---------------------

    Doubly Occupied:

       1A    -91.966550     2A    -20.557336     3A    -11.363367
       4A    -11.260117     5A    -11.248939     6A    -11.228465
       7A    -11.221888     8A     -8.967614     9A     -6.648761
      10A     -6.647653    11A     -6.646995    12A     -1.391841
      13A     -1.084994    14A     -1.061634    15A     -0.972120
      16A     -0.890790    17A     -0.820033    18A     -0.729696
      19A     -0.658261    20A     -0.641856    21A     -0.633462
      22A     -0.627016    23A     -0.561583    24A     -0.550519
      25A     -0.540267    26A     -0.523682    27A     -0.511642
      28A     -0.509680    29A     -0.494350    30A     -0.461773
      31A     -0.405021    32A     -0.366635

  @DF-RHF Final Energy:  -667.67890326195140

   => Energetics <=

    Nuclear Repulsion Energy =            368.4862423140435226
    One-Electron Energy =               -1647.9412042347826173
    Two-Electron Energy =                 611.7760586587877469
    Total Energy =                       -667.6789032619514046
  Basis Set: (AUG-CC-PVTZ AUX)
    Blend: AUG-CC-PVTZ-RI
    Molecular point group: c1

    Geometry (in Angstrom), charge = 0, multiplicity = 1:

       Center              X                  Y                   Z               Mass
    ------------   -----------------  -----------------  -----------------  -----------------
         S            0.734707347346     0.821732135883    -0.045092063449    31.972071174400
         O           -0.768403352654    -1.391423264117     0.023081136551    15.994914619570
         C           -2.058100352654     0.653587735883     0.021543136551    12.000000000000
         C            1.915227647346    -0.556554264117     0.013147136551    12.000000000000
         C           -0.786036352654    -0.168365264117     0.018799136551    12.000000000000
         C           -3.301889352654    -0.221603264117     0.020406136551    12.000000000000
         C            3.326975647346     0.011597735883     0.003957136551    12.000000000000
         H           -2.035098352654     1.310317735883     0.899077136551     1.007825032230
         H           -2.037054352654     1.315589735883    -0.852033863449     1.007825032230
         H            1.767456947346    -1.192576964117     0.887640836551     1.007825032230
         H            1.731651647346    -1.181329264117    -0.862688863449     1.007825032230
         H           -3.321309352654    -0.867711264117     0.899391136551     1.007825032230
         H           -3.323541352654    -0.862358264117    -0.862528863449     1.007825032230
         H           -4.201183352654     0.398866735883     0.023315136551     1.007825032230
         H            3.504863647346     0.619373735883    -0.886135863449     1.007825032230
         H            3.511849647346     0.631015735883     0.884558136551     1.007825032230
         H            4.051414647346    -0.806947264117     0.006605136551     1.007825032230

  Basis Set: AUG-CC-PVTZ
    Blend: AUG-CC-PVTZ
  Basis Set: (AUG-CC-PVTZ AUX)
    Blend: AUG-CC-PVTZ-JKFIT
	 Reference Energy          =    -667.6789032619514046 [Eh]
	 Singles Energy            =      -0.0000000000000000 [Eh]
	 Same-Spin Energy          =      -0.3335858186106314 [Eh]
	 Opposite-Spin Energy      =      -1.1081536692614218 [Eh]
	 Correlation Energy        =      -1.4417394878720531 [Eh]
	 Total Energy              =    -669.1206427498234461 [Eh]

	 ================> DF-SCS-MP2 Energies <==================
	-----------------------------------------------------------
	 SCS Same-Spin Scale       =       0.3333333333333333 [-]
	 SCS Opposite-Spin Scale   =       1.2000000000000000 [-]
	 SCS Same-Spin Energy      =      -0.1111952728702104 [Eh]
	 SCS Opposite-Spin Energy  =      -1.3297844031137060 [Eh]
	 SCS Correlation Energy    =      -1.4409796759839164 [Eh]
	 SCS Total Energy          =    -669.1198829379353583 [Eh]
	-----------------------------------------------------------

  Dipole Moment: [D]
     X:     0.1855      Y:     1.0042      Z:     0.0236     Total:     1.0215

*** Psi4 exiting successfully. Buy a developer a beer!
