                               Psi4 1.3.2 release

  ==> Input File <==

--------------------------------------------------------------------------
#psi4
#
memory 32 gb

molecule  {
0 1
  S        0.7163710     0.8062280    -0.0057410
  O       -0.7612550    -1.3859280     0.0083390
  C       -2.0509520     0.6590830     0.0068010
  C        1.9223760    -0.5510590    -0.0015950
  C       -0.7376134    -0.0951689     0.0041827
  C       -3.3388404    -0.1498139     0.0058451
  C        3.3341240     0.0170930    -0.0107850
  H       -2.0279500     1.3158130     0.8843350
  H       -2.0299060     1.3210850    -0.8667760
  H        1.7458030    -1.1645560     0.8835850
  H        1.7388000    -1.1758340    -0.8774310
  H       -3.3141610    -0.8622160     0.8846490
  H       -3.3163930    -0.8568630    -0.8772710
  H       -4.1940350     0.4043620     0.0085730
  H        3.5120120     0.6248690    -0.9008780
  H        3.5189980     0.6365110     0.8698160
  H        4.0585630    -0.8014520    -0.0081370
units angstrom
no_reorient  #important for SAPT in psi4, default
symmetry c1  #important for SAPT in psi4, default
}

set PROPERTIES_ORIGIN ["COM"]
properties('MP2/aug-cc-pvtz', properties = ['dipole'])
--------------------------------------------------------------------------

    Molecular point group: c1
  Charge       = 0
  Multiplicity = 1
  Basis Set: AUG-CC-PVTZ
    Blend: AUG-CC-PVTZ
  Basis Set: (AUG-CC-PVTZ AUX)
    Blend: AUG-CC-PVTZ-JKFIT

    Orbital Energies [Eh]
    ---------------------

    Doubly Occupied:

       1A    -91.976605     2A    -20.541124     3A    -11.362038
       4A    -11.266654     5A    -11.247721     6A    -11.234366
       7A    -11.220255     8A     -8.979347     9A     -6.660684
      10A     -6.659385    11A     -6.658805    12A     -1.341653
      13A     -1.097948    14A     -1.059603    15A     -0.991444
      16A     -0.894630    17A     -0.829703    18A     -0.721564
      19A     -0.655816    20A     -0.641312    21A     -0.625692
      22A     -0.615971    23A     -0.573627    24A     -0.558561
      25A     -0.530091    26A     -0.525000    27A     -0.501882
      28A     -0.501603    29A     -0.473323    30A     -0.464426
      31A     -0.414463    32A     -0.373256

  @DF-RHF Final Energy:  -667.65833102755505

   => Energetics <=

    Nuclear Repulsion Energy =            369.2251288009628638
    One-Electron Energy =               -1649.3698199118039156
    Two-Electron Energy =                 612.4863600832859447
    Total Energy =                       -667.6583310275550502
  Basis Set: (AUG-CC-PVTZ AUX)
    Blend: AUG-CC-PVTZ-RI
    Molecular point group: c1

    Geometry (in Angstrom), charge = 0, multiplicity = 1:

       Center              X                  Y                   Z               Mass
    ------------   -----------------  -----------------  -----------------  -----------------
         S            0.716658135215     0.792606613352    -0.005772209824    31.972071174400
         O           -0.760967864785    -1.399549386648     0.008307790176    15.994914619570
         C           -2.050664864785     0.645461613352     0.006769790176    12.000000000000
         C            1.922663135215    -0.564680386648    -0.001626209824    12.000000000000
         C           -0.737326264785    -0.108790286648     0.004151490176    12.000000000000
         C           -3.338553264785    -0.163435286648     0.005813890176    12.000000000000
         C            3.334411135215     0.003471613352    -0.010816209824    12.000000000000
         H           -2.027662864785     1.302191613352     0.884303790176     1.007825032230
         H           -2.029618864785     1.307463613352    -0.866807209824     1.007825032230
         H            1.746090135215    -1.178177386648     0.883553790176     1.007825032230
         H            1.739087135215    -1.189455386648    -0.877462209824     1.007825032230
         H           -3.313873864785    -0.875837386648     0.884617790176     1.007825032230
         H           -3.316105864785    -0.870484386648    -0.877302209824     1.007825032230
         H           -4.193747864785     0.390740613352     0.008541790176     1.007825032230
         H            3.512299135215     0.611247613352    -0.900909209824     1.007825032230
         H            3.519285135215     0.622889613352     0.869784790176     1.007825032230
         H            4.058850135215    -0.815073386648    -0.008168209824     1.007825032230

  Basis Set: AUG-CC-PVTZ
    Blend: AUG-CC-PVTZ
  Basis Set: (AUG-CC-PVTZ AUX)
    Blend: AUG-CC-PVTZ-JKFIT
	 Reference Energy          =    -667.6583310275550502 [Eh]
	 Singles Energy            =      -0.0000000000000000 [Eh]
	 Same-Spin Energy          =      -0.3357828370362678 [Eh]
	 Opposite-Spin Energy      =      -1.1117517224005951 [Eh]
	 Correlation Energy        =      -1.4475345594368627 [Eh]
	 Total Energy              =    -669.1058655869919676 [Eh]

	 ================> DF-SCS-MP2 Energies <==================
	-----------------------------------------------------------
	 SCS Same-Spin Scale       =       0.3333333333333333 [-]
	 SCS Opposite-Spin Scale   =       1.2000000000000000 [-]
	 SCS Same-Spin Energy      =      -0.1119276123454226 [Eh]
	 SCS Opposite-Spin Energy  =      -1.3341020668807140 [Eh]
	 SCS Correlation Energy    =      -1.4460296792261365 [Eh]
	 SCS Total Energy          =    -669.1043607067812218 [Eh]
	-----------------------------------------------------------

  Dipole Moment: [D]
     X:     0.9161      Y:     1.4443      Z:    -0.0043     Total:     1.7104

*** Psi4 exiting successfully. Buy a developer a beer!
