                               Psi4 1.3.2 release

  ==> Input File <==

--------------------------------------------------------------------------
#psi4
#
memory 32 gb

molecule  {
0 1
  S        0.6809082     0.7716369     0.0753876
  O       -0.7612550    -1.3859280     0.0083390
  C       -2.0509520     0.6590830     0.0068010
  C        1.9223760    -0.5510590    -0.0015950
  C       -0.7788880    -0.1628700     0.0040570
  C       -3.2947410    -0.2161080     0.0056640
  C        3.3341240     0.0170930    -0.0107850
  H       -2.0279500     1.3158130     0.8843350
  H       -2.0299060     1.3210850    -0.8667760
  H        1.7030139    -1.1293749     0.8975887
  H        1.7388000    -1.1758340    -0.8774310
  H       -3.3141610    -0.8622160     0.8846490
  H       -3.3163930    -0.8568630    -0.8772710
  H       -4.1940350     0.4043620     0.0085730
  H        3.5120120     0.6248690    -0.9008780
  H        3.5189980     0.6365110     0.8698160
  H        4.0585630    -0.8014520    -0.0081370
units angstrom
no_reorient  #important for SAPT in psi4, default
symmetry c1  #important for SAPT in psi4, default
}

set PROPERTIES_ORIGIN ["COM"]
properties('MP2/aug-cc-pvtz', properties = ['dipole'])
--------------------------------------------------------------------------

    Molecular point group: c1
  Charge       = 0
  Multiplicity = 1
  Basis Set: AUG-CC-PVTZ
    Blend: AUG-CC-PVTZ
  Basis Set: (AUG-CC-PVTZ AUX)
    Blend: AUG-CC-PVTZ-JKFIT

    Orbital Energies [Eh]
    ---------------------

    Doubly Occupied:

       1A    -91.963726     2A    -20.548559     3A    -11.354650
       4A    -11.262916     5A    -11.246344     6A    -11.232436
       7A    -11.220137     8A     -8.966762     9A     -6.648031
      10A     -6.646885    11A     -6.646213    12A     -1.387959
      13A     -1.091797    14A     -1.060703    15A     -0.983857
      16A     -0.891384    17A     -0.824312    18A     -0.724534
      19A     -0.659179    20A     -0.643693    21A     -0.632939
      22A     -0.628490    23A     -0.562017    24A     -0.553154
      25A     -0.542000    26A     -0.523476    27A     -0.514802
      28A     -0.512099    29A     -0.492732    30A     -0.455739
      31A     -0.407272    32A     -0.366702

  @DF-RHF Final Energy:  -667.67923627070172

   => Energetics <=

    Nuclear Repulsion Energy =            371.1950173781174271
    One-Electron Energy =               -1653.3575126754321900
    Two-Electron Energy =                 614.4832590266130410
    Total Energy =                       -667.6792362707017219
  Basis Set: (AUG-CC-PVTZ AUX)
    Blend: AUG-CC-PVTZ-RI
    Molecular point group: c1

    Geometry (in Angstrom), charge = 0, multiplicity = 1:

       Center              X                  Y                   Z               Mass
    ------------   -----------------  -----------------  -----------------  -----------------
         S            0.690878449328     0.780705417715     0.053294669275    31.972071174400
         O           -0.751284750672    -1.376859482285    -0.013753930725    15.994914619570
         C           -2.040981750672     0.668151517715    -0.015291930725    12.000000000000
         C            1.932346249328    -0.541990482285    -0.023687930725    12.000000000000
         C           -0.768917750672    -0.153801482285    -0.018035930725    12.000000000000
         C           -3.284770750672    -0.207039482285    -0.016428930725    12.000000000000
         C            3.344094249328     0.026161517715    -0.032877930725    12.000000000000
         H           -2.017979750672     1.324881517715     0.862242069275     1.007825032230
         H           -2.019935750672     1.330153517715    -0.888868930725     1.007825032230
         H            1.712984149328    -1.120306382285     0.875495769275     1.007825032230
         H            1.748770249328    -1.166765482285    -0.899523930725     1.007825032230
         H           -3.304190750672    -0.853147482285     0.862556069275     1.007825032230
         H           -3.306422750672    -0.847794482285    -0.899363930725     1.007825032230
         H           -4.184064750672     0.413430517715    -0.013519930725     1.007825032230
         H            3.521982249328     0.633937517715    -0.922970930725     1.007825032230
         H            3.528968249328     0.645579517715     0.847723069275     1.007825032230
         H            4.068533249328    -0.792383482285    -0.030229930725     1.007825032230

  Basis Set: AUG-CC-PVTZ
    Blend: AUG-CC-PVTZ
  Basis Set: (AUG-CC-PVTZ AUX)
    Blend: AUG-CC-PVTZ-JKFIT
	 Reference Energy          =    -667.6792362707017219 [Eh]
	 Singles Energy            =      -0.0000000000000000 [Eh]
	 Same-Spin Energy          =      -0.3338467845103620 [Eh]
	 Opposite-Spin Energy      =      -1.1072405027461809 [Eh]
	 Correlation Energy        =      -1.4410872872565430 [Eh]
	 Total Energy              =    -669.1203235579582724 [Eh]

	 ================> DF-SCS-MP2 Energies <==================
	-----------------------------------------------------------
	 SCS Same-Spin Scale       =       0.3333333333333333 [-]
	 SCS Opposite-Spin Scale   =       1.2000000000000000 [-]
	 SCS Same-Spin Energy      =      -0.1112822615034540 [Eh]
	 SCS Opposite-Spin Energy  =      -1.3286886032954170 [Eh]
	 SCS Correlation Energy    =      -1.4399708647988709 [Eh]
	 SCS Total Energy          =    -669.1192071355005737 [Eh]
	-----------------------------------------------------------

  Dipole Moment: [D]
     X:     0.5689      Y:     1.1382      Z:    -0.0336     Total:     1.2729

*** Psi4 exiting successfully. Buy a developer a beer!
