                               Psi4 1.3.2 release

  ==> Input File <==

--------------------------------------------------------------------------
#psi4
#
memory 32 gb

molecule  {
0 1
  S        0.6992298     0.8321766    -0.0057607
  O       -0.7826029    -1.3860491     0.0084300
  C       -2.0509520     0.6590830     0.0068010
  C        1.9223760    -0.5510590    -0.0015950
  C       -0.7788880    -0.1628700     0.0040570
  C       -3.2947410    -0.2161080     0.0056640
  C        3.3341240     0.0170930    -0.0107850
  H       -2.0279500     1.3158130     0.8843350
  H       -2.0299060     1.3210850    -0.8667760
  H        1.7458030    -1.1645560     0.8835850
  H        1.7388000    -1.1758340    -0.8774310
  H       -3.3141610    -0.8622160     0.8846490
  H       -3.3163930    -0.8568630    -0.8772710
  H       -4.1940350     0.4043620     0.0085730
  H        3.5120120     0.6248690    -0.9008780
  H        3.5189980     0.6365110     0.8698160
  H        4.0585630    -0.8014520    -0.0081370
units angstrom
no_reorient  #important for SAPT in psi4, default
symmetry c1  #important for SAPT in psi4, default
}

set PROPERTIES_ORIGIN ["COM"]
properties('MP2/aug-cc-pvtz', properties = ['dipole'])
--------------------------------------------------------------------------

    Molecular point group: c1
  Charge       = 0
  Multiplicity = 1
  Basis Set: AUG-CC-PVTZ
    Blend: AUG-CC-PVTZ
  Basis Set: (AUG-CC-PVTZ AUX)
    Blend: AUG-CC-PVTZ-JKFIT

    Orbital Energies [Eh]
    ---------------------

    Doubly Occupied:

       1A    -91.967874     2A    -20.553951     3A    -11.359530
       4A    -11.264684     5A    -11.245867     6A    -11.230437
       7A    -11.219842     8A     -8.969156     9A     -6.650326
      10A     -6.649160    11A     -6.648546    12A     -1.389750
      13A     -1.084694    14A     -1.059198    15A     -0.977860
      16A     -0.888884    17A     -0.822363    18A     -0.727232
      19A     -0.656460    20A     -0.641450    21A     -0.632028
      22A     -0.628076    23A     -0.562755    24A     -0.550068
      25A     -0.539981    26A     -0.522610    27A     -0.511898
      28A     -0.511280    29A     -0.493133    30A     -0.456779
      31A     -0.406980    32A     -0.369266

  @DF-RHF Final Energy:  -667.67979620005110

   => Energetics <=

    Nuclear Repulsion Energy =            368.7950584344106915
    One-Electron Energy =               -1648.5654704449927976
    Two-Electron Energy =                 612.0906158105309487
    Total Energy =                       -667.6797962000511006
  Basis Set: (AUG-CC-PVTZ AUX)
    Blend: AUG-CC-PVTZ-RI
    Molecular point group: c1

    Geometry (in Angstrom), charge = 0, multiplicity = 1:

       Center              X                  Y                   Z               Mass
    ------------   -----------------  -----------------  -----------------  -----------------
         S            0.706765003264     0.825164958258    -0.005767716450    31.972071174400
         O           -0.775067696736    -1.393060741742     0.008422983550    15.994914619570
         C           -2.043416796736     0.652071358258     0.006793983550    12.000000000000
         C            1.929911203264    -0.558070641742    -0.001602016450    12.000000000000
         C           -0.771352796736    -0.169881641742     0.004049983550    12.000000000000
         C           -3.287205796736    -0.223119641742     0.005656983550    12.000000000000
         C            3.341659203264     0.010081358258    -0.010792016450    12.000000000000
         H           -2.020414796736     1.308801358258     0.884327983550     1.007825032230
         H           -2.022370796736     1.314073358258    -0.866783016450     1.007825032230
         H            1.753338203264    -1.171567641742     0.883577983550     1.007825032230
         H            1.746335203264    -1.182845641742    -0.877438016450     1.007825032230
         H           -3.306625796736    -0.869227641742     0.884641983550     1.007825032230
         H           -3.308857796736    -0.863874641742    -0.877278016450     1.007825032230
         H           -4.186499796736     0.397350358258     0.008565983550     1.007825032230
         H            3.519547203264     0.617857358258    -0.900885016450     1.007825032230
         H            3.526533203264     0.629499358258     0.869808983550     1.007825032230
         H            4.066098203264    -0.808463641742    -0.008144016450     1.007825032230

  Basis Set: AUG-CC-PVTZ
    Blend: AUG-CC-PVTZ
  Basis Set: (AUG-CC-PVTZ AUX)
    Blend: AUG-CC-PVTZ-JKFIT
	 Reference Energy          =    -667.6797962000511006 [Eh]
	 Singles Energy            =      -0.0000000000000000 [Eh]
	 Same-Spin Energy          =      -0.3334906378708286 [Eh]
	 Opposite-Spin Energy      =      -1.1078966460312196 [Eh]
	 Correlation Energy        =      -1.4413872839020483 [Eh]
	 Total Energy              =    -669.1211834839531321 [Eh]

	 ================> DF-SCS-MP2 Energies <==================
	-----------------------------------------------------------
	 SCS Same-Spin Scale       =       0.3333333333333333 [-]
	 SCS Opposite-Spin Scale   =       1.2000000000000000 [-]
	 SCS Same-Spin Energy      =      -0.1111635459569429 [Eh]
	 SCS Opposite-Spin Energy  =      -1.3294759752374634 [Eh]
	 SCS Correlation Energy    =      -1.4406395211944063 [Eh]
	 SCS Total Energy          =    -669.1204357212454852 [Eh]
	-----------------------------------------------------------

  Dipole Moment: [D]
     X:     0.4447      Y:     1.0643      Z:    -0.0012     Total:     1.1534

*** Psi4 exiting successfully. Buy a developer a beer!
