                               Psi4 1.4a3.dev225

  ==> Input File <==

--------------------------------------------------------------------------
#psi4
#
memory 32 gb

molecule  {
0 1
  S       -0.7336830    -0.7988290    -0.0000010
  O        0.7842810     1.3701820    -0.0000010
  C        2.0392260    -0.6993310     0.0000000
  C       -1.9177210     0.5806550    -0.0000020
  C        0.7809180     0.1463140    -0.0000010
  C        3.3000750     0.1543340     0.0000020
  C       -3.2939253     0.0542938     0.0000028
  H        2.0053990    -1.3579180     0.8761960
  H        2.0054010    -1.3579160    -0.8761980
  H       -1.7269280     1.1964810     0.8811220
  H       -1.7269330     1.1964770    -0.8811310
  H        3.3326310     0.7974220     0.8814170
  H        3.3326220     0.7974380    -0.8814010
  H        4.1880090    -0.4829760    -0.0000080
  H       -3.5331250    -0.5739300    -0.8857830
  H       -3.5331200    -0.5739250     0.8857940
  H       -4.0504940     0.8682350     0.0000030
units angstrom
no_reorient  #important for SAPT in psi4, default
symmetry c1  #important for SAPT in psi4, default
}

set PROPERTIES_ORIGIN ["COM"]
properties('MP2/aug-cc-pvtz', properties = ['dipole'])
--------------------------------------------------------------------------

    Molecular point group: c1
  Charge       = 0
  Multiplicity = 1
  Basis Set: AUG-CC-PVTZ
    Blend: AUG-CC-PVTZ
  Basis Set: (AUG-CC-PVTZ AUX)
    Blend: AUG-CC-PVTZ-JKFIT

    Orbital Energies [Eh]
    ---------------------

    Doubly Occupied:

       1A    -91.965912     2A    -20.554393     3A    -11.360777
       4A    -11.259927     5A    -11.248550     6A    -11.232407
       7A    -11.221734     8A     -8.967682     9A     -6.648862
      10A     -6.647745    11A     -6.647081    12A     -1.390053
      13A     -1.092177    14A     -1.062789    15A     -0.978055
      16A     -0.889399    17A     -0.819966    18A     -0.728306
      19A     -0.659204    20A     -0.642853    21A     -0.632929
      22A     -0.629460    23A     -0.560542    24A     -0.554507
      25A     -0.539093    26A     -0.527626    27A     -0.515593
      28A     -0.504463    29A     -0.492153    30A     -0.456462
      31A     -0.406417    32A     -0.367500

  @DF-RHF Final Energy:  -667.67753124151727

   => Energetics <=

    Nuclear Repulsion Energy =            369.9482905051471562
    One-Electron Energy =               -1650.8424037263796436
    Two-Electron Energy =                 613.2165819797153290
    Total Energy =                       -667.6775312415172721
  Basis Set: (AUG-CC-PVTZ AUX)
    Blend: AUG-CC-PVTZ-RI
    Molecular point group: c1

    Geometry (in Angstrom), charge = 0, multiplicity = 1:

       Center              X                  Y                   Z               Mass
    ------------   -----------------  -----------------  -----------------  -----------------
         S           -0.736103879455    -0.796493370266    -0.000000870550    31.972071174400
         O            0.781860120545     1.372517629734    -0.000000870550    15.994914619570
         C            2.036805120545    -0.696995370266     0.000000129450    12.000000000000
         C           -1.920141879455     0.582990629734    -0.000001870550    12.000000000000
         C            0.778497120545     0.148649629734    -0.000000870550    12.000000000000
         C            3.297654120545     0.156669629734     0.000002129450    12.000000000000
         C           -3.296346179455     0.056629429734     0.000002929450    12.000000000000
         H            2.002978120545    -1.355582370266     0.876196129450     1.007825032230
         H            2.002980120545    -1.355580370266    -0.876197870550     1.007825032230
         H           -1.729348879455     1.198816629734     0.881122129450     1.007825032230
         H           -1.729353879455     1.198812629734    -0.881130870550     1.007825032230
         H            3.330210120545     0.799757629734     0.881417129450     1.007825032230
         H            3.330201120545     0.799773629734    -0.881400870550     1.007825032230
         H            4.185588120545    -0.480640370266    -0.000007870550     1.007825032230
         H           -3.535545879455    -0.571594370266    -0.885782870550     1.007825032230
         H           -3.535540879455    -0.571589370266     0.885794129450     1.007825032230
         H           -4.052914879455     0.870570629734     0.000003129450     1.007825032230

  Basis Set: AUG-CC-PVTZ
    Blend: AUG-CC-PVTZ
  Basis Set: (AUG-CC-PVTZ AUX)
    Blend: AUG-CC-PVTZ-JKFIT
	 Reference Energy          =    -667.6775312415172721 [Eh]
	 Singles Energy            =      -0.0000000000000000 [Eh]
	 Same-Spin Energy          =      -0.3339498255564460 [Eh]
	 Opposite-Spin Energy      =      -1.1081359538868589 [Eh]
	 Correlation Energy        =      -1.4420857794433051 [Eh]
	 Total Energy              =    -669.1196170209606180 [Eh]

	 ================> DF-SCS-MP2 Energies <==================
	-----------------------------------------------------------
	 SCS Same-Spin Scale       =       0.3333333333333333 [-]
	 SCS Opposite-Spin Scale   =       1.2000000000000000 [-]
	 SCS Same-Spin Energy      =      -0.1113166085188153 [Eh]
	 SCS Opposite-Spin Energy  =      -1.3297631446642306 [Eh]
	 SCS Correlation Energy    =      -1.4410797531830459 [Eh]
	 SCS Total Energy          =    -669.1186109947003615 [Eh]
	-----------------------------------------------------------

  Dipole Moment: [D]
     X:    -0.3413      Y:    -1.0489      Z:     0.0000     Total:     1.1031

*** Psi4 exiting successfully. Buy a developer a beer!
