                               Psi4 1.3.2 release

  ==> Input File <==

--------------------------------------------------------------------------
#psi4
#
memory 32 gb

molecule  {
0 1
  S        0.7163710     0.8062280    -0.0057410
  O       -0.7612550    -1.3859280     0.0083390
  C       -2.0509520     0.6590830     0.0068010
  C        1.9223760    -0.5510590    -0.0015950
  C       -0.7934269    -0.1849454     0.0040168
  C       -3.2792774    -0.2376817     0.0056043
  C        3.3341240     0.0170930    -0.0107850
  H       -2.0279500     1.3158130     0.8843350
  H       -2.0299060     1.3210850    -0.8667760
  H        1.7458030    -1.1645560     0.8835850
  H        1.7388000    -1.1758340    -0.8774310
  H       -3.3141610    -0.8622160     0.8846490
  H       -3.3163930    -0.8568630    -0.8772710
  H       -4.1940350     0.4043620     0.0085730
  H        3.5120120     0.6248690    -0.9008780
  H        3.5189980     0.6365110     0.8698160
  H        4.0585630    -0.8014520    -0.0081370
units angstrom
no_reorient  #important for SAPT in psi4, default
symmetry c1  #important for SAPT in psi4, default
}

set PROPERTIES_ORIGIN ["COM"]
properties('MP2/aug-cc-pvtz', properties = ['dipole'])
--------------------------------------------------------------------------

    Molecular point group: c1
  Charge       = 0
  Multiplicity = 1
  Basis Set: AUG-CC-PVTZ
    Blend: AUG-CC-PVTZ
  Basis Set: (AUG-CC-PVTZ AUX)
    Blend: AUG-CC-PVTZ-JKFIT

    Orbital Energies [Eh]
    ---------------------

    Doubly Occupied:

       1A    -91.961281     2A    -20.558144     3A    -11.359316
       4A    -11.259456     5A    -11.248478     6A    -11.228571
       7A    -11.222101     8A     -8.962901     9A     -6.644060
      10A     -6.642988    11A     -6.642311    12A     -1.407428
      13A     -1.084624    14A     -1.062015    15A     -0.972226
      16A     -0.890154    17A     -0.819205    18A     -0.730439
      19A     -0.661239    20A     -0.644939    21A     -0.637574
      22A     -0.628314    23A     -0.561625    24A     -0.548201
      25A     -0.547169    26A     -0.522439    27A     -0.514440
      28A     -0.512509    29A     -0.500093    30A     -0.457464
      31A     -0.401350    32A     -0.364206

  @DF-RHF Final Energy:  -667.68119354402870

   => Energetics <=

    Nuclear Repulsion Energy =            369.7412686967805371
    One-Electron Energy =               -1650.4504024892387406
    Two-Electron Energy =                 613.0279402484295588
    Total Energy =                       -667.6811935440287016
  Basis Set: (AUG-CC-PVTZ AUX)
    Blend: AUG-CC-PVTZ-RI
    Molecular point group: c1

    Geometry (in Angstrom), charge = 0, multiplicity = 1:

       Center              X                  Y                   Z               Mass
    ------------   -----------------  -----------------  -----------------  -----------------
         S            0.716276976251     0.810665212497    -0.005730866351    31.972071174400
         O           -0.761349023749    -1.381490787503     0.008349133649    15.994914619570
         C           -2.051046023749     0.663520212497     0.006811133649    12.000000000000
         C            1.922281976251    -0.546621787503    -0.001584866351    12.000000000000
         C           -0.793520923749    -0.180508187503     0.004026933649    12.000000000000
         C           -3.279371423749    -0.233244487503     0.005614433649    12.000000000000
         C            3.334029976251     0.021530212497    -0.010774866351    12.000000000000
         H           -2.028044023749     1.320250212497     0.884345133649     1.007825032230
         H           -2.030000023749     1.325522212497    -0.866765866351     1.007825032230
         H            1.745708976251    -1.160118787503     0.883595133649     1.007825032230
         H            1.738705976251    -1.171396787503    -0.877420866351     1.007825032230
         H           -3.314255023749    -0.857778787503     0.884659133649     1.007825032230
         H           -3.316487023749    -0.852425787503    -0.877260866351     1.007825032230
         H           -4.194129023749     0.408799212497     0.008583133649     1.007825032230
         H            3.511917976251     0.629306212497    -0.900867866351     1.007825032230
         H            3.518903976251     0.640948212497     0.869826133649     1.007825032230
         H            4.058468976251    -0.797014787503    -0.008126866351     1.007825032230

  Basis Set: AUG-CC-PVTZ
    Blend: AUG-CC-PVTZ
  Basis Set: (AUG-CC-PVTZ AUX)
    Blend: AUG-CC-PVTZ-JKFIT
	 Reference Energy          =    -667.6811935440287016 [Eh]
	 Singles Energy            =      -0.0000000000000000 [Eh]
	 Same-Spin Energy          =      -0.3330962362903739 [Eh]
	 Opposite-Spin Energy      =      -1.1066526998590669 [Eh]
	 Correlation Energy        =      -1.4397489361494409 [Eh]
	 Total Energy              =    -669.1209424801780870 [Eh]

	 ================> DF-SCS-MP2 Energies <==================
	-----------------------------------------------------------
	 SCS Same-Spin Scale       =       0.3333333333333333 [-]
	 SCS Opposite-Spin Scale   =       1.2000000000000000 [-]
	 SCS Same-Spin Energy      =      -0.1110320787634580 [Eh]
	 SCS Opposite-Spin Energy  =      -1.3279832398308802 [Eh]
	 SCS Correlation Energy    =      -1.4390153185943382 [Eh]
	 SCS Total Energy          =    -669.1202088626230307 [Eh]
	-----------------------------------------------------------

  Dipole Moment: [D]
     X:     0.1449      Y:     0.9185      Z:     0.0004     Total:     0.9299

*** Psi4 exiting successfully. Buy a developer a beer!
