                               Psi4 1.3.2 release

  ==> Input File <==

--------------------------------------------------------------------------
#psi4
#
memory 32 gb

molecule  {
0 1
  S        0.7247711     0.7931425    -0.0057331
  O       -0.7612550    -1.3859280     0.0083390
  C       -2.0580762     0.6479511     0.0068698
  C        1.9223760    -0.5510590    -0.0015950
  C       -0.7788880    -0.1628700     0.0040570
  C       -3.2947410    -0.2161080     0.0056640
  C        3.3341240     0.0170930    -0.0107850
  H       -2.0279500     1.3158130     0.8843350
  H       -2.0299060     1.3210850    -0.8667760
  H        1.7458030    -1.1645560     0.8835850
  H        1.7388000    -1.1758340    -0.8774310
  H       -3.3141610    -0.8622160     0.8846490
  H       -3.3163930    -0.8568630    -0.8772710
  H       -4.1940350     0.4043620     0.0085730
  H        3.5120120     0.6248690    -0.9008780
  H        3.5189980     0.6365110     0.8698160
  H        4.0585630    -0.8014520    -0.0081370
units angstrom
no_reorient  #important for SAPT in psi4, default
symmetry c1  #important for SAPT in psi4, default
}

set PROPERTIES_ORIGIN ["COM"]
properties('MP2/aug-cc-pvtz', properties = ['dipole'])
--------------------------------------------------------------------------

    Molecular point group: c1
  Charge       = 0
  Multiplicity = 1
  Basis Set: AUG-CC-PVTZ
    Blend: AUG-CC-PVTZ
  Basis Set: (AUG-CC-PVTZ AUX)
    Blend: AUG-CC-PVTZ-JKFIT

    Orbital Energies [Eh]
    ---------------------

    Doubly Occupied:

       1A    -91.965069     2A    -20.553115     3A    -11.359552
       4A    -11.260154     5A    -11.248748     6A    -11.230339
       7A    -11.220824     8A     -8.967119     9A     -6.648330
      10A     -6.647240    11A     -6.646551    12A     -1.390102
      13A     -1.089503    14A     -1.062996    15A     -0.977323
      16A     -0.891676    17A     -0.821383    18A     -0.726983
      19A     -0.660049    20A     -0.642080    21A     -0.632631
      22A     -0.628687    23A     -0.561930    24A     -0.553374
      25A     -0.541114    26A     -0.523255    27A     -0.513465
      28A     -0.511403    29A     -0.491450    30A     -0.461809
      31A     -0.406015    32A     -0.366281

  @DF-RHF Final Energy:  -667.68047215497415

   => Energetics <=

    Nuclear Repulsion Energy =            369.9911595529230794
    One-Electron Energy =               -1650.9421721956889542
    Two-Electron Energy =                 613.2705404877916635
    Total Energy =                       -667.6804721549741544
  Basis Set: (AUG-CC-PVTZ AUX)
    Blend: AUG-CC-PVTZ-RI
    Molecular point group: c1

    Geometry (in Angstrom), charge = 0, multiplicity = 1:

       Center              X                  Y                   Z               Mass
    ------------   -----------------  -----------------  -----------------  -----------------
         S            0.723220161929     0.797818300163    -0.005742255392    31.972071174400
         O           -0.762805938071    -1.381252199837     0.008329844608    15.994914619570
         C           -2.059627138071     0.652626900163     0.006860644608    12.000000000000
         C            1.920825061929    -0.546383199837    -0.001604155392    12.000000000000
         C           -0.780438938071    -0.158194199837     0.004047844608    12.000000000000
         C           -3.296291938071    -0.211432199837     0.005654844608    12.000000000000
         C            3.332573061929     0.021768800163    -0.010794155392    12.000000000000
         H           -2.029500938071     1.320488800163     0.884325844608     1.007825032230
         H           -2.031456938071     1.325760800163    -0.866785155392     1.007825032230
         H            1.744252061929    -1.159880199837     0.883575844608     1.007825032230
         H            1.737249061929    -1.171158199837    -0.877440155392     1.007825032230
         H           -3.315711938071    -0.857540199837     0.884639844608     1.007825032230
         H           -3.317943938071    -0.852187199837    -0.877280155392     1.007825032230
         H           -4.195585938071     0.409037800163     0.008563844608     1.007825032230
         H            3.510461061929     0.629544800163    -0.900887155392     1.007825032230
         H            3.517447061929     0.641186800163     0.869806844608     1.007825032230
         H            4.057012061929    -0.796776199837    -0.008146155392     1.007825032230

  Basis Set: AUG-CC-PVTZ
    Blend: AUG-CC-PVTZ
  Basis Set: (AUG-CC-PVTZ AUX)
    Blend: AUG-CC-PVTZ-JKFIT
	 Reference Energy          =    -667.6804721549741544 [Eh]
	 Singles Energy            =      -0.0000000000000000 [Eh]
	 Same-Spin Energy          =      -0.3337438220945402 [Eh]
	 Opposite-Spin Energy      =      -1.1075763965850487 [Eh]
	 Correlation Energy        =      -1.4413202186795888 [Eh]
	 Total Energy              =    -669.1217923736537614 [Eh]

	 ================> DF-SCS-MP2 Energies <==================
	-----------------------------------------------------------
	 SCS Same-Spin Scale       =       0.3333333333333333 [-]
	 SCS Opposite-Spin Scale   =       1.2000000000000000 [-]
	 SCS Same-Spin Energy      =      -0.1112479406981801 [Eh]
	 SCS Opposite-Spin Energy  =      -1.3290916759020583 [Eh]
	 SCS Correlation Energy    =      -1.4403396166002385 [Eh]
	 SCS Total Energy          =    -669.1208117715743811 [Eh]
	-----------------------------------------------------------

  Dipole Moment: [D]
     X:     0.3411      Y:     1.0600      Z:    -0.0008     Total:     1.1136

*** Psi4 exiting successfully. Buy a developer a beer!
