                               Psi4 1.3.2 release

  ==> Input File <==

--------------------------------------------------------------------------
#psi4
#
memory 32 gb

molecule  {
0 1
  S        0.7289316     0.8169360    -0.0327923
  O       -0.7612550    -1.3859280     0.0083390
  C       -2.0509520     0.6590830     0.0068010
  C        1.9223760    -0.5510590    -0.0015950
  C       -0.7788880    -0.1628700     0.0040570
  C       -3.2947410    -0.2161080     0.0056640
  C        3.3341240     0.0170930    -0.0107850
  H       -2.0279500     1.3158130     0.8843350
  H       -2.0299060     1.3210850    -0.8667760
  H        1.7601794    -1.1759140     0.8783759
  H        1.7388000    -1.1758340    -0.8774310
  H       -3.3141610    -0.8622160     0.8846490
  H       -3.3163930    -0.8568630    -0.8772710
  H       -4.1940350     0.4043620     0.0085730
  H        3.5120120     0.6248690    -0.9008780
  H        3.5189980     0.6365110     0.8698160
  H        4.0585630    -0.8014520    -0.0081370
units angstrom
no_reorient  #important for SAPT in psi4, default
symmetry c1  #important for SAPT in psi4, default
}

set PROPERTIES_ORIGIN ["COM"]
properties('MP2/aug-cc-pvtz', properties = ['dipole'])
--------------------------------------------------------------------------

    Molecular point group: c1
  Charge       = 0
  Multiplicity = 1
  Basis Set: AUG-CC-PVTZ
    Blend: AUG-CC-PVTZ
  Basis Set: (AUG-CC-PVTZ AUX)
    Blend: AUG-CC-PVTZ-JKFIT

    Orbital Energies [Eh]
    ---------------------

    Doubly Occupied:

       1A    -91.966025     2A    -20.555531     3A    -11.361586
       4A    -11.260718     5A    -11.248345     6A    -11.229278
       7A    -11.221504     8A     -8.967460     9A     -6.648631
      10A     -6.647521    11A     -6.646863    12A     -1.390967
      13A     -1.086242    14A     -1.061394    15A     -0.974590
      16A     -0.890816    17A     -0.820874    18A     -0.728637
      19A     -0.658392    20A     -0.642082    21A     -0.633013
      22A     -0.627896    23A     -0.561601    24A     -0.550915
      25A     -0.540530    26A     -0.523543    27A     -0.511817
      28A     -0.510640    29A     -0.494005    30A     -0.460875
      31A     -0.405676    32A     -0.366877

  @DF-RHF Final Energy:  -667.68008676797660

   => Energetics <=

    Nuclear Repulsion Energy =            369.0365875367597255
    One-Electron Energy =               -1649.0436609674623014
    Two-Electron Energy =                 612.3269866627259717
    Total Energy =                       -667.6800867679766043
  Basis Set: (AUG-CC-PVTZ AUX)
    Blend: AUG-CC-PVTZ-RI
    Molecular point group: c1

    Geometry (in Angstrom), charge = 0, multiplicity = 1:

       Center              X                  Y                   Z               Mass
    ------------   -----------------  -----------------  -----------------  -----------------
         S            0.725406849977     0.814132774089    -0.025421114106    31.972071174400
         O           -0.764779750023    -1.388731225911     0.015710185894    15.994914619570
         C           -2.054476750023     0.656279774089     0.014172185894    12.000000000000
         C            1.918851249977    -0.553862225911     0.005776185894    12.000000000000
         C           -0.782412750023    -0.165673225911     0.011428185894    12.000000000000
         C           -3.298265750023    -0.218911225911     0.013035185894    12.000000000000
         C            3.330599249977     0.014289774089    -0.003413814106    12.000000000000
         H           -2.031474750023     1.313009774089     0.891706185894     1.007825032230
         H           -2.033430750023     1.318281774089    -0.859404814106     1.007825032230
         H            1.756654649977    -1.178717225911     0.885747085894     1.007825032230
         H            1.735275249977    -1.178637225911    -0.870059814106     1.007825032230
         H           -3.317685750023    -0.865019225911     0.892020185894     1.007825032230
         H           -3.319917750023    -0.859666225911    -0.869899814106     1.007825032230
         H           -4.197559750023     0.401558774089     0.015944185894     1.007825032230
         H            3.508487249977     0.622065774089    -0.893506814106     1.007825032230
         H            3.515473249977     0.633707774089     0.877187185894     1.007825032230
         H            4.055038249977    -0.804255225911    -0.000765814106     1.007825032230

  Basis Set: AUG-CC-PVTZ
    Blend: AUG-CC-PVTZ
  Basis Set: (AUG-CC-PVTZ AUX)
    Blend: AUG-CC-PVTZ-JKFIT
	 Reference Energy          =    -667.6800867679766043 [Eh]
	 Singles Energy            =      -0.0000000000000000 [Eh]
	 Same-Spin Energy          =      -0.3335874575893334 [Eh]
	 Opposite-Spin Energy      =      -1.1078671719638771 [Eh]
	 Correlation Energy        =      -1.4414546295532105 [Eh]
	 Total Energy              =    -669.1215413975297679 [Eh]

	 ================> DF-SCS-MP2 Energies <==================
	-----------------------------------------------------------
	 SCS Same-Spin Scale       =       0.3333333333333333 [-]
	 SCS Opposite-Spin Scale   =       1.2000000000000000 [-]
	 SCS Same-Spin Energy      =      -0.1111958191964445 [Eh]
	 SCS Opposite-Spin Energy  =      -1.3294406063566524 [Eh]
	 SCS Correlation Energy    =      -1.4406364255530968 [Eh]
	 SCS Total Energy          =    -669.1207231935296704 [Eh]
	-----------------------------------------------------------

  Dipole Moment: [D]
     X:     0.2689      Y:     1.0332      Z:     0.0111     Total:     1.0676

*** Psi4 exiting successfully. Buy a developer a beer!
