                               Psi4 1.3.2 release

  ==> Input File <==

--------------------------------------------------------------------------
#psi4
#
memory 32 gb

molecule  {
0 1
  S        0.7650415     0.7266431    -0.0056641
  O       -0.6972694    -1.3833300     0.0080582
  C       -2.0509520     0.6590830     0.0068010
  C        1.9223760    -0.5510590    -0.0015950
  C       -0.7788880    -0.1628700     0.0040570
  C       -3.2947410    -0.2161080     0.0056640
  C        3.3341240     0.0170930    -0.0107850
  H       -2.0279500     1.3158130     0.8843350
  H       -2.0299060     1.3210850    -0.8667760
  H        1.7458030    -1.1645560     0.8835850
  H        1.7388000    -1.1758340    -0.8774310
  H       -3.3141610    -0.8622160     0.8846490
  H       -3.3163930    -0.8568630    -0.8772710
  H       -4.1940350     0.4043620     0.0085730
  H        3.5120120     0.6248690    -0.9008780
  H        3.5189980     0.6365110     0.8698160
  H        4.0585630    -0.8014520    -0.0081370
units angstrom
no_reorient  #important for SAPT in psi4, default
symmetry c1  #important for SAPT in psi4, default
}

set PROPERTIES_ORIGIN ["COM"]
properties('MP2/aug-cc-pvtz', properties = ['dipole'])
--------------------------------------------------------------------------

    Molecular point group: c1
  Charge       = 0
  Multiplicity = 1
  Basis Set: AUG-CC-PVTZ
    Blend: AUG-CC-PVTZ
  Basis Set: (AUG-CC-PVTZ AUX)
    Blend: AUG-CC-PVTZ-JKFIT

    Orbital Energies [Eh]
    ---------------------

    Doubly Occupied:

       1A    -91.957152     2A    -20.552778     3A    -11.360595
       4A    -11.253273     5A    -11.251458     6A    -11.229635
       7A    -11.224840     8A     -8.960949     9A     -6.642241
      10A     -6.641248    11A     -6.640416    12A     -1.391633
      13A     -1.099075    14A     -1.066670    15A     -0.974257
      16A     -0.896881    17A     -0.820386    18A     -0.728166
      19A     -0.665438    20A     -0.645604    21A     -0.634014
      22A     -0.630987    23A     -0.558901    24A     -0.555703
      25A     -0.543424    26A     -0.526337    27A     -0.513501
      28A     -0.513066    29A     -0.495075    30A     -0.467620
      31A     -0.401002    32A     -0.358848

  @DF-RHF Final Energy:  -667.67529085112642

   => Energetics <=

    Nuclear Repulsion Energy =            372.1744664440195720
    One-Electron Energy =               -1655.2971673807269326
    Two-Electron Energy =                 615.4474100855809411
    Total Energy =                       -667.6752908511264195
  Basis Set: (AUG-CC-PVTZ AUX)
    Blend: AUG-CC-PVTZ-RI
    Molecular point group: c1

    Geometry (in Angstrom), charge = 0, multiplicity = 1:

       Center              X                  Y                   Z               Mass
    ------------   -----------------  -----------------  -----------------  -----------------
         S            0.743189338578     0.747846343589    -0.005646901943    31.972071174400
         O           -0.719121561422    -1.362126756411     0.008075398057    15.994914619570
         C           -2.072804161422     0.680286243589     0.006818198057    12.000000000000
         C            1.900523838578    -0.529855756411    -0.001577801943    12.000000000000
         C           -0.800740161422    -0.141666756411     0.004074198057    12.000000000000
         C           -3.316593161422    -0.194904756411     0.005681198057    12.000000000000
         C            3.312271838578     0.038296243589    -0.010767801943    12.000000000000
         H           -2.049802161422     1.337016243589     0.884352198057     1.007825032230
         H           -2.051758161422     1.342288243589    -0.866758801943     1.007825032230
         H            1.723950838578    -1.143352756411     0.883602198057     1.007825032230
         H            1.716947838578    -1.154630756411    -0.877413801943     1.007825032230
         H           -3.336013161422    -0.841012756411     0.884666198057     1.007825032230
         H           -3.338245161422    -0.835659756411    -0.877253801943     1.007825032230
         H           -4.215887161422     0.425565243589     0.008590198057     1.007825032230
         H            3.490159838578     0.646072243589    -0.900860801943     1.007825032230
         H            3.497145838578     0.657714243589     0.869833198057     1.007825032230
         H            4.036710838578    -0.780248756411    -0.008119801943     1.007825032230

  Basis Set: AUG-CC-PVTZ
    Blend: AUG-CC-PVTZ
  Basis Set: (AUG-CC-PVTZ AUX)
    Blend: AUG-CC-PVTZ-JKFIT
	 Reference Energy          =    -667.6752908511264195 [Eh]
	 Singles Energy            =      -0.0000000000000000 [Eh]
	 Same-Spin Energy          =      -0.3342929255166738 [Eh]
	 Opposite-Spin Energy      =      -1.1073568171381512 [Eh]
	 Correlation Energy        =      -1.4416497426548249 [Eh]
	 Total Energy              =    -669.1169405937812371 [Eh]

	 ================> DF-SCS-MP2 Energies <==================
	-----------------------------------------------------------
	 SCS Same-Spin Scale       =       0.3333333333333333 [-]
	 SCS Opposite-Spin Scale   =       1.2000000000000000 [-]
	 SCS Same-Spin Energy      =      -0.1114309751722246 [Eh]
	 SCS Opposite-Spin Energy  =      -1.3288281805657813 [Eh]
	 SCS Correlation Energy    =      -1.4402591557380060 [Eh]
	 SCS Total Energy          =    -669.1155500068643960 [Eh]
	-----------------------------------------------------------

  Dipole Moment: [D]
     X:     0.0844      Y:     1.0348      Z:     0.0002     Total:     1.0383

*** Psi4 exiting successfully. Buy a developer a beer!
