                               Psi4 1.3.2 release

  ==> Input File <==

--------------------------------------------------------------------------
#psi4
#
memory 32 gb

molecule  {
0 1
  S        0.7163710     0.8062280    -0.0057410
  O       -0.6972695    -1.3833300     0.0080443
  C       -2.0061922     0.7245308     0.0063680
  C        1.9223760    -0.5510590    -0.0015950
  C       -0.7788880    -0.1628700     0.0040570
  C       -3.2947410    -0.2161080     0.0056640
  C        3.3341240     0.0170930    -0.0107850
  H       -2.0279500     1.3158130     0.8843350
  H       -2.0299060     1.3210850    -0.8667760
  H        1.7458030    -1.1645560     0.8835850
  H        1.7388000    -1.1758340    -0.8774310
  H       -3.3141610    -0.8622160     0.8846490
  H       -3.3163930    -0.8568630    -0.8772710
  H       -4.1940350     0.4043620     0.0085730
  H        3.5120120     0.6248690    -0.9008780
  H        3.5189980     0.6365110     0.8698160
  H        4.0585630    -0.8014520    -0.0081370
units angstrom
no_reorient  #important for SAPT in psi4, default
symmetry c1  #important for SAPT in psi4, default
}

set PROPERTIES_ORIGIN ["COM"]
properties('MP2/aug-cc-pvtz', properties = ['dipole'])
--------------------------------------------------------------------------

    Molecular point group: c1
  Charge       = 0
  Multiplicity = 1
  Basis Set: AUG-CC-PVTZ
    Blend: AUG-CC-PVTZ
  Basis Set: (AUG-CC-PVTZ AUX)
    Blend: AUG-CC-PVTZ-JKFIT

    Orbital Energies [Eh]
    ---------------------

    Doubly Occupied:

       1A    -91.960299     2A    -20.556738     3A    -11.362654
       4A    -11.258121     5A    -11.248758     6A    -11.227716
       7A    -11.226772     8A     -8.962480     9A     -6.643659
      10A     -6.642551    11A     -6.641910    12A     -1.391970
      13A     -1.085866    14A     -1.057514    15A     -0.972400
      16A     -0.892268    17A     -0.822166    18A     -0.731786
      19A     -0.656424    20A     -0.650656    21A     -0.634966
      22A     -0.628480    23A     -0.559585    24A     -0.544700
      25A     -0.542066    26A     -0.525926    27A     -0.517668
      28A     -0.502405    29A     -0.501744    30A     -0.455130
      31A     -0.402876    32A     -0.364142

  @DF-RHF Final Energy:  -667.67351416087865

   => Energetics <=

    Nuclear Repulsion Energy =            369.6693793773452512
    One-Electron Energy =               -1650.3409925938826746
    Two-Electron Energy =                 612.9980990556588267
    Total Energy =                       -667.6735141608786535
  Basis Set: (AUG-CC-PVTZ AUX)
    Blend: AUG-CC-PVTZ-RI
    Molecular point group: c1

    Geometry (in Angstrom), charge = 0, multiplicity = 1:

       Center              X                  Y                   Z               Mass
    ------------   -----------------  -----------------  -----------------  -----------------
         S            0.703150958968     0.799222839788    -0.005657073442    31.972071174400
         O           -0.710489541032    -1.390335160212     0.008128226558    15.994914619570
         C           -2.019412241032     0.717525639788     0.006451926558    12.000000000000
         C            1.909155958968    -0.558064160212    -0.001511073442    12.000000000000
         C           -0.792108041032    -0.169875160212     0.004140926558    12.000000000000
         C           -3.307961041032    -0.223113160212     0.005747926558    12.000000000000
         C            3.320903958968     0.010087839788    -0.010701073442    12.000000000000
         H           -2.041170041032     1.308807839788     0.884418926558     1.007825032230
         H           -2.043126041032     1.314079839788    -0.866692073442     1.007825032230
         H            1.732582958968    -1.171561160212     0.883668926558     1.007825032230
         H            1.725579958968    -1.182839160212    -0.877347073442     1.007825032230
         H           -3.327381041032    -0.869221160212     0.884732926558     1.007825032230
         H           -3.329613041032    -0.863868160212    -0.877187073442     1.007825032230
         H           -4.207255041032     0.397356839788     0.008656926558     1.007825032230
         H            3.498791958968     0.617863839788    -0.900794073442     1.007825032230
         H            3.505777958968     0.629505839788     0.869899926558     1.007825032230
         H            4.045342958968    -0.808457160212    -0.008053073442     1.007825032230

  Basis Set: AUG-CC-PVTZ
    Blend: AUG-CC-PVTZ
  Basis Set: (AUG-CC-PVTZ AUX)
    Blend: AUG-CC-PVTZ-JKFIT
	 Reference Energy          =    -667.6735141608786535 [Eh]
	 Singles Energy            =      -0.0000000000000000 [Eh]
	 Same-Spin Energy          =      -0.3336592379396257 [Eh]
	 Opposite-Spin Energy      =      -1.1080514218048569 [Eh]
	 Correlation Energy        =      -1.4417106597444826 [Eh]
	 Total Energy              =    -669.1152248206230979 [Eh]

	 ================> DF-SCS-MP2 Energies <==================
	-----------------------------------------------------------
	 SCS Same-Spin Scale       =       0.3333333333333333 [-]
	 SCS Opposite-Spin Scale   =       1.2000000000000000 [-]
	 SCS Same-Spin Energy      =      -0.1112197459798752 [Eh]
	 SCS Opposite-Spin Energy  =      -1.3296617061658282 [Eh]
	 SCS Correlation Energy    =      -1.4408814521457034 [Eh]
	 SCS Total Energy          =    -669.1143956130243851 [Eh]
	-----------------------------------------------------------

  Dipole Moment: [D]
     X:     0.1116      Y:     1.0385      Z:     0.0001     Total:     1.0445

*** Psi4 exiting successfully. Buy a developer a beer!
