                               Psi4 1.3.2 release

  ==> Input File <==

--------------------------------------------------------------------------
#psi4
#
memory 32 gb

molecule  {
0 1
  S        0.7078570     0.8192397    -0.0057512
  O       -0.7719287    -1.3860351     0.0083847
  C       -2.0509520     0.6590830     0.0068010
  C        1.9223760    -0.5510590    -0.0015950
  C       -0.7788880    -0.1628700     0.0040570
  C       -3.2947410    -0.2161080     0.0056640
  C        3.3341240     0.0170930    -0.0107850
  H       -2.0279500     1.3158130     0.8843350
  H       -2.0299060     1.3210850    -0.8667760
  H        1.7458030    -1.1645560     0.8835850
  H        1.7388000    -1.1758340    -0.8774310
  H       -3.3141610    -0.8622160     0.8846490
  H       -3.3163930    -0.8568630    -0.8772710
  H       -4.1940350     0.4043620     0.0085730
  H        3.5120120     0.6248690    -0.9008780
  H        3.5189980     0.6365110     0.8698160
  H        4.0585630    -0.8014520    -0.0081370
units angstrom
no_reorient  #important for SAPT in psi4, default
symmetry c1  #important for SAPT in psi4, default
}

set PROPERTIES_ORIGIN ["COM"]
properties('MP2/aug-cc-pvtz', properties = ['dipole'])
--------------------------------------------------------------------------

    Molecular point group: c1
  Charge       = 0
  Multiplicity = 1
  Basis Set: AUG-CC-PVTZ
    Blend: AUG-CC-PVTZ
  Basis Set: (AUG-CC-PVTZ AUX)
    Blend: AUG-CC-PVTZ-JKFIT

    Orbital Energies [Eh]
    ---------------------

    Doubly Occupied:

       1A    -91.966699     2A    -20.553856     3A    -11.359676
       4A    -11.262988     5A    -11.246832     6A    -11.230249
       7A    -11.220493     8A     -8.968242     9A     -6.649425
      10A     -6.648285    11A     -6.647649    12A     -1.389938
      13A     -1.086068    14A     -1.060193    15A     -0.977440
      16A     -0.889885    17A     -0.822033    18A     -0.727419
      19A     -0.657485    20A     -0.641908    21A     -0.632349
      22A     -0.628308    23A     -0.562199    24A     -0.550708
      25A     -0.540411    26A     -0.523014    27A     -0.511994
      28A     -0.511376    29A     -0.493405    30A     -0.458306
      31A     -0.406660    32A     -0.368169

  @DF-RHF Final Energy:  -667.68041195450928

   => Energetics <=

    Nuclear Repulsion Energy =            369.1846979837600315
    One-Electron Energy =               -1649.3428961835797963
    Two-Electron Energy =                 612.4777862453104262
    Total Energy =                       -667.6804119545092817
  Basis Set: (AUG-CC-PVTZ AUX)
    Blend: AUG-CC-PVTZ-RI
    Molecular point group: c1

    Geometry (in Angstrom), charge = 0, multiplicity = 1:

       Center              X                  Y                   Z               Mass
    ------------   -----------------  -----------------  -----------------  -----------------
         S            0.711609226630     0.815730067931    -0.005754651419    31.972071174400
         O           -0.768176473370    -1.389544732069     0.008381248581    15.994914619570
         C           -2.047199773370     0.655573367931     0.006797548581    12.000000000000
         C            1.926128226630    -0.554568632069    -0.001598451419    12.000000000000
         C           -0.775135773370    -0.166379632069     0.004053548581    12.000000000000
         C           -3.290988773370    -0.219617632069     0.005660548581    12.000000000000
         C            3.337876226630     0.013583367931    -0.010788451419    12.000000000000
         H           -2.024197773370     1.312303367931     0.884331548581     1.007825032230
         H           -2.026153773370     1.317575367931    -0.866779451419     1.007825032230
         H            1.749555226630    -1.168065632069     0.883581548581     1.007825032230
         H            1.742552226630    -1.179343632069    -0.877434451419     1.007825032230
         H           -3.310408773370    -0.865725632069     0.884645548581     1.007825032230
         H           -3.312640773370    -0.860372632069    -0.877274451419     1.007825032230
         H           -4.190282773370     0.400852367931     0.008569548581     1.007825032230
         H            3.515764226630     0.621359367931    -0.900881451419     1.007825032230
         H            3.522750226630     0.633001367931     0.869812548581     1.007825032230
         H            4.062315226630    -0.804961632069    -0.008140451419     1.007825032230

  Basis Set: AUG-CC-PVTZ
    Blend: AUG-CC-PVTZ
  Basis Set: (AUG-CC-PVTZ AUX)
    Blend: AUG-CC-PVTZ-JKFIT
	 Reference Energy          =    -667.6804119545092817 [Eh]
	 Singles Energy            =      -0.0000000000000000 [Eh]
	 Same-Spin Energy          =      -0.3335467866090149 [Eh]
	 Opposite-Spin Energy      =      -1.1077547976706579 [Eh]
	 Correlation Energy        =      -1.4413015842796728 [Eh]
	 Total Energy              =    -669.1217135387889812 [Eh]

	 ================> DF-SCS-MP2 Energies <==================
	-----------------------------------------------------------
	 SCS Same-Spin Scale       =       0.3333333333333333 [-]
	 SCS Opposite-Spin Scale   =       1.2000000000000000 [-]
	 SCS Same-Spin Energy      =      -0.1111822622030050 [Eh]
	 SCS Opposite-Spin Energy  =      -1.3293057572047895 [Eh]
	 SCS Correlation Energy    =      -1.4404880194077945 [Eh]
	 SCS Total Energy          =    -669.1208999739170622 [Eh]
	-----------------------------------------------------------

  Dipole Moment: [D]
     X:     0.3965      Y:     1.0630      Z:    -0.0011     Total:     1.1345

*** Psi4 exiting successfully. Buy a developer a beer!
