                               Psi4 1.3.2 release

  ==> Input File <==

--------------------------------------------------------------------------
#psi4
#
memory 32 gb

molecule  {
0 1
  S        0.6928670     0.7849745    -0.0055112
  O       -0.7612550    -1.3859280     0.0083390
  C       -2.0509520     0.6590830     0.0068010
  C        1.9223760    -0.5510590    -0.0015950
  C       -0.7788880    -0.1628700     0.0040570
  C       -3.2947410    -0.2161080     0.0056640
  C        3.3438254    -0.0076318    -0.0106618
  H       -2.0279500     1.3158130     0.8843350
  H       -2.0299060     1.3210850    -0.8667760
  H        1.7458030    -1.1645560     0.8835850
  H        1.7388000    -1.1758340    -0.8774310
  H       -3.3141610    -0.8622160     0.8846490
  H       -3.3163930    -0.8568630    -0.8772710
  H       -4.1940350     0.4043620     0.0085730
  H        3.5120120     0.6248690    -0.9008780
  H        3.5189980     0.6365110     0.8698160
  H        4.0585630    -0.8014520    -0.0081370
units angstrom
no_reorient  #important for SAPT in psi4, default
symmetry c1  #important for SAPT in psi4, default
}

set PROPERTIES_ORIGIN ["COM"]
properties('MP2/aug-cc-pvtz', properties = ['dipole'])
--------------------------------------------------------------------------

    Molecular point group: c1
  Charge       = 0
  Multiplicity = 1
  Basis Set: AUG-CC-PVTZ
    Blend: AUG-CC-PVTZ
  Basis Set: (AUG-CC-PVTZ AUX)
    Blend: AUG-CC-PVTZ-JKFIT

    Orbital Energies [Eh]
    ---------------------

    Doubly Occupied:

       1A    -91.965619     2A    -20.550542     3A    -11.356865
       4A    -11.261832     5A    -11.247153     6A    -11.231137
       7A    -11.220693     8A     -8.968092     9A     -6.649338
      10A     -6.648216    11A     -6.647549    12A     -1.388808
      13A     -1.089910    14A     -1.060897    15A     -0.982265
      16A     -0.891199    17A     -0.823250    18A     -0.726040
      19A     -0.659882    20A     -0.642250    21A     -0.633149
      22A     -0.626993    23A     -0.567924    24A     -0.551128
      25A     -0.540195    26A     -0.522519    27A     -0.512861
      28A     -0.508142    29A     -0.492500    30A     -0.460627
      31A     -0.407425    32A     -0.367716

  @DF-RHF Final Energy:  -667.68003531723957

   => Energetics <=

    Nuclear Repulsion Energy =            370.4468769104320245
    One-Electron Energy =               -1651.8483929318981609
    Two-Electron Energy =                 613.7214807042266784
    Total Energy =                       -667.6800353172395717
  Basis Set: (AUG-CC-PVTZ AUX)
    Blend: AUG-CC-PVTZ-RI
    Molecular point group: c1

    Geometry (in Angstrom), charge = 0, multiplicity = 1:

       Center              X                  Y                   Z               Mass
    ------------   -----------------  -----------------  -----------------  -----------------
         S            0.698246735143     0.793244368770    -0.005585986186    31.972071174400
         O           -0.755875264857    -1.377658131230     0.008264213814    15.994914619570
         C           -2.045572264857     0.667352868770     0.006726213814    12.000000000000
         C            1.927755735143    -0.542789131230    -0.001669786186    12.000000000000
         C           -0.773508264857    -0.154600131230     0.003982213814    12.000000000000
         C           -3.289361264857    -0.207838131230     0.005589213814    12.000000000000
         C            3.349205135143     0.000638068770    -0.010736586186    12.000000000000
         H           -2.022570264857     1.324082868770     0.884260213814     1.007825032230
         H           -2.024526264857     1.329354868770    -0.866850786186     1.007825032230
         H            1.751182735143    -1.156286131230     0.883510213814     1.007825032230
         H            1.744179735143    -1.167564131230    -0.877505786186     1.007825032230
         H           -3.308781264857    -0.853946131230     0.884574213814     1.007825032230
         H           -3.311013264857    -0.848593131230    -0.877345786186     1.007825032230
         H           -4.188655264857     0.412631868770     0.008498213814     1.007825032230
         H            3.517391735143     0.633138868770    -0.900952786186     1.007825032230
         H            3.524377735143     0.644780868770     0.869741213814     1.007825032230
         H            4.063942735143    -0.793182131230    -0.008211786186     1.007825032230

  Basis Set: AUG-CC-PVTZ
    Blend: AUG-CC-PVTZ
  Basis Set: (AUG-CC-PVTZ AUX)
    Blend: AUG-CC-PVTZ-JKFIT
	 Reference Energy          =    -667.6800353172395717 [Eh]
	 Singles Energy            =      -0.0000000000000000 [Eh]
	 Same-Spin Energy          =      -0.3336496748521645 [Eh]
	 Opposite-Spin Energy      =      -1.1072899724922571 [Eh]
	 Correlation Energy        =      -1.4409396473444216 [Eh]
	 Total Energy              =    -669.1209749645839793 [Eh]

	 ================> DF-SCS-MP2 Energies <==================
	-----------------------------------------------------------
	 SCS Same-Spin Scale       =       0.3333333333333333 [-]
	 SCS Opposite-Spin Scale   =       1.2000000000000000 [-]
	 SCS Same-Spin Energy      =      -0.1112165582840548 [Eh]
	 SCS Opposite-Spin Energy  =      -1.3287479669907085 [Eh]
	 SCS Correlation Energy    =      -1.4399645252747633 [Eh]
	 SCS Total Energy          =    -669.1199998425142894 [Eh]
	-----------------------------------------------------------

  Dipole Moment: [D]
     X:     0.4635      Y:     1.1052      Z:    -0.0015     Total:     1.1985

*** Psi4 exiting successfully. Buy a developer a beer!
