                               Psi4 1.3.2 release

  ==> Input File <==

--------------------------------------------------------------------------
#psi4
#
memory 32 gb

molecule  {
0 1
  S        0.6469895     0.7412531    -0.0050481
  O       -0.7612550    -1.3859280     0.0083390
  C       -2.0509520     0.6590830     0.0068010
  C        1.9223760    -0.5510590    -0.0015950
  C       -0.7788880    -0.1628700     0.0040570
  C       -3.2947410    -0.2161080     0.0056640
  C        3.3619263    -0.0575706    -0.0104070
  H       -2.0279500     1.3158130     0.8843350
  H       -2.0299060     1.3210850    -0.8667760
  H        1.7458030    -1.1645560     0.8835850
  H        1.7388000    -1.1758340    -0.8774310
  H       -3.3141610    -0.8622160     0.8846490
  H       -3.3163930    -0.8568630    -0.8772710
  H       -4.1940350     0.4043620     0.0085730
  H        3.5120120     0.6248690    -0.9008780
  H        3.5189980     0.6365110     0.8698160
  H        4.0585630    -0.8014520    -0.0081370
units angstrom
no_reorient  #important for SAPT in psi4, default
symmetry c1  #important for SAPT in psi4, default
}

set PROPERTIES_ORIGIN ["COM"]
properties('MP2/aug-cc-pvtz', properties = ['dipole'])
--------------------------------------------------------------------------

    Molecular point group: c1
  Charge       = 0
  Multiplicity = 1
  Basis Set: AUG-CC-PVTZ
    Blend: AUG-CC-PVTZ
  Basis Set: (AUG-CC-PVTZ AUX)
    Blend: AUG-CC-PVTZ-JKFIT

    Orbital Energies [Eh]
    ---------------------

    Doubly Occupied:

       1A    -91.965831     2A    -20.543891     3A    -11.350594
       4A    -11.263293     5A    -11.246059     6A    -11.234067
       7A    -11.219871     8A     -8.969859     9A     -6.651235
      10A     -6.650026    11A     -6.649347    12A     -1.386443
      13A     -1.096007    14A     -1.060638    15A     -0.992856
      16A     -0.892356    17A     -0.827287    18A     -0.722914
      19A     -0.663189    20A     -0.642548    21A     -0.633831
      22A     -0.624481    23A     -0.581940    24A     -0.550336
      25A     -0.539736    26A     -0.520780    27A     -0.514811
      28A     -0.501664    29A     -0.489178    30A     -0.459492
      31A     -0.408752    32A     -0.369016

  @DF-RHF Final Energy:  -667.66962340066527

   => Energetics <=

    Nuclear Repulsion Energy =            372.2878484227427975
    One-Electron Energy =               -1655.4702873831056422
    Two-Electron Energy =                 615.5128155596975148
    Total Energy =                       -667.6696234006652730
  Basis Set: (AUG-CC-PVTZ AUX)
    Blend: AUG-CC-PVTZ-RI
    Molecular point group: c1

    Geometry (in Angstrom), charge = 0, multiplicity = 1:

       Center              X                  Y                   Z               Mass
    ------------   -----------------  -----------------  -----------------  -----------------
         S            0.662954904979     0.766441307691    -0.005274216869    31.972071174400
         O           -0.745289595021    -1.360739792309     0.008112883131    15.994914619570
         C           -2.034986595021     0.684271207691     0.006574883131    12.000000000000
         C            1.938341404979    -0.525870792309    -0.001821116869    12.000000000000
         C           -0.762922595021    -0.137681792309     0.003830883131    12.000000000000
         C           -3.278775595021    -0.190919792309     0.005437883131    12.000000000000
         C            3.377891704979    -0.032382392309    -0.010633116869    12.000000000000
         H           -2.011984595021     1.341001207691     0.884108883131     1.007825032230
         H           -2.013940595021     1.346273207691    -0.867002116869     1.007825032230
         H            1.761768404979    -1.139367792309     0.883358883131     1.007825032230
         H            1.754765404979    -1.150645792309    -0.877657116869     1.007825032230
         H           -3.298195595021    -0.837027792309     0.884422883131     1.007825032230
         H           -3.300427595021    -0.831674792309    -0.877497116869     1.007825032230
         H           -4.178069595021     0.429550207691     0.008346883131     1.007825032230
         H            3.527977404979     0.650057207691    -0.901104116869     1.007825032230
         H            3.534963404979     0.661699207691     0.869589883131     1.007825032230
         H            4.074528404979    -0.776263792309    -0.008363116869     1.007825032230

  Basis Set: AUG-CC-PVTZ
    Blend: AUG-CC-PVTZ
  Basis Set: (AUG-CC-PVTZ AUX)
    Blend: AUG-CC-PVTZ-JKFIT
	 Reference Energy          =    -667.6696234006652730 [Eh]
	 Singles Energy            =      -0.0000000000000000 [Eh]
	 Same-Spin Energy          =      -0.3339740321793683 [Eh]
	 Opposite-Spin Energy      =      -1.1071290453261331 [Eh]
	 Correlation Energy        =      -1.4411030775055014 [Eh]
	 Total Energy              =    -669.1107264781708182 [Eh]

	 ================> DF-SCS-MP2 Energies <==================
	-----------------------------------------------------------
	 SCS Same-Spin Scale       =       0.3333333333333333 [-]
	 SCS Opposite-Spin Scale   =       1.2000000000000000 [-]
	 SCS Same-Spin Energy      =      -0.1113246773931228 [Eh]
	 SCS Opposite-Spin Energy  =      -1.3285548543913597 [Eh]
	 SCS Correlation Energy    =      -1.4398795317844824 [Eh]
	 SCS Total Energy          =    -669.1095029324498000 [Eh]
	-----------------------------------------------------------

  Dipole Moment: [D]
     X:     0.6700      Y:     1.1914      Z:    -0.0026     Total:     1.3669

*** Psi4 exiting successfully. Buy a developer a beer!
