                               Psi4 1.4a3.dev225

  ==> Input File <==

--------------------------------------------------------------------------
#psi4
#
memory 32 gb

molecule  {
0 1
  S       -0.7336830    -0.7988290    -0.0000010
  O        0.7842810     1.3701820    -0.0000010
  C        2.0392260    -0.6993310     0.0000000
  C       -1.9502863     0.6185958    -0.0000020
  C        0.7809180     0.1463140    -0.0000010
  C        3.3000750     0.1543340     0.0000020
  C       -3.3406260     0.0364320     0.0000030
  H        2.0053990    -1.3579180     0.8761960
  H        2.0054010    -1.3579160    -0.8761980
  H       -1.7269280     1.1964810     0.8811220
  H       -1.7269330     1.1964770    -0.8811310
  H        3.3326310     0.7974220     0.8814170
  H        3.3326220     0.7974380    -0.8814010
  H        4.1880090    -0.4829760    -0.0000080
  H       -3.5331250    -0.5739300    -0.8857830
  H       -3.5331200    -0.5739250     0.8857940
  H       -4.0504940     0.8682350     0.0000030
units angstrom
no_reorient  #important for SAPT in psi4, default
symmetry c1  #important for SAPT in psi4, default
}

set PROPERTIES_ORIGIN ["COM"]
properties('MP2/aug-cc-pvtz', properties = ['dipole'])
--------------------------------------------------------------------------

    Molecular point group: c1
  Charge       = 0
  Multiplicity = 1
  Basis Set: AUG-CC-PVTZ
    Blend: AUG-CC-PVTZ
  Basis Set: (AUG-CC-PVTZ AUX)
    Blend: AUG-CC-PVTZ-JKFIT

    Orbital Energies [Eh]
    ---------------------

    Doubly Occupied:

       1A    -91.963582     2A    -20.552857     3A    -11.359503
       4A    -11.263629     5A    -11.247370     6A    -11.230635
       7A    -11.220888     8A     -8.964825     9A     -6.645958
      10A     -6.644837    11A     -6.644235    12A     -1.388672
      13A     -1.083688    14A     -1.060354    15A     -0.976374
      16A     -0.888868    17A     -0.825350    18A     -0.726446
      19A     -0.654884    20A     -0.643794    21A     -0.631903
      22A     -0.630288    23A     -0.562868    24A     -0.553540
      25A     -0.540048    26A     -0.526370    27A     -0.514701
      28A     -0.513790    29A     -0.493853    30A     -0.447556
      31A     -0.404721    32A     -0.366847

  @DF-RHF Final Energy:  -667.67952627887394

   => Energetics <=

    Nuclear Repulsion Energy =            368.3916608249165847
    One-Electron Energy =               -1647.7959025770760491
    Two-Electron Energy =                 611.7247154732856416
    Total Energy =                       -667.6795262788739365
  Basis Set: (AUG-CC-PVTZ AUX)
    Blend: AUG-CC-PVTZ-RI
    Molecular point group: c1

    Geometry (in Angstrom), charge = 0, multiplicity = 1:

       Center              X                  Y                   Z               Mass
    ------------   -----------------  -----------------  -----------------  -----------------
         S           -0.728046019339    -0.798534519981    -0.000000890882    31.972071174400
         O            0.789917980661     1.370476480019    -0.000000890882    15.994914619570
         C            2.044862980661    -0.699036519981     0.000000109118    12.000000000000
         C           -1.944649319339     0.618890280019    -0.000001890882    12.000000000000
         C            0.786554980661     0.146608480019    -0.000000890882    12.000000000000
         C            3.305711980661     0.154628480019     0.000002109118    12.000000000000
         C           -3.334989019339     0.036726480019     0.000003109118    12.000000000000
         H            2.011035980661    -1.357623519981     0.876196109118     1.007825032230
         H            2.011037980661    -1.357621519981    -0.876197890882     1.007825032230
         H           -1.721291019339     1.196775480019     0.881122109118     1.007825032230
         H           -1.721296019339     1.196771480019    -0.881130890882     1.007825032230
         H            3.338267980661     0.797716480019     0.881417109118     1.007825032230
         H            3.338258980661     0.797732480019    -0.881400890882     1.007825032230
         H            4.193645980661    -0.482681519981    -0.000007890882     1.007825032230
         H           -3.527488019339    -0.573635519981    -0.885782890882     1.007825032230
         H           -3.527483019339    -0.573630519981     0.885794109118     1.007825032230
         H           -4.044857019339     0.868529480019     0.000003109118     1.007825032230

  Basis Set: AUG-CC-PVTZ
    Blend: AUG-CC-PVTZ
  Basis Set: (AUG-CC-PVTZ AUX)
    Blend: AUG-CC-PVTZ-JKFIT
	 Reference Energy          =    -667.6795262788739365 [Eh]
	 Singles Energy            =      -0.0000000000000000 [Eh]
	 Same-Spin Energy          =      -0.3333546296192041 [Eh]
	 Opposite-Spin Energy      =      -1.1075383103038341 [Eh]
	 Correlation Energy        =      -1.4408929399230384 [Eh]
	 Total Energy              =    -669.1204192187969966 [Eh]

	 ================> DF-SCS-MP2 Energies <==================
	-----------------------------------------------------------
	 SCS Same-Spin Scale       =       0.3333333333333333 [-]
	 SCS Opposite-Spin Scale   =       1.2000000000000000 [-]
	 SCS Same-Spin Energy      =      -0.1111182098730680 [Eh]
	 SCS Opposite-Spin Energy  =      -1.3290459723646009 [Eh]
	 SCS Correlation Energy    =      -1.4401641822376690 [Eh]
	 SCS Total Energy          =    -669.1196904611116452 [Eh]
	-----------------------------------------------------------

  Dipole Moment: [D]
     X:    -0.4553      Y:    -1.0090      Z:     0.0000     Total:     1.1070

*** Psi4 exiting successfully. Buy a developer a beer!
