                               Psi4 1.3.2 release

  ==> Input File <==

--------------------------------------------------------------------------
#psi4
#
memory 32 gb

molecule  {
0 1
  S        0.7078570     0.8192397    -0.0057481
  O       -0.7612550    -1.3859280     0.0083390
  C       -2.0437310     0.6701523     0.0067320
  C        1.9223760    -0.5510590    -0.0015950
  C       -0.7788880    -0.1628700     0.0040570
  C       -3.2947410    -0.2161080     0.0056640
  C        3.3341240     0.0170930    -0.0107850
  H       -2.0279500     1.3158130     0.8843350
  H       -2.0299060     1.3210850    -0.8667760
  H        1.7458030    -1.1645560     0.8835850
  H        1.7388000    -1.1758340    -0.8774310
  H       -3.3141610    -0.8622160     0.8846490
  H       -3.3163930    -0.8568630    -0.8772710
  H       -4.1940350     0.4043620     0.0085730
  H        3.5120120     0.6248690    -0.9008780
  H        3.5189980     0.6365110     0.8698160
  H        4.0585630    -0.8014520    -0.0081370
units angstrom
no_reorient  #important for SAPT in psi4, default
symmetry c1  #important for SAPT in psi4, default
}

set PROPERTIES_ORIGIN ["COM"]
properties('MP2/aug-cc-pvtz', properties = ['dipole'])
--------------------------------------------------------------------------

    Molecular point group: c1
  Charge       = 0
  Multiplicity = 1
  Basis Set: AUG-CC-PVTZ
    Blend: AUG-CC-PVTZ
  Basis Set: (AUG-CC-PVTZ AUX)
    Blend: AUG-CC-PVTZ-JKFIT

    Orbital Energies [Eh]
    ---------------------

    Doubly Occupied:

       1A    -91.965848     2A    -20.554367     3A    -11.360092
       4A    -11.262459     5A    -11.246869     6A    -11.229858
       7A    -11.221437     8A     -8.967449     9A     -6.648630
      10A     -6.647491    11A     -6.646859    12A     -1.390178
      13A     -1.085773    14A     -1.059430    15A     -0.976653
      16A     -0.890107    17A     -0.822077    18A     -0.728189
      19A     -0.657076    20A     -0.642870    21A     -0.632653
      22A     -0.628440    23A     -0.561655    24A     -0.549339
      25A     -0.540576    26A     -0.523604    27A     -0.511738
      28A     -0.510642    29A     -0.495694    30A     -0.457637
      31A     -0.406327    32A     -0.367701

  @DF-RHF Final Energy:  -667.68032195221997

   => Energetics <=

    Nuclear Repulsion Energy =            369.1850390766319379
    One-Electron Energy =               -1649.3512900086593618
    Two-Electron Energy =                 612.4859289798074542
    Total Energy =                       -667.6803219522199697
  Basis Set: (AUG-CC-PVTZ AUX)
    Blend: AUG-CC-PVTZ-RI
    Molecular point group: c1

    Geometry (in Angstrom), charge = 0, multiplicity = 1:

       Center              X                  Y                   Z               Mass
    ------------   -----------------  -----------------  -----------------  -----------------
         S            0.709428902132     0.814590295927    -0.005739184514    31.972071174400
         O           -0.759683097868    -1.390577404073     0.008347915486    15.994914619570
         C           -2.042159097868     0.665502895927     0.006740915486    12.000000000000
         C            1.923947902132    -0.555708404073    -0.001586084514    12.000000000000
         C           -0.777316097868    -0.167519404073     0.004065915486    12.000000000000
         C           -3.293169097868    -0.220757404073     0.005672915486    12.000000000000
         C            3.335695902132     0.012443595927    -0.010776084514    12.000000000000
         H           -2.026378097868     1.311163595927     0.884343915486     1.007825032230
         H           -2.028334097868     1.316435595927    -0.866767084514     1.007825032230
         H            1.747374902132    -1.169205404073     0.883593915486     1.007825032230
         H            1.740371902132    -1.180483404073    -0.877422084514     1.007825032230
         H           -3.312589097868    -0.866865404073     0.884657915486     1.007825032230
         H           -3.314821097868    -0.861512404073    -0.877262084514     1.007825032230
         H           -4.192463097868     0.399712595927     0.008581915486     1.007825032230
         H            3.513583902132     0.620219595927    -0.900869084514     1.007825032230
         H            3.520569902132     0.631861595927     0.869824915486     1.007825032230
         H            4.060134902132    -0.806101404073    -0.008128084514     1.007825032230

  Basis Set: AUG-CC-PVTZ
    Blend: AUG-CC-PVTZ
  Basis Set: (AUG-CC-PVTZ AUX)
    Blend: AUG-CC-PVTZ-JKFIT
	 Reference Energy          =    -667.6803219522199697 [Eh]
	 Singles Energy            =      -0.0000000000000000 [Eh]
	 Same-Spin Energy          =      -0.3335102067453546 [Eh]
	 Opposite-Spin Energy      =      -1.1077354167613773 [Eh]
	 Correlation Energy        =      -1.4412456235067319 [Eh]
	 Total Energy              =    -669.1215675757266581 [Eh]

	 ================> DF-SCS-MP2 Energies <==================
	-----------------------------------------------------------
	 SCS Same-Spin Scale       =       0.3333333333333333 [-]
	 SCS Opposite-Spin Scale   =       1.2000000000000000 [-]
	 SCS Same-Spin Energy      =      -0.1111700689151182 [Eh]
	 SCS Opposite-Spin Energy  =      -1.3292825001136528 [Eh]
	 SCS Correlation Energy    =      -1.4404525690287711 [Eh]
	 SCS Total Energy          =    -669.1207745212487907 [Eh]
	-----------------------------------------------------------

  Dipole Moment: [D]
     X:     0.3579      Y:     1.0613      Z:    -0.0009     Total:     1.1201

*** Psi4 exiting successfully. Buy a developer a beer!
