                               Psi4 1.3.2 release

  ==> Input File <==

--------------------------------------------------------------------------
#psi4
#
memory 32 gb

molecule  {
0 1
  S        0.7163710     0.8062280    -0.0057410
  O       -0.7612550    -1.3859280     0.0083390
  C       -2.0509520     0.6590830     0.0068010
  C        1.9223760    -0.5510590    -0.0015950
  C       -0.6110573    -0.0540966     0.0029573
  C       -3.2947410    -0.2161080     0.0056640
  C        3.3341240     0.0170930    -0.0107850
  H       -2.0279500     1.3158130     0.8843350
  H       -2.0299060     1.3210850    -0.8667760
  H        1.7458030    -1.1645560     0.8835850
  H        1.7388000    -1.1758340    -0.8774310
  H       -3.3141610    -0.8622160     0.8846490
  H       -3.3163930    -0.8568630    -0.8772710
  H       -4.1940350     0.4043620     0.0085730
  H        3.5120120     0.6248690    -0.9008780
  H        3.5189980     0.6365110     0.8698160
  H        4.0585630    -0.8014520    -0.0081370
units angstrom
no_reorient  #important for SAPT in psi4, default
symmetry c1  #important for SAPT in psi4, default
}

set PROPERTIES_ORIGIN ["COM"]
properties('MP2/aug-cc-pvtz', properties = ['dipole'])
--------------------------------------------------------------------------

    Molecular point group: c1
  Charge       = 0
  Multiplicity = 1
  Basis Set: AUG-CC-PVTZ
    Blend: AUG-CC-PVTZ
  Basis Set: (AUG-CC-PVTZ AUX)
    Blend: AUG-CC-PVTZ-JKFIT

    Orbital Energies [Eh]
    ---------------------

    Doubly Occupied:

       1A    -91.987655     2A    -20.524486     3A    -11.353605
       4A    -11.272926     5A    -11.247240     6A    -11.239272
       7A    -11.214027     8A     -8.994000     9A     -6.675730
      10A     -6.673648    11A     -6.673272    12A     -1.305485
      13A     -1.121456    14A     -1.045777    15A     -1.010468
      16A     -0.884595    17A     -0.835712    18A     -0.717850
      19A     -0.646903    20A     -0.643160    21A     -0.620042
      22A     -0.605218    23A     -0.560249    24A     -0.553018
      25A     -0.537980    26A     -0.517708    27A     -0.507475
      28A     -0.505220    29A     -0.471651    30A     -0.461725
      31A     -0.402240    32A     -0.379592

  @DF-RHF Final Energy:  -667.62789237200388

   => Energetics <=

    Nuclear Repulsion Energy =            370.7076398393857062
    One-Electron Energy =               -1652.2922891405492010
    Two-Electron Energy =                 613.9567569291597238
    Total Energy =                       -667.6278923720038847
  Basis Set: (AUG-CC-PVTZ AUX)
    Blend: AUG-CC-PVTZ-RI
    Molecular point group: c1

    Geometry (in Angstrom), charge = 0, multiplicity = 1:

       Center              X                  Y                   Z               Mass
    ------------   -----------------  -----------------  -----------------  -----------------
         S            0.699309989137     0.795170559259    -0.005629230738    31.972071174400
         O           -0.778316010863    -1.396985440741     0.008450769262    15.994914619570
         C           -2.068013010863     0.648025559259     0.006912769262    12.000000000000
         C            1.905314989137    -0.562116440741    -0.001483230738    12.000000000000
         C           -0.628118310863    -0.065154040741     0.003069069262    12.000000000000
         C           -3.311802010863    -0.227165440741     0.005775769262    12.000000000000
         C            3.317062989137     0.006035559259    -0.010673230738    12.000000000000
         H           -2.045011010863     1.304755559259     0.884446769262     1.007825032230
         H           -2.046967010863     1.310027559259    -0.866664230738     1.007825032230
         H            1.728741989137    -1.175613440741     0.883696769262     1.007825032230
         H            1.721738989137    -1.186891440741    -0.877319230738     1.007825032230
         H           -3.331222010863    -0.873273440741     0.884760769262     1.007825032230
         H           -3.333454010863    -0.867920440741    -0.877159230738     1.007825032230
         H           -4.211096010863     0.393304559259     0.008684769262     1.007825032230
         H            3.494950989137     0.613811559259    -0.900766230738     1.007825032230
         H            3.501936989137     0.625453559259     0.869927769262     1.007825032230
         H            4.041501989137    -0.812509440741    -0.008025230738     1.007825032230

  Basis Set: AUG-CC-PVTZ
    Blend: AUG-CC-PVTZ
  Basis Set: (AUG-CC-PVTZ AUX)
    Blend: AUG-CC-PVTZ-JKFIT
	 Reference Energy          =    -667.6278923720038847 [Eh]
	 Singles Energy            =      -0.0000000000000000 [Eh]
	 Same-Spin Energy          =      -0.3381685423526304 [Eh]
	 Opposite-Spin Energy      =      -1.1155785046488704 [Eh]
	 Correlation Energy        =      -1.4537470470015008 [Eh]
	 Total Energy              =    -669.0816394190053416 [Eh]

	 ================> DF-SCS-MP2 Energies <==================
	-----------------------------------------------------------
	 SCS Same-Spin Scale       =       0.3333333333333333 [-]
	 SCS Opposite-Spin Scale   =       1.2000000000000000 [-]
	 SCS Same-Spin Energy      =      -0.1127228474508768 [Eh]
	 SCS Opposite-Spin Energy  =      -1.3386942055786444 [Eh]
	 SCS Correlation Energy    =      -1.4514170530295212 [Eh]
	 SCS Total Energy          =    -669.0793094250334434 [Eh]
	-----------------------------------------------------------

  Dipole Moment: [D]
     X:     1.8147      Y:     1.7787      Z:    -0.0096     Total:     2.5410

*** Psi4 exiting successfully. Buy a developer a beer!
