                               Psi4 1.3.2 release

  ==> Input File <==

--------------------------------------------------------------------------
#psi4
#
memory 32 gb

molecule  {
0 1
  S        0.7163710     0.8062280    -0.0057410
  O       -0.7612550    -1.3859280     0.0083390
  C       -2.0509520     0.6590830     0.0068010
  C        1.9223760    -0.5510590    -0.0015950
  C       -0.8628794    -0.1085984     0.0042382
  C       -3.2947410    -0.2161080     0.0056640
  C        3.3341240     0.0170930    -0.0107850
  H       -2.0279500     1.3158130     0.8843350
  H       -2.0299060     1.3210850    -0.8667760
  H        1.7458030    -1.1645560     0.8835850
  H        1.7388000    -1.1758340    -0.8774310
  H       -3.3141610    -0.8622160     0.8846490
  H       -3.3163930    -0.8568630    -0.8772710
  H       -4.1940350     0.4043620     0.0085730
  H        3.5120120     0.6248690    -0.9008780
  H        3.5189980     0.6365110     0.8698160
  H        4.0585630    -0.8014520    -0.0081370
units angstrom
no_reorient  #important for SAPT in psi4, default
symmetry c1  #important for SAPT in psi4, default
}

set PROPERTIES_ORIGIN ["COM"]
properties('MP2/aug-cc-pvtz', properties = ['dipole'])
--------------------------------------------------------------------------

    Molecular point group: c1
  Charge       = 0
  Multiplicity = 1
  Basis Set: AUG-CC-PVTZ
    Blend: AUG-CC-PVTZ
  Basis Set: (AUG-CC-PVTZ AUX)
    Blend: AUG-CC-PVTZ-JKFIT

    Orbital Energies [Eh]
    ---------------------

    Doubly Occupied:

       1A    -91.964176     2A    -20.550871     3A    -11.367679
       4A    -11.259556     5A    -11.250352     6A    -11.229020
       7A    -11.226201     8A     -8.965015     9A     -6.646144
      10A     -6.645210    11A     -6.644534    12A     -1.354559
      13A     -1.096996    14A     -1.071727    15A     -0.971963
      16A     -0.904654    17A     -0.820177    18A     -0.731747
      19A     -0.656862    20A     -0.651381    21A     -0.628717
      22A     -0.623011    23A     -0.564688    24A     -0.548993
      25A     -0.533696    26A     -0.527370    27A     -0.512773
      28A     -0.505873    29A     -0.481777    30A     -0.462172
      31A     -0.405898    32A     -0.361922

  @DF-RHF Final Energy:  -667.66223786103956

   => Energetics <=

    Nuclear Repulsion Energy =            368.8929280167731690
    One-Electron Energy =               -1648.7789052546552284
    Two-Electron Energy =                 612.2237393768425591
    Total Energy =                       -667.6622378610395572
  Basis Set: (AUG-CC-PVTZ AUX)
    Blend: AUG-CC-PVTZ-RI
    Molecular point group: c1

    Geometry (in Angstrom), charge = 0, multiplicity = 1:

       Center              X                  Y                   Z               Mass
    ------------   -----------------  -----------------  -----------------  -----------------
         S            0.724909202620     0.800710991228    -0.005759441837    31.972071174400
         O           -0.752716797380    -1.391445008772     0.008320558163    15.994914619570
         C           -2.042413797380     0.653565991228     0.006782558163    12.000000000000
         C            1.930914202620    -0.556576008772    -0.001613441837    12.000000000000
         C           -0.854341197380    -0.114115408772     0.004219758163    12.000000000000
         C           -3.286202797380    -0.221625008772     0.005645558163    12.000000000000
         C            3.342662202620     0.011575991228    -0.010803441837    12.000000000000
         H           -2.019411797380     1.310295991228     0.884316558163     1.007825032230
         H           -2.021367797380     1.315567991228    -0.866794441837     1.007825032230
         H            1.754341202620    -1.170073008772     0.883566558163     1.007825032230
         H            1.747338202620    -1.181351008772    -0.877449441837     1.007825032230
         H           -3.305622797380    -0.867733008772     0.884630558163     1.007825032230
         H           -3.307854797380    -0.862380008772    -0.877289441837     1.007825032230
         H           -4.185496797380     0.398844991228     0.008554558163     1.007825032230
         H            3.520550202620     0.619351991228    -0.900896441837     1.007825032230
         H            3.527536202620     0.630993991228     0.869797558163     1.007825032230
         H            4.067101202620    -0.806969008772    -0.008155441837     1.007825032230

  Basis Set: AUG-CC-PVTZ
    Blend: AUG-CC-PVTZ
  Basis Set: (AUG-CC-PVTZ AUX)
    Blend: AUG-CC-PVTZ-JKFIT
	 Reference Energy          =    -667.6622378610395572 [Eh]
	 Singles Energy            =      -0.0000000000000000 [Eh]
	 Same-Spin Energy          =      -0.3357283369674211 [Eh]
	 Opposite-Spin Energy      =      -1.1116642262444612 [Eh]
	 Correlation Energy        =      -1.4473925632118823 [Eh]
	 Total Energy              =    -669.1096304242514634 [Eh]

	 ================> DF-SCS-MP2 Energies <==================
	-----------------------------------------------------------
	 SCS Same-Spin Scale       =       0.3333333333333333 [-]
	 SCS Opposite-Spin Scale   =       1.2000000000000000 [-]
	 SCS Same-Spin Energy      =      -0.1119094456558070 [Eh]
	 SCS Opposite-Spin Energy  =      -1.3339970714933533 [Eh]
	 SCS Correlation Energy    =      -1.4459065171491603 [Eh]
	 SCS Total Energy          =    -669.1081443781887401 [Eh]
	-----------------------------------------------------------

  Dipole Moment: [D]
     X:    -0.0964      Y:     1.1956      Z:     0.0008     Total:     1.1995

*** Psi4 exiting successfully. Buy a developer a beer!
