                               Psi4 1.3.2 release

  ==> Input File <==

--------------------------------------------------------------------------
#psi4
#
memory 32 gb

molecule  {
0 1
  S        0.7163710     0.8062280    -0.0057410
  O       -0.7612550    -1.3859280     0.0083390
  C       -2.0509520     0.6590830     0.0068010
  C        1.9223760    -0.5510590    -0.0015950
  C       -0.6109052    -0.2714133     0.0036946
  C       -3.2947410    -0.2161080     0.0056640
  C        3.3341240     0.0170930    -0.0107850
  H       -2.0279500     1.3158130     0.8843350
  H       -2.0299060     1.3210850    -0.8667760
  H        1.7458030    -1.1645560     0.8835850
  H        1.7388000    -1.1758340    -0.8774310
  H       -3.3141610    -0.8622160     0.8846490
  H       -3.3163930    -0.8568630    -0.8772710
  H       -4.1940350     0.4043620     0.0085730
  H        3.5120120     0.6248690    -0.9008780
  H        3.5189980     0.6365110     0.8698160
  H        4.0585630    -0.8014520    -0.0081370
units angstrom
no_reorient  #important for SAPT in psi4, default
symmetry c1  #important for SAPT in psi4, default
}

set PROPERTIES_ORIGIN ["COM"]
properties('MP2/aug-cc-pvtz', properties = ['dipole'])
--------------------------------------------------------------------------

    Molecular point group: c1
  Charge       = 0
  Multiplicity = 1
  Basis Set: AUG-CC-PVTZ
    Blend: AUG-CC-PVTZ
  Basis Set: (AUG-CC-PVTZ AUX)
    Blend: AUG-CC-PVTZ-JKFIT

    Orbital Energies [Eh]
    ---------------------

    Doubly Occupied:

       1A    -91.971886     2A    -20.560249     3A    -11.348268
       4A    -11.265597     5A    -11.232668     6A    -11.232657
       7A    -11.210895     8A     -8.975212     9A     -6.656497
      10A     -6.654966    11A     -6.654281    12A     -1.461414
      13A     -1.099077    14A     -1.029222    15A     -0.988317
      16A     -0.866766    17A     -0.819836    18A     -0.729913
      19A     -0.669168    20A     -0.648785    21A     -0.644795
      22A     -0.619160    23A     -0.570261    24A     -0.566021
      25A     -0.545467    26A     -0.527348    27A     -0.516869
      28A     -0.509113    29A     -0.489114    30A     -0.466364
      31A     -0.378658    32A     -0.370947

  @DF-RHF Final Energy:  -667.64960003450619

   => Energetics <=

    Nuclear Repulsion Energy =            371.1970407588939338
    One-Electron Energy =               -1653.1336969974422573
    Two-Electron Energy =                 614.2870562040420737
    Total Energy =                       -667.6496000345061930
  Basis Set: (AUG-CC-PVTZ AUX)
    Blend: AUG-CC-PVTZ-RI
    Molecular point group: c1

    Geometry (in Angstrom), charge = 0, multiplicity = 1:

       Center              X                  Y                   Z               Mass
    ------------   -----------------  -----------------  -----------------  -----------------
         S            0.699294527268     0.817262093706    -0.005704181666    31.972071174400
         O           -0.778331472732    -1.374893906294     0.008375818334    15.994914619570
         C           -2.068028472732     0.670117093706     0.006837818334    12.000000000000
         C            1.905299527268    -0.540024906294    -0.001558181666    12.000000000000
         C           -0.627981672732    -0.260379206294     0.003731418334    12.000000000000
         C           -3.311817472732    -0.205073906294     0.005700818334    12.000000000000
         C            3.317047527268     0.028127093706    -0.010748181666    12.000000000000
         H           -2.045026472732     1.326847093706     0.884371818334     1.007825032230
         H           -2.046982472732     1.332119093706    -0.866739181666     1.007825032230
         H            1.728726527268    -1.153521906294     0.883621818334     1.007825032230
         H            1.721723527268    -1.164799906294    -0.877394181666     1.007825032230
         H           -3.331237472732    -0.851181906294     0.884685818334     1.007825032230
         H           -3.333469472732    -0.845828906294    -0.877234181666     1.007825032230
         H           -4.211111472732     0.415396093706     0.008609818334     1.007825032230
         H            3.494935527268     0.635903093706    -0.900841181666     1.007825032230
         H            3.501921527268     0.647545093706     0.869852818334     1.007825032230
         H            4.041486527268    -0.790417906294    -0.008100181666     1.007825032230

  Basis Set: AUG-CC-PVTZ
    Blend: AUG-CC-PVTZ
  Basis Set: (AUG-CC-PVTZ AUX)
    Blend: AUG-CC-PVTZ-JKFIT
	 Reference Energy          =    -667.6496000345061930 [Eh]
	 Singles Energy            =      -0.0000000000000000 [Eh]
	 Same-Spin Energy          =      -0.3322997034438803 [Eh]
	 Opposite-Spin Energy      =      -1.1051536619478091 [Eh]
	 Correlation Energy        =      -1.4374533653916894 [Eh]
	 Total Energy              =    -669.0870533998978544 [Eh]

	 ================> DF-SCS-MP2 Energies <==================
	-----------------------------------------------------------
	 SCS Same-Spin Scale       =       0.3333333333333333 [-]
	 SCS Opposite-Spin Scale   =       1.2000000000000000 [-]
	 SCS Same-Spin Energy      =      -0.1107665678146268 [Eh]
	 SCS Opposite-Spin Energy  =      -1.3261843943373708 [Eh]
	 SCS Correlation Energy    =      -1.4369509621519976 [Eh]
	 SCS Total Energy          =    -669.0865509966581612 [Eh]
	-----------------------------------------------------------

  Dipole Moment: [D]
     X:     1.3461      Y:     0.7268      Z:    -0.0041     Total:     1.5298

*** Psi4 exiting successfully. Buy a developer a beer!
