                               Psi4 1.3.2 release

  ==> Input File <==

--------------------------------------------------------------------------
#psi4
#
memory 32 gb

molecule  {
0 1
  S        0.7163710     0.8062280    -0.0057410
  O       -0.7612550    -1.3859280     0.0083390
  C       -2.0509520     0.6590830     0.0068010
  C        1.9223760    -0.5510590    -0.0015950
  C       -0.8236492    -0.2283181     0.0039388
  C       -3.2472325    -0.2800032     0.0054860
  C        3.3341240     0.0170930    -0.0107850
  H       -2.0279500     1.3158130     0.8843350
  H       -2.0299060     1.3210850    -0.8667760
  H        1.7458030    -1.1645560     0.8835850
  H        1.7388000    -1.1758340    -0.8774310
  H       -3.3141610    -0.8622160     0.8846490
  H       -3.3163930    -0.8568630    -0.8772710
  H       -4.1940350     0.4043620     0.0085730
  H        3.5120120     0.6248690    -0.9008780
  H        3.5189980     0.6365110     0.8698160
  H        4.0585630    -0.8014520    -0.0081370
units angstrom
no_reorient  #important for SAPT in psi4, default
symmetry c1  #important for SAPT in psi4, default
}

set PROPERTIES_ORIGIN ["COM"]
properties('MP2/aug-cc-pvtz', properties = ['dipole'])
--------------------------------------------------------------------------

    Molecular point group: c1
  Charge       = 0
  Multiplicity = 1
  Basis Set: AUG-CC-PVTZ
    Blend: AUG-CC-PVTZ
  Basis Set: (AUG-CC-PVTZ AUX)
    Blend: AUG-CC-PVTZ-JKFIT

    Orbital Energies [Eh]
    ---------------------

    Doubly Occupied:

       1A    -91.951906     2A    -20.567583     3A    -11.359040
       4A    -11.255587     5A    -11.251038     6A    -11.225329
       7A    -11.225204     8A     -8.953302     9A     -6.634402
      10A     -6.633391    11A     -6.632692    12A     -1.443504
      13A     -1.080462    14A     -1.063341    15A     -0.962862
      16A     -0.889440    17A     -0.814251    18A     -0.737475
      19A     -0.670834    20A     -0.653148    21A     -0.645195
      22A     -0.626366    23A     -0.566324    24A     -0.561823
      25A     -0.546018    26A     -0.521278    27A     -0.518101
      28A     -0.511195    29A     -0.507002    30A     -0.452024
      31A     -0.389031    32A     -0.357640

  @DF-RHF Final Energy:  -667.67183053498138

   => Energetics <=

    Nuclear Repulsion Energy =            370.1113404707322161
    One-Electron Energy =               -1651.1527581759696659
    Two-Electron Energy =                 613.3695871702561817
    Total Energy =                       -667.6718305349813818
  Basis Set: (AUG-CC-PVTZ AUX)
    Blend: AUG-CC-PVTZ-RI
    Molecular point group: c1

    Geometry (in Angstrom), charge = 0, multiplicity = 1:

       Center              X                  Y                   Z               Mass
    ------------   -----------------  -----------------  -----------------  -----------------
         S            0.716091698126     0.819376537357    -0.005710911289    31.972071174400
         O           -0.761534301874    -1.372779462643     0.008369088711    15.994914619570
         C           -2.051231301874     0.672231537357     0.006831088711    12.000000000000
         C            1.922096698126    -0.537910462643    -0.001564911289    12.000000000000
         C           -0.823928501874    -0.215169562643     0.003968888711    12.000000000000
         C           -3.247511801874    -0.266854662643     0.005516088711    12.000000000000
         C            3.333844698126     0.030241537357    -0.010754911289    12.000000000000
         H           -2.028229301874     1.328961537357     0.884365088711     1.007825032230
         H           -2.030185301874     1.334233537357    -0.866745911289     1.007825032230
         H            1.745523698126    -1.151407462643     0.883615088711     1.007825032230
         H            1.738520698126    -1.162685462643    -0.877400911289     1.007825032230
         H           -3.314440301874    -0.849067462643     0.884679088711     1.007825032230
         H           -3.316672301874    -0.843714462643    -0.877240911289     1.007825032230
         H           -4.194314301874     0.417510537357     0.008603088711     1.007825032230
         H            3.511732698126     0.638017537357    -0.900847911289     1.007825032230
         H            3.518718698126     0.649659537357     0.869846088711     1.007825032230
         H            4.058283698126    -0.788303462643    -0.008106911289     1.007825032230

  Basis Set: AUG-CC-PVTZ
    Blend: AUG-CC-PVTZ
  Basis Set: (AUG-CC-PVTZ AUX)
    Blend: AUG-CC-PVTZ-JKFIT
	 Reference Energy          =    -667.6718305349813818 [Eh]
	 Singles Energy            =      -0.0000000000000000 [Eh]
	 Same-Spin Energy          =      -0.3323680927404824 [Eh]
	 Opposite-Spin Energy      =      -1.1052767262285037 [Eh]
	 Correlation Energy        =      -1.4376448189689861 [Eh]
	 Total Energy              =    -669.1094753539504154 [Eh]

	 ================> DF-SCS-MP2 Energies <==================
	-----------------------------------------------------------
	 SCS Same-Spin Scale       =       0.3333333333333333 [-]
	 SCS Opposite-Spin Scale   =       1.2000000000000000 [-]
	 SCS Same-Spin Energy      =      -0.1107893642468275 [Eh]
	 SCS Opposite-Spin Energy  =      -1.3263320714742044 [Eh]
	 SCS Correlation Energy    =      -1.4371214357210318 [Eh]
	 SCS Total Energy          =    -669.1089519707023783 [Eh]
	-----------------------------------------------------------

  Dipole Moment: [D]
     X:    -0.2928      Y:     0.6120      Z:     0.0030     Total:     0.6785

*** Psi4 exiting successfully. Buy a developer a beer!
