                               Psi4 1.3.2 release

  ==> Input File <==

--------------------------------------------------------------------------
#psi4
#
memory 32 gb

molecule  {
0 1
  S        0.7163710     0.8062280    -0.0057410
  O       -0.7612550    -1.3859280     0.0083390
  C       -2.0509520     0.6590830     0.0068010
  C        1.9223760    -0.5510590    -0.0015950
  C       -0.7828338    -0.1688332    -0.0070583
  C       -3.2947410    -0.2161080     0.0056640
  C        3.3341240     0.0170930    -0.0107850
  H       -2.0364648     1.3193856     0.8818324
  H       -2.0299060     1.3210850    -0.8667760
  H        1.7458030    -1.1645560     0.8835850
  H        1.7388000    -1.1758340    -0.8774310
  H       -3.3141610    -0.8622160     0.8846490
  H       -3.3163930    -0.8568630    -0.8772710
  H       -4.1940350     0.4043620     0.0085730
  H        3.5120120     0.6248690    -0.9008780
  H        3.5189980     0.6365110     0.8698160
  H        4.0585630    -0.8014520    -0.0081370
units angstrom
no_reorient  #important for SAPT in psi4, default
symmetry c1  #important for SAPT in psi4, default
}

set PROPERTIES_ORIGIN ["COM"]
properties('MP2/aug-cc-pvtz', properties = ['dipole'])
--------------------------------------------------------------------------

    Molecular point group: c1
  Charge       = 0
  Multiplicity = 1
  Basis Set: AUG-CC-PVTZ
    Blend: AUG-CC-PVTZ
  Basis Set: (AUG-CC-PVTZ AUX)
    Blend: AUG-CC-PVTZ-JKFIT

    Orbital Energies [Eh]
    ---------------------

    Doubly Occupied:

       1A    -91.964478     2A    -20.555038     3A    -11.359922
       4A    -11.260851     5A    -11.247851     6A    -11.229718
       7A    -11.221248     8A     -8.966229     9A     -6.647413
      10A     -6.646312    11A     -6.645647    12A     -1.394749
      13A     -1.086730    14A     -1.061326    15A     -0.975763
      16A     -0.890599    17A     -0.821069    18A     -0.728577
      19A     -0.659491    20A     -0.642449    21A     -0.634155
      22A     -0.628304    23A     -0.561628    24A     -0.551310
      25A     -0.542052    26A     -0.523972    27A     -0.512484
      28A     -0.511338    29A     -0.494659    30A     -0.459336
      31A     -0.405282    32A     -0.366317

  @DF-RHF Final Energy:  -667.68117107886223

   => Energetics <=

    Nuclear Repulsion Energy =            369.5632645840777286
    One-Electron Energy =               -1650.0962810492171684
    Two-Electron Energy =                 612.8518453862773185
    Total Energy =                       -667.6811710788622349
  Basis Set: (AUG-CC-PVTZ AUX)
    Blend: AUG-CC-PVTZ-RI
    Molecular point group: c1

    Geometry (in Angstrom), charge = 0, multiplicity = 1:

       Center              X                  Y                   Z               Mass
    ------------   -----------------  -----------------  -----------------  -----------------
         S            0.716844787632     0.806803715238    -0.004589719217    31.972071174400
         O           -0.760781212368    -1.385352284762     0.009490280783    15.994914619570
         C           -2.050478212368     0.659658715238     0.007952280783    12.000000000000
         C            1.922849787632    -0.550483284762    -0.000443719217    12.000000000000
         C           -0.782360012368    -0.168257484762    -0.005907019217    12.000000000000
         C           -3.294267212368    -0.215532284762     0.006815280783    12.000000000000
         C            3.334597787632     0.017668715238    -0.009633719217    12.000000000000
         H           -2.035991012368     1.319961315238     0.882983680783     1.007825032230
         H           -2.029432212368     1.321660715238    -0.865624719217     1.007825032230
         H            1.746276787632    -1.163980284762     0.884736280783     1.007825032230
         H            1.739273787632    -1.175258284762    -0.876279719217     1.007825032230
         H           -3.313687212368    -0.861640284762     0.885800280783     1.007825032230
         H           -3.315919212368    -0.856287284762    -0.876119719217     1.007825032230
         H           -4.193561212368     0.404937715238     0.009724280783     1.007825032230
         H            3.512485787632     0.625444715238    -0.899726719217     1.007825032230
         H            3.519471787632     0.637086715238     0.870967280783     1.007825032230
         H            4.059036787632    -0.800876284762    -0.006985719217     1.007825032230

  Basis Set: AUG-CC-PVTZ
    Blend: AUG-CC-PVTZ
  Basis Set: (AUG-CC-PVTZ AUX)
    Blend: AUG-CC-PVTZ-JKFIT
	 Reference Energy          =    -667.6811710788622349 [Eh]
	 Singles Energy            =      -0.0000000000000000 [Eh]
	 Same-Spin Energy          =      -0.3334607788617380 [Eh]
	 Opposite-Spin Energy      =      -1.1073612895344802 [Eh]
	 Correlation Energy        =      -1.4408220683962183 [Eh]
	 Total Energy              =    -669.1219931472584221 [Eh]

	 ================> DF-SCS-MP2 Energies <==================
	-----------------------------------------------------------
	 SCS Same-Spin Scale       =       0.3333333333333333 [-]
	 SCS Opposite-Spin Scale   =       1.2000000000000000 [-]
	 SCS Same-Spin Energy      =      -0.1111535929539127 [Eh]
	 SCS Opposite-Spin Energy  =      -1.3288335474413762 [Eh]
	 SCS Correlation Energy    =      -1.4399871403952889 [Eh]
	 SCS Total Energy          =    -669.1211582192574951 [Eh]
	-----------------------------------------------------------

  Dipole Moment: [D]
     X:     0.2964      Y:     1.0282      Z:    -0.0016     Total:     1.0700

*** Psi4 exiting successfully. Buy a developer a beer!
