                               Psi4 1.3.2 release

  ==> Input File <==

--------------------------------------------------------------------------
#psi4
#
memory 32 gb

molecule  {
0 1
  S        0.7163710     0.8062280    -0.0057410
  O       -0.7612550    -1.3859280     0.0083390
  C       -2.0509520     0.6590830     0.0068010
  C        1.9223760    -0.5510590    -0.0015950
  C       -0.7861093    -0.1739394     0.0040368
  C       -3.2870563    -0.2269286     0.0056341
  C        3.3341240     0.0170930    -0.0107850
  H       -2.0279500     1.3158130     0.8843350
  H       -2.0299060     1.3210850    -0.8667760
  H        1.7458030    -1.1645560     0.8835850
  H        1.7388000    -1.1758340    -0.8774310
  H       -3.3141610    -0.8622160     0.8846490
  H       -3.3163930    -0.8568630    -0.8772710
  H       -4.1940350     0.4043620     0.0085730
  H        3.5120120     0.6248690    -0.9008780
  H        3.5189980     0.6365110     0.8698160
  H        4.0585630    -0.8014520    -0.0081370
units angstrom
no_reorient  #important for SAPT in psi4, default
symmetry c1  #important for SAPT in psi4, default
}

set PROPERTIES_ORIGIN ["COM"]
properties('MP2/aug-cc-pvtz', properties = ['dipole'])
--------------------------------------------------------------------------

    Molecular point group: c1
  Charge       = 0
  Multiplicity = 1
  Basis Set: AUG-CC-PVTZ
    Blend: AUG-CC-PVTZ
  Basis Set: (AUG-CC-PVTZ AUX)
    Blend: AUG-CC-PVTZ-JKFIT

    Orbital Energies [Eh]
    ---------------------

    Doubly Occupied:

       1A    -91.963415     2A    -20.555925     3A    -11.359543
       4A    -11.260384     5A    -11.248086     6A    -11.229335
       7A    -11.221573     8A     -8.965128     9A     -6.646304
      10A     -6.645212    11A     -6.644544    12A     -1.398717
      13A     -1.086041    14A     -1.061589    15A     -0.974611
      16A     -0.890489    17A     -0.820460    18A     -0.728959
      19A     -0.659729    20A     -0.643513    21A     -0.635195
      22A     -0.628527    23A     -0.561604    24A     -0.549060
      25A     -0.544330    26A     -0.523023    27A     -0.513417
      28A     -0.512054    29A     -0.496964    30A     -0.458668
      31A     -0.403905    32A     -0.365652

  @DF-RHF Final Energy:  -667.68139155726249

   => Energetics <=

    Nuclear Repulsion Energy =            369.6600855222499717
    One-Electron Energy =               -1650.2910423453686235
    Two-Electron Energy =                 612.9495652658561085
    Total Energy =                       -667.6813915572624865
  Basis Set: (AUG-CC-PVTZ AUX)
    Blend: AUG-CC-PVTZ-RI
    Molecular point group: c1

    Geometry (in Angstrom), charge = 0, multiplicity = 1:

       Center              X                  Y                   Z               Mass
    ------------   -----------------  -----------------  -----------------  -----------------
         S            0.716323870138     0.808453270630    -0.005735928817    31.972071174400
         O           -0.761302129862    -1.383702729370     0.008344071183    15.994914619570
         C           -2.050999129862     0.661308270630     0.006806071183    12.000000000000
         C            1.922328870138    -0.548833729370    -0.001589928817    12.000000000000
         C           -0.786156429862    -0.171714129370     0.004041871183    12.000000000000
         C           -3.287103429862    -0.224703329370     0.005639171183    12.000000000000
         C            3.334076870138     0.019318270630    -0.010779928817    12.000000000000
         H           -2.027997129862     1.318038270630     0.884340071183     1.007825032230
         H           -2.029953129862     1.323310270630    -0.866770928817     1.007825032230
         H            1.745755870138    -1.162330729370     0.883590071183     1.007825032230
         H            1.738752870138    -1.173608729370    -0.877425928817     1.007825032230
         H           -3.314208129862    -0.859990729370     0.884654071183     1.007825032230
         H           -3.316440129862    -0.854637729370    -0.877265928817     1.007825032230
         H           -4.194082129862     0.406587270630     0.008578071183     1.007825032230
         H            3.511964870138     0.627094270630    -0.900872928817     1.007825032230
         H            3.518950870138     0.638736270630     0.869821071183     1.007825032230
         H            4.058515870138    -0.799226729370    -0.008131928817     1.007825032230

  Basis Set: AUG-CC-PVTZ
    Blend: AUG-CC-PVTZ
  Basis Set: (AUG-CC-PVTZ AUX)
    Blend: AUG-CC-PVTZ-JKFIT
	 Reference Energy          =    -667.6813915572624865 [Eh]
	 Singles Energy            =      -0.0000000000000000 [Eh]
	 Same-Spin Energy          =      -0.3333425280203719 [Eh]
	 Opposite-Spin Energy      =      -1.1071181486376656 [Eh]
	 Correlation Energy        =      -1.4404606766580375 [Eh]
	 Total Energy              =    -669.1218522339205492 [Eh]

	 ================> DF-SCS-MP2 Energies <==================
	-----------------------------------------------------------
	 SCS Same-Spin Scale       =       0.3333333333333333 [-]
	 SCS Opposite-Spin Scale   =       1.2000000000000000 [-]
	 SCS Same-Spin Energy      =      -0.1111141760067906 [Eh]
	 SCS Opposite-Spin Energy  =      -1.3285417783651987 [Eh]
	 SCS Correlation Energy    =      -1.4396559543719893 [Eh]
	 SCS Total Energy          =    -669.1210475116345151 [Eh]
	-----------------------------------------------------------

  Dipole Moment: [D]
     X:     0.2481      Y:     0.9907      Z:    -0.0003     Total:     1.0213

*** Psi4 exiting successfully. Buy a developer a beer!
