                               Psi4 1.3.2 release

  ==> Input File <==

--------------------------------------------------------------------------
#psi4
#
memory 32 gb

molecule  {
0 1
  S        0.7402424     0.8270681    -0.0059695
  O       -0.7612550    -1.3859280     0.0083390
  C       -2.0509520     0.6590830     0.0068010
  C        1.9223760    -0.5510590    -0.0015950
  C       -0.7788880    -0.1628700     0.0040570
  C       -3.2947410    -0.2161080     0.0056640
  C        3.3239926     0.0416448    -0.0109054
  H       -2.0279500     1.3158130     0.8843350
  H       -2.0299060     1.3210850    -0.8667760
  H        1.7458030    -1.1645560     0.8835850
  H        1.7388000    -1.1758340    -0.8774310
  H       -3.3141610    -0.8622160     0.8846490
  H       -3.3163930    -0.8568630    -0.8772710
  H       -4.1940350     0.4043620     0.0085730
  H        3.5120120     0.6248690    -0.9008780
  H        3.5189980     0.6365110     0.8698160
  H        4.0585630    -0.8014520    -0.0081370
units angstrom
no_reorient  #important for SAPT in psi4, default
symmetry c1  #important for SAPT in psi4, default
}

set PROPERTIES_ORIGIN ["COM"]
properties('MP2/aug-cc-pvtz', properties = ['dipole'])
--------------------------------------------------------------------------

    Molecular point group: c1
  Charge       = 0
  Multiplicity = 1
  Basis Set: AUG-CC-PVTZ
    Blend: AUG-CC-PVTZ
  Basis Set: (AUG-CC-PVTZ AUX)
    Blend: AUG-CC-PVTZ-JKFIT

    Orbital Energies [Eh]
    ---------------------

    Doubly Occupied:

       1A    -91.965321     2A    -20.556874     3A    -11.362649
       4A    -11.260900     5A    -11.248476     6A    -11.229320
       7A    -11.221601     8A     -8.966558     9A     -6.647708
      10A     -6.646585    11A     -6.645934    12A     -1.391542
      13A     -1.085628    14A     -1.061557    15A     -0.971838
      16A     -0.890712    17A     -0.820510    18A     -0.729121
      19A     -0.657466    20A     -0.642734    21A     -0.632050
      22A     -0.630332    23A     -0.556114    24A     -0.551360
      25A     -0.541749    26A     -0.524409    27A     -0.514709
      28A     -0.511638    29A     -0.494704    30A     -0.457943
      31A     -0.404595    32A     -0.366298

  @DF-RHF Final Energy:  -667.67872415941792

   => Energetics <=

    Nuclear Repulsion Energy =            368.7580655440036139
    One-Electron Energy =               -1648.4957072713013986
    Two-Electron Energy =                 612.0589175678799165
    Total Energy =                       -667.6787241594179250
  Basis Set: (AUG-CC-PVTZ AUX)
    Blend: AUG-CC-PVTZ-RI
    Molecular point group: c1

    Geometry (in Angstrom), charge = 0, multiplicity = 1:

       Center              X                  Y                   Z               Mass
    ------------   -----------------  -----------------  -----------------  -----------------
         S            0.734806823126     0.818927829412    -0.005895394111    31.972071174400
         O           -0.766690576874    -1.394068270588     0.008413105889    15.994914619570
         C           -2.056387576874     0.650942729412     0.006875105889    12.000000000000
         C            1.916940423126    -0.559199270588    -0.001520894111    12.000000000000
         C           -0.784323576874    -0.171010270588     0.004131105889    12.000000000000
         C           -3.300176576874    -0.224248270588     0.005738105889    12.000000000000
         C            3.318557023126     0.033504529412    -0.010831294111    12.000000000000
         H           -2.033385576874     1.307672729412     0.884409105889     1.007825032230
         H           -2.035341576874     1.312944729412    -0.866701894111     1.007825032230
         H            1.740367423126    -1.172696270588     0.883659105889     1.007825032230
         H            1.733364423126    -1.183974270588    -0.877356894111     1.007825032230
         H           -3.319596576874    -0.870356270588     0.884723105889     1.007825032230
         H           -3.321828576874    -0.865003270588    -0.877196894111     1.007825032230
         H           -4.199470576874     0.396221729412     0.008647105889     1.007825032230
         H            3.506576423126     0.616728729412    -0.900803894111     1.007825032230
         H            3.513562423126     0.628370729412     0.869890105889     1.007825032230
         H            4.053127423126    -0.809592270588    -0.008062894111     1.007825032230

  Basis Set: AUG-CC-PVTZ
    Blend: AUG-CC-PVTZ
  Basis Set: (AUG-CC-PVTZ AUX)
    Blend: AUG-CC-PVTZ-JKFIT
	 Reference Energy          =    -667.6787241594179250 [Eh]
	 Singles Energy            =      -0.0000000000000000 [Eh]
	 Same-Spin Energy          =      -0.3336649734499516 [Eh]
	 Opposite-Spin Energy      =      -1.1081475366429601 [Eh]
	 Correlation Energy        =      -1.4418125100929116 [Eh]
	 Total Energy              =    -669.1205366695107841 [Eh]

	 ================> DF-SCS-MP2 Energies <==================
	-----------------------------------------------------------
	 SCS Same-Spin Scale       =       0.3333333333333333 [-]
	 SCS Opposite-Spin Scale   =       1.2000000000000000 [-]
	 SCS Same-Spin Energy      =      -0.1112216578166505 [Eh]
	 SCS Opposite-Spin Energy  =      -1.3297770439715519 [Eh]
	 SCS Correlation Energy    =      -1.4409987017882024 [Eh]
	 SCS Total Energy          =    -669.1197228612061281 [Eh]
	-----------------------------------------------------------

  Dipole Moment: [D]
     X:     0.2277      Y:     1.0166      Z:    -0.0002     Total:     1.0418

*** Psi4 exiting successfully. Buy a developer a beer!
