                               Psi4 1.4a3.dev225

  ==> Input File <==

--------------------------------------------------------------------------
#psi4
#
memory 32 gb

molecule  {
0 1
  S       -0.7336830    -0.7988290    -0.0000010
  O        0.7842810     1.3701820    -0.0000010
  C        2.0392260    -0.6993310     0.0000000
  C       -1.9177210     0.5806550    -0.0000020
  C        0.7384994     0.1198439    -0.0000010
  C        3.3000750     0.1543340     0.0000020
  C       -3.3406260     0.0364320     0.0000030
  H        2.0053990    -1.3579180     0.8761960
  H        2.0054010    -1.3579160    -0.8761980
  H       -1.7269280     1.1964810     0.8811220
  H       -1.7269330     1.1964770    -0.8811310
  H        3.3326310     0.7974220     0.8814170
  H        3.3326220     0.7974380    -0.8814010
  H        4.1880090    -0.4829760    -0.0000080
  H       -3.5331250    -0.5739300    -0.8857830
  H       -3.5331200    -0.5739250     0.8857940
  H       -4.0504940     0.8682350     0.0000030
units angstrom
no_reorient  #important for SAPT in psi4, default
symmetry c1  #important for SAPT in psi4, default
}

set PROPERTIES_ORIGIN ["COM"]
properties('MP2/aug-cc-pvtz', properties = ['dipole'])
--------------------------------------------------------------------------

    Molecular point group: c1
  Charge       = 0
  Multiplicity = 1
  Basis Set: AUG-CC-PVTZ
    Blend: AUG-CC-PVTZ
  Basis Set: (AUG-CC-PVTZ AUX)
    Blend: AUG-CC-PVTZ-JKFIT

    Orbital Energies [Eh]
    ---------------------

    Doubly Occupied:

       1A    -91.972117     2A    -20.547106     3A    -11.359332
       4A    -11.264921     5A    -11.247310     6A    -11.232889
       7A    -11.219492     8A     -8.974530     9A     -6.655810
      10A     -6.654559    11A     -6.653948    12A     -1.367920
      13A     -1.092911    14A     -1.055831    15A     -0.985543
      16A     -0.888841    17A     -0.825915    18A     -0.723270
      19A     -0.654127    20A     -0.640816    21A     -0.627794
      22A     -0.624764    23A     -0.561466    24A     -0.551401
      25A     -0.536852    26A     -0.519883    27A     -0.511608
      28A     -0.510224    29A     -0.487368    30A     -0.461769
      31A     -0.410058    32A     -0.371981

  @DF-RHF Final Energy:  -667.67542035927181

   => Energetics <=

    Nuclear Repulsion Energy =            369.3547987709472409
    One-Electron Energy =               -1649.6757308416802061
    Two-Electron Energy =                 612.6455117114610402
    Total Energy =                       -667.6754203592718113
  Basis Set: (AUG-CC-PVTZ AUX)
    Blend: AUG-CC-PVTZ-RI
    Molecular point group: c1

    Geometry (in Angstrom), charge = 0, multiplicity = 1:

       Center              X                  Y                   Z               Mass
    ------------   -----------------  -----------------  -----------------  -----------------
         S           -0.727044372819    -0.791986769090    -0.000000890882    31.972071174400
         O            0.790919627181     1.377024230910    -0.000000890882    15.994914619570
         C            2.045864627181    -0.692488769090     0.000000109118    12.000000000000
         C           -1.911082372819     0.587497230910    -0.000001890882    12.000000000000
         C            0.745138027181     0.126686130910    -0.000000890882    12.000000000000
         C            3.306713627181     0.161176230910     0.000002109118    12.000000000000
         C           -3.333987372819     0.043274230910     0.000003109118    12.000000000000
         H            2.012037627181    -1.351075769090     0.876196109118     1.007825032230
         H            2.012039627181    -1.351073769090    -0.876197890882     1.007825032230
         H           -1.720289372819     1.203323230910     0.881122109118     1.007825032230
         H           -1.720294372819     1.203319230910    -0.881130890882     1.007825032230
         H            3.339269627181     0.804264230910     0.881417109118     1.007825032230
         H            3.339260627181     0.804280230910    -0.881400890882     1.007825032230
         H            4.194647627181    -0.476133769090    -0.000007890882     1.007825032230
         H           -3.526486372819    -0.567087769090    -0.885782890882     1.007825032230
         H           -3.526481372819    -0.567082769090     0.885794109118     1.007825032230
         H           -4.043855372819     0.875077230910     0.000003109118     1.007825032230

  Basis Set: AUG-CC-PVTZ
    Blend: AUG-CC-PVTZ
  Basis Set: (AUG-CC-PVTZ AUX)
    Blend: AUG-CC-PVTZ-JKFIT
	 Reference Energy          =    -667.6754203592718113 [Eh]
	 Singles Energy            =      -0.0000000000000000 [Eh]
	 Same-Spin Energy          =      -0.3343574458321374 [Eh]
	 Opposite-Spin Energy      =      -1.1091508185418955 [Eh]
	 Correlation Energy        =      -1.4435082643740329 [Eh]
	 Total Energy              =    -669.1189286236458429 [Eh]

	 ================> DF-SCS-MP2 Energies <==================
	-----------------------------------------------------------
	 SCS Same-Spin Scale       =       0.3333333333333333 [-]
	 SCS Opposite-Spin Scale   =       1.2000000000000000 [-]
	 SCS Same-Spin Energy      =      -0.1114524819440458 [Eh]
	 SCS Opposite-Spin Energy  =      -1.3309809822502745 [Eh]
	 SCS Correlation Energy    =      -1.4424334641943204 [Eh]
	 SCS Total Energy          =    -669.1178538234661346 [Eh]
	-----------------------------------------------------------

  Dipole Moment: [D]
     X:    -0.7774      Y:    -1.2353      Z:     0.0000     Total:     1.4596

*** Psi4 exiting successfully. Buy a developer a beer!
