                               Psi4 1.3.2 release

  ==> Input File <==

--------------------------------------------------------------------------
#psi4
#
memory 32 gb

molecule  {
0 1
  S        0.7163710     0.8062280    -0.0057410
  O       -0.7612550    -1.3859280     0.0083390
  C       -2.0509520     0.6590830     0.0068010
  C        1.9458802    -0.5298052    -0.0017829
  C       -0.7955740    -0.1366266     0.0039576
  C       -3.2947410    -0.2161080     0.0056640
  C        3.3341240     0.0170930    -0.0107850
  H       -2.0279500     1.3158130     0.8843350
  H       -2.0299060     1.3210850    -0.8667760
  H        1.7458030    -1.1645560     0.8835850
  H        1.7388000    -1.1758340    -0.8774310
  H       -3.3141610    -0.8622160     0.8846490
  H       -3.3163930    -0.8568630    -0.8772710
  H       -4.1940350     0.4043620     0.0085730
  H        3.5120120     0.6248690    -0.9008780
  H        3.5189980     0.6365110     0.8698160
  H        4.0585630    -0.8014520    -0.0081370
units angstrom
no_reorient  #important for SAPT in psi4, default
symmetry c1  #important for SAPT in psi4, default
}

set PROPERTIES_ORIGIN ["COM"]
properties('MP2/aug-cc-pvtz', properties = ['dipole'])
--------------------------------------------------------------------------

    Molecular point group: c1
  Charge       = 0
  Multiplicity = 1
  Basis Set: AUG-CC-PVTZ
    Blend: AUG-CC-PVTZ
  Basis Set: (AUG-CC-PVTZ AUX)
    Blend: AUG-CC-PVTZ-JKFIT

    Orbital Energies [Eh]
    ---------------------

    Doubly Occupied:

       1A    -91.966666     2A    -20.551041     3A    -11.362622
       4A    -11.263199     5A    -11.248876     6A    -11.229444
       7A    -11.222368     8A     -8.968363     9A     -6.649557
      10A     -6.648513    11A     -6.647846    12A     -1.372157
      13A     -1.091089    14A     -1.067245    15A     -0.980385
      16A     -0.895251    17A     -0.819746    18A     -0.727193
      19A     -0.657861    20A     -0.643414    21A     -0.628377
      22A     -0.627838    23A     -0.564317    24A     -0.554690
      25A     -0.536050    26A     -0.525337    27A     -0.513514
      28A     -0.508195    29A     -0.487557    30A     -0.458701
      31A     -0.408889    32A     -0.365522

  @DF-RHF Final Energy:  -667.67518554892183

   => Energetics <=

    Nuclear Repulsion Energy =            369.4181620235819423
    One-Electron Energy =               -1649.8030441252567471
    Two-Electron Energy =                 612.7096965527529164
    Total Energy =                       -667.6751855489218315
  Basis Set: (AUG-CC-PVTZ AUX)
    Blend: AUG-CC-PVTZ-RI
    Molecular point group: c1

    Geometry (in Angstrom), charge = 0, multiplicity = 1:

       Center              X                  Y                   Z               Mass
    ------------   -----------------  -----------------  -----------------  -----------------
         S            0.715677866940     0.801399649260    -0.005711816027    31.972071174400
         O           -0.761948133060    -1.390756350740     0.008368183973    15.994914619570
         C           -2.051645133060     0.654254649260     0.006830183973    12.000000000000
         C            1.945187066940    -0.534633550740    -0.001753716027    12.000000000000
         C           -0.796267133060    -0.141454950740     0.003986783973    12.000000000000
         C           -3.295434133060    -0.220936350740     0.005693183973    12.000000000000
         C            3.333430866940     0.012264649260    -0.010755816027    12.000000000000
         H           -2.028643133060     1.310984649260     0.884364183973     1.007825032230
         H           -2.030599133060     1.316256649260    -0.866746816027     1.007825032230
         H            1.745109866940    -1.169384350740     0.883614183973     1.007825032230
         H            1.738106866940    -1.180662350740    -0.877401816027     1.007825032230
         H           -3.314854133060    -0.867044350740     0.884678183973     1.007825032230
         H           -3.317086133060    -0.861691350740    -0.877241816027     1.007825032230
         H           -4.194728133060     0.399533649260     0.008602183973     1.007825032230
         H            3.511318866940     0.620040649260    -0.900848816027     1.007825032230
         H            3.518304866940     0.631682649260     0.869845183973     1.007825032230
         H            4.057869866940    -0.806280350740    -0.008107816027     1.007825032230

  Basis Set: AUG-CC-PVTZ
    Blend: AUG-CC-PVTZ
  Basis Set: (AUG-CC-PVTZ AUX)
    Blend: AUG-CC-PVTZ-JKFIT
	 Reference Energy          =    -667.6751855489218315 [Eh]
	 Singles Energy            =      -0.0000000000000000 [Eh]
	 Same-Spin Energy          =      -0.3346039081296945 [Eh]
	 Opposite-Spin Energy      =      -1.1092594386743837 [Eh]
	 Correlation Energy        =      -1.4438633468040782 [Eh]
	 Total Energy              =    -669.1190488957258822 [Eh]

	 ================> DF-SCS-MP2 Energies <==================
	-----------------------------------------------------------
	 SCS Same-Spin Scale       =       0.3333333333333333 [-]
	 SCS Opposite-Spin Scale   =       1.2000000000000000 [-]
	 SCS Same-Spin Energy      =      -0.1115346360432315 [Eh]
	 SCS Opposite-Spin Energy  =      -1.3311113264092604 [Eh]
	 SCS Correlation Energy    =      -1.4426459624524919 [Eh]
	 SCS Total Energy          =    -669.1178315113743338 [Eh]
	-----------------------------------------------------------

  Dipole Moment: [D]
     X:     0.3340      Y:     1.1540      Z:    -0.0011     Total:     1.2014

*** Psi4 exiting successfully. Buy a developer a beer!
