                               Psi4 1.3.2 release

  ==> Input File <==

--------------------------------------------------------------------------
#psi4
#
memory 32 gb

molecule  {
0 1
  S        0.7163710     0.8062280    -0.0057410
  O       -0.7612550    -1.3859280     0.0083390
  C       -2.0509520     0.6590830     0.0068010
  C        1.9223760    -0.5510590    -0.0015950
  C       -0.7817711     0.0371080     0.0033569
  C       -3.2947410    -0.2161080     0.0056640
  C        3.3341240     0.0170930    -0.0107850
  H       -2.0279500     1.3158130     0.8843350
  H       -2.0299060     1.3210850    -0.8667760
  H        1.7458030    -1.1645560     0.8835850
  H        1.7388000    -1.1758340    -0.8774310
  H       -3.3141610    -0.8622160     0.8846490
  H       -3.3163930    -0.8568630    -0.8772710
  H       -4.1940350     0.4043620     0.0085730
  H        3.5120120     0.6248690    -0.9008780
  H        3.5189980     0.6365110     0.8698160
  H        4.0585630    -0.8014520    -0.0081370
units angstrom
no_reorient  #important for SAPT in psi4, default
symmetry c1  #important for SAPT in psi4, default
}

set PROPERTIES_ORIGIN ["COM"]
properties('MP2/aug-cc-pvtz', properties = ['dipole'])
--------------------------------------------------------------------------

    Molecular point group: c1
  Charge       = 0
  Multiplicity = 1
  Basis Set: AUG-CC-PVTZ
    Blend: AUG-CC-PVTZ
  Basis Set: (AUG-CC-PVTZ AUX)
    Blend: AUG-CC-PVTZ-JKFIT

    Orbital Energies [Eh]
    ---------------------

    Doubly Occupied:

       1A    -91.984991     2A    -20.521982     3A    -11.366433
       4A    -11.269568     5A    -11.249787     6A    -11.236904
       7A    -11.222426     8A     -8.987584     9A     -6.668998
      10A     -6.667689    11A     -6.667246    12A     -1.272046
      13A     -1.103481    14A     -1.076690    15A     -0.998069
      16A     -0.909623    17A     -0.837069    18A     -0.720841
      19A     -0.655089    20A     -0.648290    21A     -0.635165
      22A     -0.591564    23A     -0.568880    24A     -0.548081
      25A     -0.530919    26A     -0.519323    27A     -0.515309
      28A     -0.500754    29A     -0.456789    30A     -0.449955
      31A     -0.409917    32A     -0.368902

  @DF-RHF Final Energy:  -667.61599645690205

   => Energetics <=

    Nuclear Repulsion Energy =            369.2104084795773247
    One-Electron Energy =               -1649.3320865732198399
    Two-Electron Energy =                 612.5056816367404053
    Total Energy =                       -667.6159964569020531
  Basis Set: (AUG-CC-PVTZ AUX)
    Blend: AUG-CC-PVTZ-RI
    Molecular point group: c1

    Geometry (in Angstrom), charge = 0, multiplicity = 1:

       Center              X                  Y                   Z               Mass
    ------------   -----------------  -----------------  -----------------  -----------------
         S            0.716664061757     0.785899069481    -0.005669852453    31.972071174400
         O           -0.760961938243    -1.406256930519     0.008410147547    15.994914619570
         C           -2.050658938243     0.638754069481     0.006872147547    12.000000000000
         C            1.922669061757    -0.571387930519    -0.001523852453    12.000000000000
         C           -0.781478038243     0.016779069481     0.003428047547    12.000000000000
         C           -3.294447938243    -0.236436930519     0.005735147547    12.000000000000
         C            3.334417061757    -0.003235930519    -0.010713852453    12.000000000000
         H           -2.027656938243     1.295484069481     0.884406147547     1.007825032230
         H           -2.029612938243     1.300756069481    -0.866704852453     1.007825032230
         H            1.746096061757    -1.184884930519     0.883656147547     1.007825032230
         H            1.739093061757    -1.196162930519    -0.877359852453     1.007825032230
         H           -3.313867938243    -0.882544930519     0.884720147547     1.007825032230
         H           -3.316099938243    -0.877191930519    -0.877199852453     1.007825032230
         H           -4.193741938243     0.384033069481     0.008644147547     1.007825032230
         H            3.512305061757     0.604540069481    -0.900806852453     1.007825032230
         H            3.519291061757     0.616182069481     0.869887147547     1.007825032230
         H            4.058856061757    -0.821780930519    -0.008065852453     1.007825032230

  Basis Set: AUG-CC-PVTZ
    Blend: AUG-CC-PVTZ
  Basis Set: (AUG-CC-PVTZ AUX)
    Blend: AUG-CC-PVTZ-JKFIT
	 Reference Energy          =    -667.6159964569020531 [Eh]
	 Singles Energy            =      -0.0000000000000000 [Eh]
	 Same-Spin Energy          =      -0.3399889783567200 [Eh]
	 Opposite-Spin Energy      =      -1.1191254712535055 [Eh]
	 Correlation Energy        =      -1.4591144496102255 [Eh]
	 Total Energy              =    -669.0751109065122364 [Eh]

	 ================> DF-SCS-MP2 Energies <==================
	-----------------------------------------------------------
	 SCS Same-Spin Scale       =       0.3333333333333333 [-]
	 SCS Opposite-Spin Scale   =       1.2000000000000000 [-]
	 SCS Same-Spin Energy      =      -0.1133296594522400 [Eh]
	 SCS Opposite-Spin Energy  =      -1.3429505655042064 [Eh]
	 SCS Correlation Energy    =      -1.4562802249564464 [Eh]
	 SCS Total Energy          =    -669.0722766818585114 [Eh]
	-----------------------------------------------------------

  Dipole Moment: [D]
     X:     0.9634      Y:     1.8118      Z:    -0.0056     Total:     2.0520

*** Psi4 exiting successfully. Buy a developer a beer!
