                               Psi4 1.3.2 release

  ==> Input File <==

--------------------------------------------------------------------------
#psi4
#
memory 32 gb

molecule  {
0 1
  S        0.7163710     0.8062280    -0.0057410
  O       -0.7612550    -1.3859280     0.0083390
  C       -2.0509520     0.6590830     0.0068010
  C        1.8742728    -0.5923199    -0.0012230
  C       -0.7441548    -0.2144634     0.0042468
  C       -3.2947410    -0.2161080     0.0056640
  C        3.3341240     0.0170930    -0.0107850
  H       -2.0279500     1.3158130     0.8843350
  H       -2.0299060     1.3210850    -0.8667760
  H        1.7458030    -1.1645560     0.8835850
  H        1.7388000    -1.1758340    -0.8774310
  H       -3.3141610    -0.8622160     0.8846490
  H       -3.3163930    -0.8568630    -0.8772710
  H       -4.1940350     0.4043620     0.0085730
  H        3.5120120     0.6248690    -0.9008780
  H        3.5189980     0.6365110     0.8698160
  H        4.0585630    -0.8014520    -0.0081370
units angstrom
no_reorient  #important for SAPT in psi4, default
symmetry c1  #important for SAPT in psi4, default
}

set PROPERTIES_ORIGIN ["COM"]
properties('MP2/aug-cc-pvtz', properties = ['dipole'])
--------------------------------------------------------------------------

    Molecular point group: c1
  Charge       = 0
  Multiplicity = 1
  Basis Set: AUG-CC-PVTZ
    Blend: AUG-CC-PVTZ
  Basis Set: (AUG-CC-PVTZ AUX)
    Blend: AUG-CC-PVTZ-JKFIT

    Orbital Energies [Eh]
    ---------------------

    Doubly Occupied:

       1A    -91.963794     2A    -20.559025     3A    -11.354291
       4A    -11.258354     5A    -11.244586     6A    -11.231202
       7A    -11.218601     8A     -8.965792     9A     -6.646980
      10A     -6.645741    11A     -6.645086    12A     -1.427833
      13A     -1.082217    14A     -1.050102    15A     -0.970293
      16A     -0.882900    17A     -0.825086    18A     -0.729610
      19A     -0.662781    20A     -0.644384    21A     -0.640818
      22A     -0.628437    23A     -0.560148    24A     -0.554140
      25A     -0.545636    26A     -0.520951    27A     -0.520149
      28A     -0.503596    29A     -0.498068    30A     -0.462622
      31A     -0.396056    32A     -0.369833

  @DF-RHF Final Energy:  -667.67651924306517

   => Energetics <=

    Nuclear Repulsion Energy =            370.0069170711406059
    One-Electron Energy =               -1650.9486493203103237
    Two-Electron Energy =                 613.2652130061045455
    Total Energy =                       -667.6765192430651723
  Basis Set: (AUG-CC-PVTZ AUX)
    Blend: AUG-CC-PVTZ-RI
    Molecular point group: c1

    Geometry (in Angstrom), charge = 0, multiplicity = 1:

       Center              X                  Y                   Z               Mass
    ------------   -----------------  -----------------  -----------------  -----------------
         S            0.717730117484     0.815667213589    -0.005798132090    31.972071174400
         O           -0.759895882516    -1.376488786411     0.008281867910    15.994914619570
         C           -2.049592882516     0.668522213589     0.006743867910    12.000000000000
         C            1.875631917484    -0.582880686411    -0.001280132090    12.000000000000
         C           -0.742795682516    -0.205024186411     0.004189667910    12.000000000000
         C           -3.293381882516    -0.206668786411     0.005606867910    12.000000000000
         C            3.335483117484     0.026532213589    -0.010842132090    12.000000000000
         H           -2.026590882516     1.325252213589     0.884277867910     1.007825032230
         H           -2.028546882516     1.330524213589    -0.866833132090     1.007825032230
         H            1.747162117484    -1.155116786411     0.883527867910     1.007825032230
         H            1.740159117484    -1.166394786411    -0.877488132090     1.007825032230
         H           -3.312801882516    -0.852776786411     0.884591867910     1.007825032230
         H           -3.315033882516    -0.847423786411    -0.877328132090     1.007825032230
         H           -4.192675882516     0.413801213589     0.008515867910     1.007825032230
         H            3.513371117484     0.634308213589    -0.900935132090     1.007825032230
         H            3.520357117484     0.645950213589     0.869758867910     1.007825032230
         H            4.059922117484    -0.792012786411    -0.008194132090     1.007825032230

  Basis Set: AUG-CC-PVTZ
    Blend: AUG-CC-PVTZ
  Basis Set: (AUG-CC-PVTZ AUX)
    Blend: AUG-CC-PVTZ-JKFIT
	 Reference Energy          =    -667.6765192430651723 [Eh]
	 Singles Energy            =      -0.0000000000000000 [Eh]
	 Same-Spin Energy          =      -0.3321830193831944 [Eh]
	 Opposite-Spin Energy      =      -1.1053889480883119 [Eh]
	 Correlation Energy        =      -1.4375719674715062 [Eh]
	 Total Energy              =    -669.1140912105366851 [Eh]

	 ================> DF-SCS-MP2 Energies <==================
	-----------------------------------------------------------
	 SCS Same-Spin Scale       =       0.3333333333333333 [-]
	 SCS Opposite-Spin Scale   =       1.2000000000000000 [-]
	 SCS Same-Spin Energy      =      -0.1107276731277315 [Eh]
	 SCS Opposite-Spin Energy  =      -1.3264667377059742 [Eh]
	 SCS Correlation Energy    =      -1.4371944108337056 [Eh]
	 SCS Total Energy          =    -669.1137136538989125 [Eh]
	-----------------------------------------------------------

  Dipole Moment: [D]
     X:     0.4002      Y:     0.8601      Z:    -0.0005     Total:     0.9487

*** Psi4 exiting successfully. Buy a developer a beer!
