                               Psi4 1.3.2 release

  ==> Input File <==

--------------------------------------------------------------------------
#psi4
#
memory 32 gb

molecule  {
0 1
  S        0.7163710     0.8062280    -0.0057410
  O       -0.7612550    -1.3859280     0.0083390
  C       -2.0509520     0.6590830     0.0068010
  C        1.9223760    -0.5510590    -0.0015950
  C       -0.8083488    -0.2067636     0.0039774
  C       -3.2634396    -0.2589823     0.0055449
  C        3.3341240     0.0170930    -0.0107850
  H       -2.0279500     1.3158130     0.8843350
  H       -2.0299060     1.3210850    -0.8667760
  H        1.7458030    -1.1645560     0.8835850
  H        1.7388000    -1.1758340    -0.8774310
  H       -3.3141610    -0.8622160     0.8846490
  H       -3.3163930    -0.8568630    -0.8772710
  H       -4.1940350     0.4043620     0.0085730
  H        3.5120120     0.6248690    -0.9008780
  H        3.5189980     0.6365110     0.8698160
  H        4.0585630    -0.8014520    -0.0081370
units angstrom
no_reorient  #important for SAPT in psi4, default
symmetry c1  #important for SAPT in psi4, default
}

set PROPERTIES_ORIGIN ["COM"]
properties('MP2/aug-cc-pvtz', properties = ['dipole'])
--------------------------------------------------------------------------

    Molecular point group: c1
  Charge       = 0
  Multiplicity = 1
  Basis Set: AUG-CC-PVTZ
    Blend: AUG-CC-PVTZ
  Basis Set: (AUG-CC-PVTZ AUX)
    Blend: AUG-CC-PVTZ-JKFIT

    Orbital Energies [Eh]
    ---------------------

    Doubly Occupied:

       1A    -91.956771     2A    -20.562736     3A    -11.359037
       4A    -11.257556     5A    -11.249551     6A    -11.226991
       7A    -11.223448     8A     -8.958250     9A     -6.639377
      10A     -6.638339    11A     -6.637649    12A     -1.425230
      13A     -1.082165    14A     -1.062829    15A     -0.967502
      16A     -0.889675    17A     -0.816719    18A     -0.733729
      19A     -0.665332    20A     -0.648582    21A     -0.641749
      22A     -0.627509    23A     -0.561732    24A     -0.556800
      25A     -0.545287    26A     -0.521269    27A     -0.514671
      28A     -0.514050    29A     -0.505116    30A     -0.454859
      31A     -0.395576    32A     -0.361077

  @DF-RHF Final Energy:  -667.67821519835275

   => Energetics <=

    Nuclear Repulsion Energy =            369.9173997648700833
    One-Electron Energy =               -1650.7889058668195048
    Two-Electron Energy =                 613.1932909035965622
    Total Energy =                       -667.6782151983527456
  Basis Set: (AUG-CC-PVTZ AUX)
    Blend: AUG-CC-PVTZ-RI
    Molecular point group: c1

    Geometry (in Angstrom), charge = 0, multiplicity = 1:

       Center              X                  Y                   Z               Mass
    ------------   -----------------  -----------------  -----------------  -----------------
         S            0.716183869571     0.815048494847    -0.005720822744    31.972071174400
         O           -0.761442130429    -1.377107505153     0.008359177256    15.994914619570
         C           -2.051139130429     0.667903494847     0.006821177256    12.000000000000
         C            1.922188869571    -0.542238505153    -0.001574822744    12.000000000000
         C           -0.808535930429    -0.197943105153     0.003997577256    12.000000000000
         C           -3.263626730429    -0.250161805153     0.005565077256    12.000000000000
         C            3.333936869571     0.025913494847    -0.010764822744    12.000000000000
         H           -2.028137130429     1.324633494847     0.884355177256     1.007825032230
         H           -2.030093130429     1.329905494847    -0.866755822744     1.007825032230
         H            1.745615869571    -1.155735505153     0.883605177256     1.007825032230
         H            1.738612869571    -1.167013505153    -0.877410822744     1.007825032230
         H           -3.314348130429    -0.853395505153     0.884669177256     1.007825032230
         H           -3.316580130429    -0.848042505153    -0.877250822744     1.007825032230
         H           -4.194222130429     0.413182494847     0.008593177256     1.007825032230
         H            3.511824869571     0.633689494847    -0.900857822744     1.007825032230
         H            3.518810869571     0.645331494847     0.869836177256     1.007825032230
         H            4.058375869571    -0.792631505153    -0.008116822744     1.007825032230

  Basis Set: AUG-CC-PVTZ
    Blend: AUG-CC-PVTZ
  Basis Set: (AUG-CC-PVTZ AUX)
    Blend: AUG-CC-PVTZ-JKFIT
	 Reference Energy          =    -667.6782151983527456 [Eh]
	 Singles Energy            =      -0.0000000000000000 [Eh]
	 Same-Spin Energy          =      -0.3326816132242851 [Eh]
	 Opposite-Spin Energy      =      -1.1058694126755788 [Eh]
	 Correlation Energy        =      -1.4385510258998639 [Eh]
	 Total Energy              =    -669.1167662242526148 [Eh]

	 ================> DF-SCS-MP2 Energies <==================
	-----------------------------------------------------------
	 SCS Same-Spin Scale       =       0.3333333333333333 [-]
	 SCS Opposite-Spin Scale   =       1.2000000000000000 [-]
	 SCS Same-Spin Energy      =      -0.1108938710747617 [Eh]
	 SCS Opposite-Spin Energy  =      -1.3270432952106945 [Eh]
	 SCS Correlation Energy    =      -1.4379371662854563 [Eh]
	 SCS Total Energy          =    -669.1161523646381966 [Eh]
	-----------------------------------------------------------

  Dipole Moment: [D]
     X:    -0.0688      Y:     0.7687      Z:     0.0016     Total:     0.7718

*** Psi4 exiting successfully. Buy a developer a beer!
