                               Psi4 1.3.2 release

  ==> Input File <==

--------------------------------------------------------------------------
#psi4
#
memory 32 gb

molecule  {
0 1
  S        0.7163710     0.8062280    -0.0057410
  O       -0.7612550    -1.3859280     0.0083390
  C       -2.0509520     0.6590830     0.0068010
  C        1.9223760    -0.5510590    -0.0015950
  C       -0.7640765    -0.1383959     0.0485118
  C       -3.2947410    -0.2161080     0.0056640
  C        3.3341240     0.0170930    -0.0107850
  H       -1.9939148     1.3010252     0.8936755
  H       -2.0299060     1.3210850    -0.8667760
  H        1.7458030    -1.1645560     0.8835850
  H        1.7388000    -1.1758340    -0.8774310
  H       -3.3141610    -0.8622160     0.8846490
  H       -3.3163930    -0.8568630    -0.8772710
  H       -4.1940350     0.4043620     0.0085730
  H        3.5120120     0.6248690    -0.9008780
  H        3.5189980     0.6365110     0.8698160
  H        4.0585630    -0.8014520    -0.0081370
units angstrom
no_reorient  #important for SAPT in psi4, default
symmetry c1  #important for SAPT in psi4, default
}

set PROPERTIES_ORIGIN ["COM"]
properties('MP2/aug-cc-pvtz', properties = ['dipole'])
--------------------------------------------------------------------------

    Molecular point group: c1
  Charge       = 0
  Multiplicity = 1
  Basis Set: AUG-CC-PVTZ
    Blend: AUG-CC-PVTZ
  Basis Set: (AUG-CC-PVTZ AUX)
    Blend: AUG-CC-PVTZ-JKFIT

    Orbital Energies [Eh]
    ---------------------

    Doubly Occupied:

       1A    -91.969385     2A    -20.548755     3A    -11.359830
       4A    -11.263065     5A    -11.247785     6A    -11.231500
       7A    -11.220772     8A     -8.971482     9A     -6.652723
      10A     -6.651553    11A     -6.650918    12A     -1.371255
      13A     -1.090898    14A     -1.060724    15A     -0.981819
      16A     -0.892171    17A     -0.824320    18A     -0.723999
      19A     -0.655359    20A     -0.642540    21A     -0.629916
      22A     -0.625338    23A     -0.561880    24A     -0.551608
      25A     -0.536884    26A     -0.521172    27A     -0.512122
      28A     -0.510658    29A     -0.488726    30A     -0.461262
      31A     -0.409265    32A     -0.369379

  @DF-RHF Final Energy:  -667.67599538316756

   => Energetics <=

    Nuclear Repulsion Energy =            369.6314296356997033
    One-Electron Energy =               -1650.2367266033104443
    Two-Electron Energy =                 612.9293015844431238
    Total Energy =                       -667.6759953831675602
  Basis Set: (AUG-CC-PVTZ AUX)
    Blend: AUG-CC-PVTZ-RI
    Molecular point group: c1

    Geometry (in Angstrom), charge = 0, multiplicity = 1:

       Center              X                  Y                   Z               Mass
    ------------   -----------------  -----------------  -----------------  -----------------
         S            0.714574720970     0.803866336817    -0.010339862086    31.972071174400
         O           -0.763051279030    -1.388289663183     0.003740137914    15.994914619570
         C           -2.052748279030     0.656721336817     0.002202137914    12.000000000000
         C            1.920579720970    -0.553420663183    -0.006193862086    12.000000000000
         C           -0.765872779030    -0.140757563183     0.043912937914    12.000000000000
         C           -3.296537279030    -0.218469663183     0.001065137914    12.000000000000
         C            3.332327720970     0.014731336817    -0.015383862086    12.000000000000
         H           -1.995711079030     1.298663536817     0.889076637914     1.007825032230
         H           -2.031702279030     1.318723336817    -0.871374862086     1.007825032230
         H            1.744006720970    -1.166917663183     0.878986137914     1.007825032230
         H            1.737003720970    -1.178195663183    -0.882029862086     1.007825032230
         H           -3.315957279030    -0.864577663183     0.880050137914     1.007825032230
         H           -3.318189279030    -0.859224663183    -0.881869862086     1.007825032230
         H           -4.195831279030     0.402000336817     0.003974137914     1.007825032230
         H            3.510215720970     0.622507336817    -0.905476862086     1.007825032230
         H            3.517201720970     0.634149336817     0.865217137914     1.007825032230
         H            4.056766720970    -0.803813663183    -0.012735862086     1.007825032230

  Basis Set: AUG-CC-PVTZ
    Blend: AUG-CC-PVTZ
  Basis Set: (AUG-CC-PVTZ AUX)
    Blend: AUG-CC-PVTZ-JKFIT
	 Reference Energy          =    -667.6759953831675602 [Eh]
	 Singles Energy            =      -0.0000000000000000 [Eh]
	 Same-Spin Energy          =      -0.3343746905603430 [Eh]
	 Opposite-Spin Energy      =      -1.1090419135545058 [Eh]
	 Correlation Energy        =      -1.4434166041148488 [Eh]
	 Total Energy              =    -669.1194119872824331 [Eh]

	 ================> DF-SCS-MP2 Energies <==================
	-----------------------------------------------------------
	 SCS Same-Spin Scale       =       0.3333333333333333 [-]
	 SCS Opposite-Spin Scale   =       1.2000000000000000 [-]
	 SCS Same-Spin Energy      =      -0.1114582301867810 [Eh]
	 SCS Opposite-Spin Energy  =      -1.3308502962654070 [Eh]
	 SCS Correlation Energy    =      -1.4423085264521880 [Eh]
	 SCS Total Energy          =    -669.1183039096197263 [Eh]
	-----------------------------------------------------------

  Dipole Moment: [D]
     X:     0.5504      Y:     1.1861      Z:    -0.0023     Total:     1.3076

*** Psi4 exiting successfully. Buy a developer a beer!
