                               Psi4 1.3.2 release

  ==> Input File <==

--------------------------------------------------------------------------
#psi4
#
memory 32 gb

molecule  {
0 1
  S        0.7102282     0.8007187     0.0077857
  O       -0.7612550    -1.3859280     0.0083390
  C       -2.0509520     0.6590830     0.0068010
  C        1.9223760    -0.5510590    -0.0015950
  C       -0.7788880    -0.1628700     0.0040570
  C       -3.2947410    -0.2161080     0.0056640
  C        3.3341240     0.0170930    -0.0107850
  H       -2.0279500     1.3158130     0.8843350
  H       -2.0299060     1.3210850    -0.8667760
  H        1.7386347    -1.1588067     0.8860885
  H        1.7388000    -1.1758340    -0.8774310
  H       -3.3141610    -0.8622160     0.8846490
  H       -3.3163930    -0.8568630    -0.8772710
  H       -4.1940350     0.4043620     0.0085730
  H        3.5120120     0.6248690    -0.9008780
  H        3.5189980     0.6365110     0.8698160
  H        4.0585630    -0.8014520    -0.0081370
units angstrom
no_reorient  #important for SAPT in psi4, default
symmetry c1  #important for SAPT in psi4, default
}

set PROPERTIES_ORIGIN ["COM"]
properties('MP2/aug-cc-pvtz', properties = ['dipole'])
--------------------------------------------------------------------------

    Molecular point group: c1
  Charge       = 0
  Multiplicity = 1
  Basis Set: AUG-CC-PVTZ
    Blend: AUG-CC-PVTZ
  Basis Set: (AUG-CC-PVTZ AUX)
    Blend: AUG-CC-PVTZ-JKFIT

    Orbital Energies [Eh]
    ---------------------

    Doubly Occupied:

       1A    -91.965195     2A    -20.552862     3A    -11.358940
       4A    -11.261586     5A    -11.247523     6A    -11.230484
       7A    -11.220959     8A     -8.967209     9A     -6.648417
      10A     -6.647300    11A     -6.646639    12A     -1.389741
      13A     -1.088226    14A     -1.061084    15A     -0.978194
      16A     -0.890940    17A     -0.822155    18A     -0.727067
      19A     -0.658624    20A     -0.642562    21A     -0.632532
      22A     -0.628804    23A     -0.561698    24A     -0.551630
      25A     -0.541012    26A     -0.523406    27A     -0.512430
      28A     -0.511758    29A     -0.493501    30A     -0.459202
      31A     -0.406452    32A     -0.367041

  @DF-RHF Final Energy:  -667.68083189406946

   => Energetics <=

    Nuclear Repulsion Energy =            369.8555340486896625
    One-Electron Energy =               -1650.6823858411926267
    Two-Electron Energy =                 613.1460198984335648
    Total Energy =                       -667.6808318940694562
  Basis Set: (AUG-CC-PVTZ AUX)
    Blend: AUG-CC-PVTZ-RI
    Molecular point group: c1

    Geometry (in Angstrom), charge = 0, multiplicity = 1:

       Center              X                  Y                   Z               Mass
    ------------   -----------------  -----------------  -----------------  -----------------
         S            0.711953130052     0.802161808132     0.004100652721    31.972071174400
         O           -0.759530069948    -1.384484891868     0.004653952721    15.994914619570
         C           -2.049227069948     0.660526108132     0.003115952721    12.000000000000
         C            1.924100930052    -0.549615891868    -0.005280047279    12.000000000000
         C           -0.777163069948    -0.161426891868     0.000371952721    12.000000000000
         C           -3.293016069948    -0.214664891868     0.001978952721    12.000000000000
         C            3.335848930052     0.018536108132    -0.014470047279    12.000000000000
         H           -2.026225069948     1.317256108132     0.880649952721     1.007825032230
         H           -2.028181069948     1.322528108132    -0.870461047279     1.007825032230
         H            1.740359630052    -1.157363591868     0.882403452721     1.007825032230
         H            1.740524930052    -1.174390891868    -0.881116047279     1.007825032230
         H           -3.312436069948    -0.860772891868     0.880963952721     1.007825032230
         H           -3.314668069948    -0.855419891868    -0.880956047279     1.007825032230
         H           -4.192310069948     0.405805108132     0.004887952721     1.007825032230
         H            3.513736930052     0.626312108132    -0.904563047279     1.007825032230
         H            3.520722930052     0.637954108132     0.866130952721     1.007825032230
         H            4.060287930052    -0.800008891868    -0.011822047279     1.007825032230

  Basis Set: AUG-CC-PVTZ
    Blend: AUG-CC-PVTZ
  Basis Set: (AUG-CC-PVTZ AUX)
    Blend: AUG-CC-PVTZ-JKFIT
	 Reference Energy          =    -667.6808318940694562 [Eh]
	 Singles Energy            =      -0.0000000000000000 [Eh]
	 Same-Spin Energy          =      -0.3336383224174231 [Eh]
	 Opposite-Spin Energy      =      -1.1075360521003161 [Eh]
	 Correlation Energy        =      -1.4411743745177392 [Eh]
	 Total Energy              =    -669.1220062685871426 [Eh]

	 ================> DF-SCS-MP2 Energies <==================
	-----------------------------------------------------------
	 SCS Same-Spin Scale       =       0.3333333333333333 [-]
	 SCS Opposite-Spin Scale   =       1.2000000000000000 [-]
	 SCS Same-Spin Energy      =      -0.1112127741391410 [Eh]
	 SCS Opposite-Spin Energy  =      -1.3290432625203794 [Eh]
	 SCS Correlation Energy    =      -1.4402560366595205 [Eh]
	 SCS Total Energy          =    -669.1210879307290043 [Eh]
	-----------------------------------------------------------

  Dipole Moment: [D]
     X:     0.3880      Y:     1.0746      Z:    -0.0066     Total:     1.1425

*** Psi4 exiting successfully. Buy a developer a beer!
