                               Psi4 1.3.2 release

  ==> Input File <==

--------------------------------------------------------------------------
#psi4
#
memory 32 gb

molecule  {
0 1
  S        0.6636021     0.8831567    -0.0057911
  O       -0.8252889    -1.3851737     0.0086081
  C       -2.0509520     0.6590830     0.0068010
  C        1.9223760    -0.5510590    -0.0015950
  C       -0.7788880    -0.1628700     0.0040570
  C       -3.2947410    -0.2161080     0.0056640
  C        3.3341240     0.0170930    -0.0107850
  H       -2.0279500     1.3158130     0.8843350
  H       -2.0299060     1.3210850    -0.8667760
  H        1.7458030    -1.1645560     0.8835850
  H        1.7388000    -1.1758340    -0.8774310
  H       -3.3141610    -0.8622160     0.8846490
  H       -3.3163930    -0.8568630    -0.8772710
  H       -4.1940350     0.4043620     0.0085730
  H        3.5120120     0.6248690    -0.9008780
  H        3.5189980     0.6365110     0.8698160
  H        4.0585630    -0.8014520    -0.0081370
units angstrom
no_reorient  #important for SAPT in psi4, default
symmetry c1  #important for SAPT in psi4, default
}

set PROPERTIES_ORIGIN ["COM"]
properties('MP2/aug-cc-pvtz', properties = ['dipole'])
--------------------------------------------------------------------------

    Molecular point group: c1
  Charge       = 0
  Multiplicity = 1
  Basis Set: AUG-CC-PVTZ
    Blend: AUG-CC-PVTZ
  Basis Set: (AUG-CC-PVTZ AUX)
    Blend: AUG-CC-PVTZ-JKFIT

    Orbital Energies [Eh]
    ---------------------

    Doubly Occupied:

       1A    -91.972103     2A    -20.554194     3A    -11.358904
       4A    -11.271559     5A    -11.241905     6A    -11.231428
       7A    -11.217174     8A     -8.972467     9A     -6.653588
      10A     -6.652320    11A     -6.651776    12A     -1.389106
      13A     -1.080132    14A     -1.055282    15A     -0.979382
      16A     -0.884913    17A     -0.823892    18A     -0.726322
      19A     -0.652687    20A     -0.639802    21A     -0.630532
      22A     -0.627470    23A     -0.565107    24A     -0.547829
      25A     -0.538255    26A     -0.521237    27A     -0.511450
      28A     -0.511272    29A     -0.491924    30A     -0.450489
      31A     -0.407047    32A     -0.373093

  @DF-RHF Final Energy:  -667.67455715604865

   => Energetics <=

    Nuclear Repulsion Energy =            367.3277950779853995
    One-Electron Energy =               -1645.6354222181685145
    Two-Electron Energy =                 610.6330699841344085
    Total Energy =                       -667.6745571560486496
  Basis Set: (AUG-CC-PVTZ AUX)
    Blend: AUG-CC-PVTZ-RI
    Molecular point group: c1

    Geometry (in Angstrom), charge = 0, multiplicity = 1:

       Center              X                  Y                   Z               Mass
    ------------   -----------------  -----------------  -----------------  -----------------
         S            0.686570795928     0.862218690807    -0.005814014959    31.972071174400
         O           -0.802320204072    -1.406111709193     0.008585185041    15.994914619570
         C           -2.027983304072     0.638144990807     0.006778085041    12.000000000000
         C            1.945344695928    -0.571997009193    -0.001617914959    12.000000000000
         C           -0.755919304072    -0.183808009193     0.004034085041    12.000000000000
         C           -3.271772304072    -0.237046009193     0.005641085041    12.000000000000
         C            3.357092695928    -0.003845009193    -0.010807914959    12.000000000000
         H           -2.004981304072     1.294874990807     0.884312085041     1.007825032230
         H           -2.006937304072     1.300146990807    -0.866798914959     1.007825032230
         H            1.768771695928    -1.185494009193     0.883562085041     1.007825032230
         H            1.761768695928    -1.196772009193    -0.877453914959     1.007825032230
         H           -3.291192304072    -0.883154009193     0.884626085041     1.007825032230
         H           -3.293424304072    -0.877801009193    -0.877293914959     1.007825032230
         H           -4.171066304072     0.383423990807     0.008550085041     1.007825032230
         H            3.534980695928     0.603930990807    -0.900900914959     1.007825032230
         H            3.541966695928     0.615572990807     0.869793085041     1.007825032230
         H            4.081531695928    -0.822390009193    -0.008159914959     1.007825032230

  Basis Set: AUG-CC-PVTZ
    Blend: AUG-CC-PVTZ
  Basis Set: (AUG-CC-PVTZ AUX)
    Blend: AUG-CC-PVTZ-JKFIT
	 Reference Energy          =    -667.6745571560486496 [Eh]
	 Singles Energy            =      -0.0000000000000000 [Eh]
	 Same-Spin Energy          =      -0.3333820852219326 [Eh]
	 Opposite-Spin Energy      =      -1.1086602239565604 [Eh]
	 Correlation Energy        =      -1.4420423091784929 [Eh]
	 Total Energy              =    -669.1165994652271820 [Eh]

	 ================> DF-SCS-MP2 Energies <==================
	-----------------------------------------------------------
	 SCS Same-Spin Scale       =       0.3333333333333333 [-]
	 SCS Opposite-Spin Scale   =       1.2000000000000000 [-]
	 SCS Same-Spin Energy      =      -0.1111273617406442 [Eh]
	 SCS Opposite-Spin Energy  =      -1.3303922687478724 [Eh]
	 SCS Correlation Energy    =      -1.4415196304885165 [Eh]
	 SCS Total Energy          =    -669.1160767865371781 [Eh]
	-----------------------------------------------------------

  Dipole Moment: [D]
     X:     0.6443      Y:     1.0627      Z:    -0.0019     Total:     1.2428

*** Psi4 exiting successfully. Buy a developer a beer!
