                               Psi4 1.3.2 release

  ==> Input File <==

--------------------------------------------------------------------------
#psi4
#
memory 32 gb

molecule  {
0 1
  S        0.7163710     0.8062280    -0.0057410
  O       -0.7612550    -1.3859280     0.0083390
  C       -2.0509520     0.6590830     0.0068010
  C        1.9223760    -0.5510590    -0.0015950
  C       -0.6949727    -0.1084833     0.0035071
  C       -3.2947410    -0.2161080     0.0056640
  C        3.3341240     0.0170930    -0.0107850
  H       -2.0279500     1.3158130     0.8843350
  H       -2.0299060     1.3210850    -0.8667760
  H        1.7458030    -1.1645560     0.8835850
  H        1.7388000    -1.1758340    -0.8774310
  H       -3.3141610    -0.8622160     0.8846490
  H       -3.3163930    -0.8568630    -0.8772710
  H       -4.1940350     0.4043620     0.0085730
  H        3.5120120     0.6248690    -0.9008780
  H        3.5189980     0.6365110     0.8698160
  H        4.0585630    -0.8014520    -0.0081370
units angstrom
no_reorient  #important for SAPT in psi4, default
symmetry c1  #important for SAPT in psi4, default
}

set PROPERTIES_ORIGIN ["COM"]
properties('MP2/aug-cc-pvtz', properties = ['dipole'])
--------------------------------------------------------------------------

    Molecular point group: c1
  Charge       = 0
  Multiplicity = 1
  Basis Set: AUG-CC-PVTZ
    Blend: AUG-CC-PVTZ
  Basis Set: (AUG-CC-PVTZ AUX)
    Blend: AUG-CC-PVTZ-JKFIT

    Orbital Energies [Eh]
    ---------------------

    Doubly Occupied:

       1A    -91.977743     2A    -20.539670     3A    -11.357559
       4A    -11.267457     5A    -11.246397     6A    -11.234923
       7A    -11.217205     8A     -8.981270     9A     -6.662676
      10A     -6.661217    11A     -6.660666    12A     -1.346779
      13A     -1.101759    14A     -1.051860    15A     -0.995328
      16A     -0.887287    17A     -0.829881    18A     -0.720184
      19A     -0.651600    20A     -0.642283    21A     -0.625764
      22A     -0.617340    23A     -0.561328    24A     -0.552395
      25A     -0.535733    26A     -0.517117    27A     -0.510499
      28A     -0.509292    29A     -0.480953    30A     -0.463342
      31A     -0.410724    32A     -0.376005

  @DF-RHF Final Energy:  -667.66522644712859

   => Energetics <=

    Nuclear Repulsion Energy =            370.0346366923803885
    One-Electron Energy =               -1651.0112483047109890
    Two-Electron Energy =                 613.3113851652019548
    Total Energy =                       -667.6652264471285889
  Basis Set: (AUG-CC-PVTZ AUX)
    Blend: AUG-CC-PVTZ-RI
    Molecular point group: c1

    Geometry (in Angstrom), charge = 0, multiplicity = 1:

       Center              X                  Y                   Z               Mass
    ------------   -----------------  -----------------  -----------------  -----------------
         S            0.707840488403     0.800699290629    -0.005685121176    31.972071174400
         O           -0.769785511597    -1.391456709371     0.008394878824    15.994914619570
         C           -2.059482511597     0.653554290629     0.006856878824    12.000000000000
         C            1.913845488403    -0.556587709371    -0.001539121176    12.000000000000
         C           -0.703503211597    -0.114012009371     0.003562978824    12.000000000000
         C           -3.303271511597    -0.221636709371     0.005719878824    12.000000000000
         C            3.325593488403     0.011564290629    -0.010729121176    12.000000000000
         H           -2.036480511597     1.310284290629     0.884390878824     1.007825032230
         H           -2.038436511597     1.315556290629    -0.866720121176     1.007825032230
         H            1.737272488403    -1.170084709371     0.883640878824     1.007825032230
         H            1.730269488403    -1.181362709371    -0.877375121176     1.007825032230
         H           -3.322691511597    -0.867744709371     0.884704878824     1.007825032230
         H           -3.324923511597    -0.862391709371    -0.877215121176     1.007825032230
         H           -4.202565511597     0.398833290629     0.008628878824     1.007825032230
         H            3.503481488403     0.619340290629    -0.900822121176     1.007825032230
         H            3.510467488403     0.630982290629     0.869871878824     1.007825032230
         H            4.050032488403    -0.806980709371    -0.008081121176     1.007825032230

  Basis Set: AUG-CC-PVTZ
    Blend: AUG-CC-PVTZ
  Basis Set: (AUG-CC-PVTZ AUX)
    Blend: AUG-CC-PVTZ-JKFIT
	 Reference Energy          =    -667.6652264471285889 [Eh]
	 Singles Energy            =      -0.0000000000000000 [Eh]
	 Same-Spin Energy          =      -0.3354924724878830 [Eh]
	 Opposite-Spin Energy      =      -1.1109467455333963 [Eh]
	 Correlation Energy        =      -1.4464392180212793 [Eh]
	 Total Energy              =    -669.1116656651498715 [Eh]

	 ================> DF-SCS-MP2 Energies <==================
	-----------------------------------------------------------
	 SCS Same-Spin Scale       =       0.3333333333333333 [-]
	 SCS Opposite-Spin Scale   =       1.2000000000000000 [-]
	 SCS Same-Spin Energy      =      -0.1118308241626277 [Eh]
	 SCS Opposite-Spin Energy  =      -1.3331360946400757 [Eh]
	 SCS Correlation Energy    =      -1.4449669188027032 [Eh]
	 SCS Total Energy          =    -669.1101933659313090 [Eh]
	-----------------------------------------------------------

  Dipole Moment: [D]
     X:     1.1457      Y:     1.4341      Z:    -0.0055     Total:     1.8356

*** Psi4 exiting successfully. Buy a developer a beer!
