                               Psi4 1.4a3.dev225

  ==> Input File <==

--------------------------------------------------------------------------
#psi4
#
memory 32 gb

molecule  {
0 1
  S       -0.7336830    -0.7988290    -0.0000010
  O        0.7842810     1.3701820    -0.0000010
  C        2.0392260    -0.6993310     0.0000000
  C       -1.9046949     0.5654787    -0.0000020
  C        0.7809180     0.1463140    -0.0000010
  C        3.3000750     0.1543340     0.0000020
  C       -3.3406260     0.0364320     0.0000030
  H        2.0053990    -1.3579180     0.8761960
  H        2.0054010    -1.3579160    -0.8761980
  H       -1.7269280     1.1964810     0.8811220
  H       -1.7269330     1.1964770    -0.8811310
  H        3.3326310     0.7974220     0.8814170
  H        3.3326220     0.7974380    -0.8814010
  H        4.1880090    -0.4829760    -0.0000080
  H       -3.5331250    -0.5739300    -0.8857830
  H       -3.5331200    -0.5739250     0.8857940
  H       -4.0504940     0.8682350     0.0000030
units angstrom
no_reorient  #important for SAPT in psi4, default
symmetry c1  #important for SAPT in psi4, default
}

set PROPERTIES_ORIGIN ["COM"]
properties('MP2/aug-cc-pvtz', properties = ['dipole'])
--------------------------------------------------------------------------

    Molecular point group: c1
  Charge       = 0
  Multiplicity = 1
  Basis Set: AUG-CC-PVTZ
    Blend: AUG-CC-PVTZ
  Basis Set: (AUG-CC-PVTZ AUX)
    Blend: AUG-CC-PVTZ-JKFIT

    Orbital Energies [Eh]
    ---------------------

    Doubly Occupied:

       1A    -91.966256     2A    -20.554591     3A    -11.360778
       4A    -11.261256     5A    -11.248677     6A    -11.230459
       7A    -11.221817     8A     -8.968184     9A     -6.649394
      10A     -6.648290    11A     -6.647606    12A     -1.390168
      13A     -1.088168    14A     -1.060742    15A     -0.976163
      16A     -0.891476    17A     -0.820096    18A     -0.728006
      19A     -0.659169    20A     -0.641750    21A     -0.633030
      22A     -0.626496    23A     -0.561327    24A     -0.550281
      25A     -0.540913    26A     -0.522598    27A     -0.510518
      28A     -0.510428    29A     -0.493679    30A     -0.463998
      31A     -0.406454    32A     -0.366775

  @DF-RHF Final Energy:  -667.67996209397575

   => Energetics <=

    Nuclear Repulsion Energy =            369.4669392861264328
    One-Electron Energy =               -1649.8947160808172612
    Two-Electron Energy =                 612.7478147007150255
    Total Energy =                       -667.6799620939757460
  Basis Set: (AUG-CC-PVTZ AUX)
    Blend: AUG-CC-PVTZ-RI
    Molecular point group: c1

    Geometry (in Angstrom), charge = 0, multiplicity = 1:

       Center              X                  Y                   Z               Mass
    ------------   -----------------  -----------------  -----------------  -----------------
         S           -0.732680656178    -0.793134850998    -0.000000890882    31.972071174400
         O            0.785283343822     1.375876149002    -0.000000890882    15.994914619570
         C            2.040228343822    -0.693636850998     0.000000109118    12.000000000000
         C           -1.903692556178     0.571172849002    -0.000001890882    12.000000000000
         C            0.781920343822     0.152008149002    -0.000000890882    12.000000000000
         C            3.301077343822     0.160028149002     0.000002109118    12.000000000000
         C           -3.339623656178     0.042126149002     0.000003109118    12.000000000000
         H            2.006401343822    -1.352223850998     0.876196109118     1.007825032230
         H            2.006403343822    -1.352221850998    -0.876197890882     1.007825032230
         H           -1.725925656178     1.202175149002     0.881122109118     1.007825032230
         H           -1.725930656178     1.202171149002    -0.881130890882     1.007825032230
         H            3.333633343822     0.803116149002     0.881417109118     1.007825032230
         H            3.333624343822     0.803132149002    -0.881400890882     1.007825032230
         H            4.189011343822    -0.477281850998    -0.000007890882     1.007825032230
         H           -3.532122656178    -0.568235850998    -0.885782890882     1.007825032230
         H           -3.532117656178    -0.568230850998     0.885794109118     1.007825032230
         H           -4.049491656178     0.873929149002     0.000003109118     1.007825032230

  Basis Set: AUG-CC-PVTZ
    Blend: AUG-CC-PVTZ
  Basis Set: (AUG-CC-PVTZ AUX)
    Blend: AUG-CC-PVTZ-JKFIT
	 Reference Energy          =    -667.6799620939757460 [Eh]
	 Singles Energy            =      -0.0000000000000000 [Eh]
	 Same-Spin Energy          =      -0.3336685893494041 [Eh]
	 Opposite-Spin Energy      =      -1.1078337426589497 [Eh]
	 Correlation Energy        =      -1.4415023320083540 [Eh]
	 Total Energy              =    -669.1214644259840725 [Eh]

	 ================> DF-SCS-MP2 Energies <==================
	-----------------------------------------------------------
	 SCS Same-Spin Scale       =       0.3333333333333333 [-]
	 SCS Opposite-Spin Scale   =       1.2000000000000000 [-]
	 SCS Same-Spin Energy      =      -0.1112228631164680 [Eh]
	 SCS Opposite-Spin Energy  =      -1.3294004911907396 [Eh]
	 SCS Correlation Energy    =      -1.4406233543072076 [Eh]
	 SCS Total Energy          =    -669.1205854482830091 [Eh]
	-----------------------------------------------------------

  Dipole Moment: [D]
     X:    -0.3253      Y:    -1.0666      Z:     0.0000     Total:     1.1152

*** Psi4 exiting successfully. Buy a developer a beer!
