                               Psi4 1.3.2 release

  ==> Input File <==

--------------------------------------------------------------------------
#psi4
#
memory 32 gb

molecule  {
0 1
  S        0.7330567     0.7799842    -0.0057245
  O       -0.7612550    -1.3859280     0.0083390
  C       -2.0651029     0.6367574     0.0069384
  C        1.9223760    -0.5510590    -0.0015950
  C       -0.7788880    -0.1628700     0.0040570
  C       -3.2947410    -0.2161080     0.0056640
  C        3.3341240     0.0170930    -0.0107850
  H       -2.0279500     1.3158130     0.8843350
  H       -2.0299060     1.3210850    -0.8667760
  H        1.7458030    -1.1645560     0.8835850
  H        1.7388000    -1.1758340    -0.8774310
  H       -3.3141610    -0.8622160     0.8846490
  H       -3.3163930    -0.8568630    -0.8772710
  H       -4.1940350     0.4043620     0.0085730
  H        3.5120120     0.6248690    -0.9008780
  H        3.5189980     0.6365110     0.8698160
  H        4.0585630    -0.8014520    -0.0081370
units angstrom
no_reorient  #important for SAPT in psi4, default
symmetry c1  #important for SAPT in psi4, default
}

set PROPERTIES_ORIGIN ["COM"]
properties('MP2/aug-cc-pvtz', properties = ['dipole'])
--------------------------------------------------------------------------

    Molecular point group: c1
  Charge       = 0
  Multiplicity = 1
  Basis Set: AUG-CC-PVTZ
    Blend: AUG-CC-PVTZ
  Basis Set: (AUG-CC-PVTZ AUX)
    Blend: AUG-CC-PVTZ-JKFIT

    Orbital Energies [Eh]
    ---------------------

    Doubly Occupied:

       1A    -91.964623     2A    -20.552474     3A    -11.359294
       4A    -11.259018     5A    -11.249749     6A    -11.230621
       7A    -11.220501     8A     -8.966921     9A     -6.648148
      10A     -6.647080    11A     -6.646362    12A     -1.390072
      13A     -1.091632    14A     -1.064876    15A     -0.977601
      16A     -0.892472    17A     -0.821047    18A     -0.726378
      19A     -0.661592    20A     -0.641963    21A     -0.632606
      22A     -0.628776    23A     -0.562678    24A     -0.555109
      25A     -0.541396    26A     -0.523078    27A     -0.514726
      28A     -0.511396    29A     -0.489067    30A     -0.463646
      31A     -0.405720    32A     -0.365499

  @DF-RHF Final Energy:  -667.67954719767818

   => Energetics <=

    Nuclear Repulsion Energy =            370.4077753565152307
    One-Electron Energy =               -1651.7624066016769575
    Two-Electron Energy =                 613.6750840474835513
    Total Energy =                       -667.6795471976781755
  Basis Set: (AUG-CC-PVTZ AUX)
    Blend: AUG-CC-PVTZ-RI
    Molecular point group: c1

    Geometry (in Angstrom), charge = 0, multiplicity = 1:

       Center              X                  Y                   Z               Mass
    ------------   -----------------  -----------------  -----------------  -----------------
         S            0.729975946760     0.789361778247    -0.005742958265    31.972071174400
         O           -0.764335753240    -1.376550421753     0.008320541735    15.994914619570
         C           -2.068183653240     0.646134978247     0.006919941735    12.000000000000
         C            1.919295246760    -0.541681421753    -0.001613458265    12.000000000000
         C           -0.781968753240    -0.153492421753     0.004038541735    12.000000000000
         C           -3.297821753240    -0.206730421753     0.005645541735    12.000000000000
         C            3.331043246760     0.026470578247    -0.010803458265    12.000000000000
         H           -2.031030753240     1.325190578247     0.884316541735     1.007825032230
         H           -2.032986753240     1.330462578247    -0.866794458265     1.007825032230
         H            1.742722246760    -1.155178421753     0.883566541735     1.007825032230
         H            1.735719246760    -1.166456421753    -0.877449458265     1.007825032230
         H           -3.317241753240    -0.852838421753     0.884630541735     1.007825032230
         H           -3.319473753240    -0.847485421753    -0.877289458265     1.007825032230
         H           -4.197115753240     0.413739578247     0.008554541735     1.007825032230
         H            3.508931246760     0.634246578247    -0.900896458265     1.007825032230
         H            3.515917246760     0.645888578247     0.869797541735     1.007825032230
         H            4.055482246760    -0.792074421753    -0.008155458265     1.007825032230

  Basis Set: AUG-CC-PVTZ
    Blend: AUG-CC-PVTZ
  Basis Set: (AUG-CC-PVTZ AUX)
    Blend: AUG-CC-PVTZ-JKFIT
	 Reference Energy          =    -667.6795471976781755 [Eh]
	 Singles Energy            =      -0.0000000000000000 [Eh]
	 Same-Spin Energy          =      -0.3338966975547055 [Eh]
	 Opposite-Spin Energy      =      -1.1075644983280153 [Eh]
	 Correlation Energy        =      -1.4414611958827208 [Eh]
	 Total Energy              =    -669.1210083935609418 [Eh]

	 ================> DF-SCS-MP2 Energies <==================
	-----------------------------------------------------------
	 SCS Same-Spin Scale       =       0.3333333333333333 [-]
	 SCS Opposite-Spin Scale   =       1.2000000000000000 [-]
	 SCS Same-Spin Energy      =      -0.1112988991849018 [Eh]
	 SCS Opposite-Spin Energy  =      -1.3290773979936183 [Eh]
	 SCS Correlation Energy    =      -1.4403762971785201 [Eh]
	 SCS Total Energy          =    -669.1199234948567209 [Eh]
	-----------------------------------------------------------

  Dipole Moment: [D]
     X:     0.3338      Y:     1.0583      Z:    -0.0008     Total:     1.1097

*** Psi4 exiting successfully. Buy a developer a beer!
