                               Psi4 1.3.2 release

  ==> Input File <==

--------------------------------------------------------------------------
#psi4
#
memory 32 gb

molecule  {
0 1
  S        0.6816385     0.8578221    -0.0057651
  O       -0.7612550    -1.3859280     0.0083390
  C       -2.0214921     0.7029764     0.0065237
  C        1.9223760    -0.5510590    -0.0015950
  C       -0.7788880    -0.1628700     0.0040570
  C       -3.2947410    -0.2161080     0.0056640
  C        3.3341240     0.0170930    -0.0107850
  H       -2.0279500     1.3158130     0.8843350
  H       -2.0299060     1.3210850    -0.8667760
  H        1.7458030    -1.1645560     0.8835850
  H        1.7388000    -1.1758340    -0.8774310
  H       -3.3141610    -0.8622160     0.8846490
  H       -3.3163930    -0.8568630    -0.8772710
  H       -4.1940350     0.4043620     0.0085730
  H        3.5120120     0.6248690    -0.9008780
  H        3.5189980     0.6365110     0.8698160
  H        4.0585630    -0.8014520    -0.0081370
units angstrom
no_reorient  #important for SAPT in psi4, default
symmetry c1  #important for SAPT in psi4, default
}

set PROPERTIES_ORIGIN ["COM"]
properties('MP2/aug-cc-pvtz', properties = ['dipole'])
--------------------------------------------------------------------------

    Molecular point group: c1
  Charge       = 0
  Multiplicity = 1
  Basis Set: AUG-CC-PVTZ
    Blend: AUG-CC-PVTZ
  Basis Set: (AUG-CC-PVTZ AUX)
    Blend: AUG-CC-PVTZ-JKFIT

    Orbital Energies [Eh]
    ---------------------

    Doubly Occupied:

       1A    -91.966750     2A    -20.556170     3A    -11.360959
       4A    -11.265982     5A    -11.244384     6A    -11.229338
       7A    -11.222261     8A     -8.967787     9A     -6.648924
      10A     -6.647706    11A     -6.647145    12A     -1.390327
      13A     -1.081466    14A     -1.054569    15A     -0.975338
      16A     -0.887826    17A     -0.823171    18A     -0.729968
      19A     -0.653031    20A     -0.645350    21A     -0.632521
      22A     -0.627930    23A     -0.562386    24A     -0.544028
      25A     -0.539826    26A     -0.523844    27A     -0.513337
      28A     -0.505620    29A     -0.500427    30A     -0.450438
      31A     -0.405966    32A     -0.369495

  @DF-RHF Final Energy:  -667.67543023190058

   => Energetics <=

    Nuclear Repulsion Energy =            368.0436113117734749
    One-Electron Energy =               -1647.0895475770184930
    Two-Electron Energy =                 611.3705060333444408
    Total Energy =                       -667.6754302319005774
  Basis Set: (AUG-CC-PVTZ AUX)
    Blend: AUG-CC-PVTZ-RI
    Molecular point group: c1

    Geometry (in Angstrom), charge = 0, multiplicity = 1:

       Center              X                  Y                   Z               Mass
    ------------   -----------------  -----------------  -----------------  -----------------
         S            0.688050859628     0.839386045212    -0.005730405200    31.972071174400
         O           -0.754842640372    -1.404364054788     0.008373694800    15.994914619570
         C           -2.015079740372     0.684540345212     0.006558394800    12.000000000000
         C            1.928788359628    -0.569495054788    -0.001560305200    12.000000000000
         C           -0.772475640372    -0.181306054788     0.004091694800    12.000000000000
         C           -3.288328640372    -0.234544054788     0.005698694800    12.000000000000
         C            3.340536359628    -0.001343054788    -0.010750305200    12.000000000000
         H           -2.021537640372     1.297376945212     0.884369694800     1.007825032230
         H           -2.023493640372     1.302648945212    -0.866741305200     1.007825032230
         H            1.752215359628    -1.182992054788     0.883619694800     1.007825032230
         H            1.745212359628    -1.194270054788    -0.877396305200     1.007825032230
         H           -3.307748640372    -0.880652054788     0.884683694800     1.007825032230
         H           -3.309980640372    -0.875299054788    -0.877236305200     1.007825032230
         H           -4.187622640372     0.385925945212     0.008607694800     1.007825032230
         H            3.518424359628     0.606432945212    -0.900843305200     1.007825032230
         H            3.525410359628     0.618074945212     0.869850694800     1.007825032230
         H            4.064975359628    -0.819888054788    -0.008102305200     1.007825032230

  Basis Set: AUG-CC-PVTZ
    Blend: AUG-CC-PVTZ
  Basis Set: (AUG-CC-PVTZ AUX)
    Blend: AUG-CC-PVTZ-JKFIT
	 Reference Energy          =    -667.6754302319005774 [Eh]
	 Singles Energy            =      -0.0000000000000000 [Eh]
	 Same-Spin Energy          =      -0.3333394582417948 [Eh]
	 Opposite-Spin Energy      =      -1.1083102808800303 [Eh]
	 Correlation Energy        =      -1.4416497391218250 [Eh]
	 Total Energy              =    -669.1170799710223491 [Eh]

	 ================> DF-SCS-MP2 Energies <==================
	-----------------------------------------------------------
	 SCS Same-Spin Scale       =       0.3333333333333333 [-]
	 SCS Opposite-Spin Scale   =       1.2000000000000000 [-]
	 SCS Same-Spin Energy      =      -0.1111131527472649 [Eh]
	 SCS Opposite-Spin Energy  =      -1.3299723370560363 [Eh]
	 SCS Correlation Energy    =      -1.4410854898033012 [Eh]
	 SCS Total Energy          =    -669.1165157217038768 [Eh]
	-----------------------------------------------------------

  Dipole Moment: [D]
     X:     0.3879      Y:     1.0584      Z:    -0.0010     Total:     1.1272

*** Psi4 exiting successfully. Buy a developer a beer!
