                               Psi4 1.4a3.dev225

  ==> Input File <==

--------------------------------------------------------------------------
#psi4
#
memory 32 gb

molecule  {
0 1
  S       -0.7336830    -0.7988290    -0.0000010
  O        0.7842810     1.3701820    -0.0000010
  C        2.0392260    -0.6993310     0.0000000
  C       -1.9177210     0.5806550    -0.0000020
  C        0.7809730     0.1663139    -0.0000010
  C        3.3000750     0.1543340     0.0000020
  C       -3.3406260     0.0364320     0.0000030
  H        2.0053990    -1.3579180     0.8761960
  H        2.0054010    -1.3579160    -0.8761980
  H       -1.7269280     1.1964810     0.8811220
  H       -1.7269330     1.1964770    -0.8811310
  H        3.3326310     0.7974220     0.8814170
  H        3.3326220     0.7974380    -0.8814010
  H        4.1880090    -0.4829760    -0.0000080
  H       -3.5331250    -0.5739300    -0.8857830
  H       -3.5331200    -0.5739250     0.8857940
  H       -4.0504940     0.8682350     0.0000030
units angstrom
no_reorient  #important for SAPT in psi4, default
symmetry c1  #important for SAPT in psi4, default
}

set PROPERTIES_ORIGIN ["COM"]
properties('MP2/aug-cc-pvtz', properties = ['dipole'])
--------------------------------------------------------------------------

    Molecular point group: c1
  Charge       = 0
  Multiplicity = 1
  Basis Set: AUG-CC-PVTZ
    Blend: AUG-CC-PVTZ
  Basis Set: (AUG-CC-PVTZ AUX)
    Blend: AUG-CC-PVTZ-JKFIT

    Orbital Energies [Eh]
    ---------------------

    Doubly Occupied:

       1A    -91.963366     2A    -20.557163     3A    -11.359430
       4A    -11.260868     5A    -11.248127     6A    -11.229627
       7A    -11.221501     8A     -8.965022     9A     -6.646190
      10A     -6.645092    11A     -6.644421    12A     -1.404733
      13A     -1.084834    14A     -1.059081    15A     -0.974000
      16A     -0.888809    17A     -0.820136    18A     -0.729047
      19A     -0.660312    20A     -0.642053    21A     -0.636414
      22A     -0.627679    23A     -0.561530    24A     -0.550895
      25A     -0.545205    26A     -0.524473    27A     -0.513228
      28A     -0.511346    29A     -0.497013    30A     -0.458293
      31A     -0.402711    32A     -0.365853

  @DF-RHF Final Energy:  -667.68202936673674

   => Energetics <=

    Nuclear Repulsion Energy =            369.2330841370333587
    One-Electron Energy =               -1649.4333202905629605
    Two-Electron Energy =                 612.5182067867929163
    Total Energy =                       -667.6820293667367423
  Basis Set: (AUG-CC-PVTZ AUX)
    Blend: AUG-CC-PVTZ-RI
    Molecular point group: c1

    Geometry (in Angstrom), charge = 0, multiplicity = 1:

       Center              X                  Y                   Z               Mass
    ------------   -----------------  -----------------  -----------------  -----------------
         S           -0.731362066754    -0.796710720842    -0.000000890882    31.972071174400
         O            0.786601933246     1.372300279158    -0.000000890882    15.994914619570
         C            2.041546933246    -0.697212720842     0.000000109118    12.000000000000
         C           -1.915400066754     0.582773279158    -0.000001890882    12.000000000000
         C            0.783293933246     0.168432179158    -0.000000890882    12.000000000000
         C            3.302395933246     0.156452279158     0.000002109118    12.000000000000
         C           -3.338305066754     0.038550279158     0.000003109118    12.000000000000
         H            2.007719933246    -1.355799720842     0.876196109118     1.007825032230
         H            2.007721933246    -1.355797720842    -0.876197890882     1.007825032230
         H           -1.724607066754     1.198599279158     0.881122109118     1.007825032230
         H           -1.724612066754     1.198595279158    -0.881130890882     1.007825032230
         H            3.334951933246     0.799540279158     0.881417109118     1.007825032230
         H            3.334942933246     0.799556279158    -0.881400890882     1.007825032230
         H            4.190329933246    -0.480857720842    -0.000007890882     1.007825032230
         H           -3.530804066754    -0.571811720842    -0.885782890882     1.007825032230
         H           -3.530799066754    -0.571806720842     0.885794109118     1.007825032230
         H           -4.048173066754     0.870353279158     0.000003109118     1.007825032230

  Basis Set: AUG-CC-PVTZ
    Blend: AUG-CC-PVTZ
  Basis Set: (AUG-CC-PVTZ AUX)
    Blend: AUG-CC-PVTZ-JKFIT
	 Reference Energy          =    -667.6820293667367423 [Eh]
	 Singles Energy            =      -0.0000000000000000 [Eh]
	 Same-Spin Energy          =      -0.3330089470251960 [Eh]
	 Opposite-Spin Energy      =      -1.1066951161687877 [Eh]
	 Correlation Energy        =      -1.4397040631939837 [Eh]
	 Total Energy              =    -669.1217334299307140 [Eh]

	 ================> DF-SCS-MP2 Energies <==================
	-----------------------------------------------------------
	 SCS Same-Spin Scale       =       0.3333333333333333 [-]
	 SCS Opposite-Spin Scale   =       1.2000000000000000 [-]
	 SCS Same-Spin Energy      =      -0.1110029823417320 [Eh]
	 SCS Opposite-Spin Energy  =      -1.3280341394025452 [Eh]
	 SCS Correlation Energy    =      -1.4390371217442772 [Eh]
	 SCS Total Energy          =    -669.1210664884810058 [Eh]
	-----------------------------------------------------------

  Dipole Moment: [D]
     X:    -0.2814      Y:    -0.9518      Z:     0.0000     Total:     0.9925

*** Psi4 exiting successfully. Buy a developer a beer!
