                               Psi4 1.3.2 release

  ==> Input File <==

--------------------------------------------------------------------------
#psi4
#
memory 32 gb

molecule  {
0 1
  S        0.6697375     0.7633140    -0.0052802
  O       -0.7612550    -1.3859280     0.0083390
  C       -2.0509520     0.6590830     0.0068010
  C        1.9223760    -0.5510590    -0.0015950
  C       -0.7788880    -0.1628700     0.0040570
  C       -3.2947410    -0.2161080     0.0056640
  C        3.3530937    -0.0325222    -0.0105358
  H       -2.0279500     1.3158130     0.8843350
  H       -2.0299060     1.3210850    -0.8667760
  H        1.7458030    -1.1645560     0.8835850
  H        1.7388000    -1.1758340    -0.8774310
  H       -3.3141610    -0.8622160     0.8846490
  H       -3.3163930    -0.8568630    -0.8772710
  H       -4.1940350     0.4043620     0.0085730
  H        3.5120120     0.6248690    -0.9008780
  H        3.5189980     0.6365110     0.8698160
  H        4.0585630    -0.8014520    -0.0081370
units angstrom
no_reorient  #important for SAPT in psi4, default
symmetry c1  #important for SAPT in psi4, default
}

set PROPERTIES_ORIGIN ["COM"]
properties('MP2/aug-cc-pvtz', properties = ['dipole'])
--------------------------------------------------------------------------

    Molecular point group: c1
  Charge       = 0
  Multiplicity = 1
  Basis Set: AUG-CC-PVTZ
    Blend: AUG-CC-PVTZ
  Basis Set: (AUG-CC-PVTZ AUX)
    Blend: AUG-CC-PVTZ-JKFIT

    Orbital Energies [Eh]
    ---------------------

    Doubly Occupied:

       1A    -91.965739     2A    -20.547258     3A    -11.353791
       4A    -11.262495     5A    -11.246575     6A    -11.232468
       7A    -11.220272     8A     -8.968947     9A     -6.650253
      10A     -6.649100    11A     -6.648426    12A     -1.387570
      13A     -1.092724    14A     -1.060713    15A     -0.987564
      16A     -0.891678    17A     -0.825100    18A     -0.724482
      19A     -0.661451    20A     -0.642308    21A     -0.633541
      22A     -0.625623    23A     -0.574716    24A     -0.550777
      25A     -0.539824    26A     -0.521635    27A     -0.513805
      28A     -0.504771    29A     -0.491076    30A     -0.460482
      31A     -0.408259    32A     -0.368389

  @DF-RHF Final Energy:  -667.67642027048282

   => Energetics <=

    Nuclear Repulsion Energy =            371.3482138949703426
    One-Electron Energy =               -1653.6256454349504565
    Two-Electron Energy =                 614.6010112694973486
    Total Energy =                       -667.6764202704828222
  Basis Set: (AUG-CC-PVTZ AUX)
    Blend: AUG-CC-PVTZ-RI
    Molecular point group: c1

    Geometry (in Angstrom), charge = 0, multiplicity = 1:

       Center              X                  Y                   Z               Mass
    ------------   -----------------  -----------------  -----------------  -----------------
         S            0.680439588174     0.779980784057    -0.005430360244    31.972071174400
         O           -0.750552911826    -1.369261215943     0.008188839756    15.994914619570
         C           -2.040249911826     0.675749784057     0.006650839756    12.000000000000
         C            1.933078088174    -0.534392215943    -0.001745160244    12.000000000000
         C           -0.768185911826    -0.146203215943     0.003906839756    12.000000000000
         C           -3.284038911826    -0.199441215943     0.005513839756    12.000000000000
         C            3.363795788174    -0.015855415943    -0.010685960244    12.000000000000
         H           -2.017247911826     1.332479784057     0.884184839756     1.007825032230
         H           -2.019203911826     1.337751784057    -0.866926160244     1.007825032230
         H            1.756505088174    -1.147889215943     0.883434839756     1.007825032230
         H            1.749502088174    -1.159167215943    -0.877581160244     1.007825032230
         H           -3.303458911826    -0.845549215943     0.884498839756     1.007825032230
         H           -3.305690911826    -0.840196215943    -0.877421160244     1.007825032230
         H           -4.183332911826     0.421028784057     0.008422839756     1.007825032230
         H            3.522714088174     0.641535784057    -0.901028160244     1.007825032230
         H            3.529700088174     0.653177784057     0.869665839756     1.007825032230
         H            4.069265088174    -0.784785215943    -0.008287160244     1.007825032230

  Basis Set: AUG-CC-PVTZ
    Blend: AUG-CC-PVTZ
  Basis Set: (AUG-CC-PVTZ AUX)
    Blend: AUG-CC-PVTZ-JKFIT
	 Reference Energy          =    -667.6764202704828222 [Eh]
	 Singles Energy            =      -0.0000000000000000 [Eh]
	 Same-Spin Energy          =      -0.3337692257596008 [Eh]
	 Opposite-Spin Energy      =      -1.1071204545518456 [Eh]
	 Correlation Energy        =      -1.4408896803114464 [Eh]
	 Total Energy              =    -669.1173099507942652 [Eh]

	 ================> DF-SCS-MP2 Energies <==================
	-----------------------------------------------------------
	 SCS Same-Spin Scale       =       0.3333333333333333 [-]
	 SCS Opposite-Spin Scale   =       1.2000000000000000 [-]
	 SCS Same-Spin Energy      =      -0.1112564085865336 [Eh]
	 SCS Opposite-Spin Energy  =      -1.3285445454622147 [Eh]
	 SCS Correlation Energy    =      -1.4398009540487482 [Eh]
	 SCS Total Energy          =    -669.1162212245316141 [Eh]
	-----------------------------------------------------------

  Dipole Moment: [D]
     X:     0.5706      Y:     1.1487      Z:    -0.0021     Total:     1.2826

*** Psi4 exiting successfully. Buy a developer a beer!
