                               Psi4 1.3.2 release

  ==> Input File <==

--------------------------------------------------------------------------
#psi4
#
memory 32 gb

molecule  {
0 1
  S        0.7163710     0.8062280    -0.0057410
  O       -0.7612550    -1.3859280     0.0083390
  C       -2.0509520     0.6590830     0.0068010
  C        1.9223760    -0.5510590    -0.0015950
  C       -0.7803296    -0.0628810     0.0037069
  C       -3.2947410    -0.2161080     0.0056640
  C        3.3341240     0.0170930    -0.0107850
  H       -2.0279500     1.3158130     0.8843350
  H       -2.0299060     1.3210850    -0.8667760
  H        1.7458030    -1.1645560     0.8835850
  H        1.7388000    -1.1758340    -0.8774310
  H       -3.3141610    -0.8622160     0.8846490
  H       -3.3163930    -0.8568630    -0.8772710
  H       -4.1940350     0.4043620     0.0085730
  H        3.5120120     0.6248690    -0.9008780
  H        3.5189980     0.6365110     0.8698160
  H        4.0585630    -0.8014520    -0.0081370
units angstrom
no_reorient  #important for SAPT in psi4, default
symmetry c1  #important for SAPT in psi4, default
}

set PROPERTIES_ORIGIN ["COM"]
properties('MP2/aug-cc-pvtz', properties = ['dipole'])
--------------------------------------------------------------------------

    Molecular point group: c1
  Charge       = 0
  Multiplicity = 1
  Basis Set: AUG-CC-PVTZ
    Blend: AUG-CC-PVTZ
  Basis Set: (AUG-CC-PVTZ AUX)
    Blend: AUG-CC-PVTZ-JKFIT

    Orbital Energies [Eh]
    ---------------------

    Doubly Occupied:

       1A    -91.975730     2A    -20.538414     3A    -11.364166
       4A    -11.265570     5A    -11.248780     6A    -11.233662
       7A    -11.221718     8A     -8.977887     9A     -6.659184
      10A     -6.657999    11A     -6.657424    12A     -1.323913
      13A     -1.096368    14A     -1.068909    15A     -0.988056
      16A     -0.900373    17A     -0.829291    18A     -0.723128
      19A     -0.653749    20A     -0.644390    21A     -0.631806
      22A     -0.609937    23A     -0.564389    24A     -0.550331
      25A     -0.531260    26A     -0.518900    27A     -0.513180
      28A     -0.505552    29A     -0.470628    30A     -0.463825
      31A     -0.414469    32A     -0.370190

  @DF-RHF Final Energy:  -667.65749815879974

   => Energetics <=

    Nuclear Repulsion Energy =            369.3202950601021257
    One-Electron Energy =               -1649.6092325579127191
    Two-Electron Energy =                 612.6314393390108535
    Total Energy =                       -667.6574981587997399
  Basis Set: (AUG-CC-PVTZ AUX)
    Blend: AUG-CC-PVTZ-RI
    Molecular point group: c1

    Geometry (in Angstrom), charge = 0, multiplicity = 1:

       Center              X                  Y                   Z               Mass
    ------------   -----------------  -----------------  -----------------  -----------------
         S            0.716517524713     0.796063545740    -0.005705432034    31.972071174400
         O           -0.761108475287    -1.396092454260     0.008374567966    15.994914619570
         C           -2.050805475287     0.648918545740     0.006836567966    12.000000000000
         C            1.922522524713    -0.561223454260    -0.001559432034    12.000000000000
         C           -0.780183075287    -0.073045454260     0.003742467966    12.000000000000
         C           -3.294594475287    -0.226272454260     0.005699567966    12.000000000000
         C            3.334270524713     0.006928545740    -0.010749432034    12.000000000000
         H           -2.027803475287     1.305648545740     0.884370567966     1.007825032230
         H           -2.029759475287     1.310920545740    -0.866740432034     1.007825032230
         H            1.745949524713    -1.174720454260     0.883620567966     1.007825032230
         H            1.738946524713    -1.185998454260    -0.877395432034     1.007825032230
         H           -3.314014475287    -0.872380454260     0.884684567966     1.007825032230
         H           -3.316246475287    -0.867027454260    -0.877235432034     1.007825032230
         H           -4.193888475287     0.394197545740     0.008608567966     1.007825032230
         H            3.512158524713     0.614704545740    -0.900842432034     1.007825032230
         H            3.519144524713     0.626346545740     0.869851567966     1.007825032230
         H            4.058709524713    -0.811616454260    -0.008101432034     1.007825032230

  Basis Set: AUG-CC-PVTZ
    Blend: AUG-CC-PVTZ
  Basis Set: (AUG-CC-PVTZ AUX)
    Blend: AUG-CC-PVTZ-JKFIT
	 Reference Energy          =    -667.6574981587997399 [Eh]
	 Singles Energy            =      -0.0000000000000000 [Eh]
	 Same-Spin Energy          =      -0.3366755048455955 [Eh]
	 Opposite-Spin Energy      =      -1.1132469868552941 [Eh]
	 Correlation Energy        =      -1.4499224917008897 [Eh]
	 Total Energy              =    -669.1074206505006714 [Eh]

	 ================> DF-SCS-MP2 Energies <==================
	-----------------------------------------------------------
	 SCS Same-Spin Scale       =       0.3333333333333333 [-]
	 SCS Opposite-Spin Scale   =       1.2000000000000000 [-]
	 SCS Same-Spin Energy      =      -0.1122251682818652 [Eh]
	 SCS Opposite-Spin Energy  =      -1.3358963842263529 [Eh]
	 SCS Correlation Energy    =      -1.4481215525082181 [Eh]
	 SCS Total Energy          =    -669.1056197113080088 [Eh]
	-----------------------------------------------------------

  Dipole Moment: [D]
     X:     0.6883      Y:     1.4847      Z:    -0.0035     Total:     1.6365

*** Psi4 exiting successfully. Buy a developer a beer!
