                               Psi4 1.3.2 release

  ==> Input File <==

--------------------------------------------------------------------------
#psi4
#
memory 32 gb

molecule  {
0 1
  S        0.7041778     0.7951065     0.0213116
  O       -0.7612550    -1.3859280     0.0083390
  C       -2.0509520     0.6590830     0.0068010
  C        1.9223760    -0.5510590    -0.0015950
  C       -0.7788880    -0.1628700     0.0040570
  C       -3.2947410    -0.2161080     0.0056640
  C        3.3341240     0.0170930    -0.0107850
  H       -2.0279500     1.3158130     0.8843350
  H       -2.0299060     1.3210850    -0.8667760
  H        1.7314804    -1.1530111     0.8885245
  H        1.7388000    -1.1758340    -0.8774310
  H       -3.3141610    -0.8622160     0.8846490
  H       -3.3163930    -0.8568630    -0.8772710
  H       -4.1940350     0.4043620     0.0085730
  H        3.5120120     0.6248690    -0.9008780
  H        3.5189980     0.6365110     0.8698160
  H        4.0585630    -0.8014520    -0.0081370
units angstrom
no_reorient  #important for SAPT in psi4, default
symmetry c1  #important for SAPT in psi4, default
}

set PROPERTIES_ORIGIN ["COM"]
properties('MP2/aug-cc-pvtz', properties = ['dipole'])
--------------------------------------------------------------------------

    Molecular point group: c1
  Charge       = 0
  Multiplicity = 1
  Basis Set: AUG-CC-PVTZ
    Blend: AUG-CC-PVTZ
  Basis Set: (AUG-CC-PVTZ AUX)
    Blend: AUG-CC-PVTZ-JKFIT

    Orbital Energies [Eh]
    ---------------------

    Doubly Occupied:

       1A    -91.964908     2A    -20.551985     3A    -11.358068
       4A    -11.261864     5A    -11.247267     6A    -11.230881
       7A    -11.220786     8A     -8.967122     9A     -6.648342
      10A     -6.647220    11A     -6.646558    12A     -1.389356
      13A     -1.088916    14A     -1.060994    15A     -0.979364
      16A     -0.891004    17A     -0.822585    18A     -0.726550
      19A     -0.658715    20A     -0.642758    21A     -0.632481
      22A     -0.628936    23A     -0.561748    24A     -0.551902
      25A     -0.541194    26A     -0.523386    27A     -0.512876
      28A     -0.511881    29A     -0.493339    30A     -0.458570
      31A     -0.406660    32A     -0.367038

  @DF-RHF Final Energy:  -667.68079976132356

   => Energetics <=

    Nuclear Repulsion Energy =            370.1262949041775414
    One-Electron Energy =               -1651.2236787281490251
    Two-Electron Energy =                 613.4165840626479849
    Total Energy =                       -667.6807997613235557
  Basis Set: (AUG-CC-PVTZ AUX)
    Blend: AUG-CC-PVTZ-RI
    Molecular point group: c1

    Geometry (in Angstrom), charge = 0, multiplicity = 1:

       Center              X                  Y                   Z               Mass
    ------------   -----------------  -----------------  -----------------  -----------------
         S            0.707602536912     0.798020169018     0.013942320188    31.972071174400
         O           -0.757830263088    -1.383014330982     0.000969720188    15.994914619570
         C           -2.047527263088     0.661996669018    -0.000568279812    12.000000000000
         C            1.925800736912    -0.548145330982    -0.008964279812    12.000000000000
         C           -0.775463263088    -0.159956330982    -0.003312279812    12.000000000000
         C           -3.291316263088    -0.213194330982    -0.001705279812    12.000000000000
         C            3.337548736912     0.020006669018    -0.018154279812    12.000000000000
         H           -2.024525263088     1.318726669018     0.876965720188     1.007825032230
         H           -2.026481263088     1.323998669018    -0.874145279812     1.007825032230
         H            1.734905136912    -1.150097430982     0.881155220188     1.007825032230
         H            1.742224736912    -1.172920330982    -0.884800279812     1.007825032230
         H           -3.310736263088    -0.859302330982     0.877279720188     1.007825032230
         H           -3.312968263088    -0.853949330982    -0.884640279812     1.007825032230
         H           -4.190610263088     0.407275669018     0.001203720188     1.007825032230
         H            3.515436736912     0.627782669018    -0.908247279812     1.007825032230
         H            3.522422736912     0.639424669018     0.862446720188     1.007825032230
         H            4.061987736912    -0.798538330982    -0.015506279812     1.007825032230

  Basis Set: AUG-CC-PVTZ
    Blend: AUG-CC-PVTZ
  Basis Set: (AUG-CC-PVTZ AUX)
    Blend: AUG-CC-PVTZ-JKFIT
	 Reference Energy          =    -667.6807997613235557 [Eh]
	 Singles Energy            =      -0.0000000000000000 [Eh]
	 Same-Spin Energy          =      -0.3336678707853581 [Eh]
	 Opposite-Spin Energy      =      -1.1074515935738880 [Eh]
	 Correlation Energy        =      -1.4411194643592462 [Eh]
	 Total Energy              =    -669.1219192256827455 [Eh]

	 ================> DF-SCS-MP2 Energies <==================
	-----------------------------------------------------------
	 SCS Same-Spin Scale       =       0.3333333333333333 [-]
	 SCS Opposite-Spin Scale   =       1.2000000000000000 [-]
	 SCS Same-Spin Energy      =      -0.1112226235951194 [Eh]
	 SCS Opposite-Spin Energy  =      -1.3289419122886656 [Eh]
	 SCS Correlation Energy    =      -1.4401645358837851 [Eh]
	 SCS Total Energy          =    -669.1209642972073652 [Eh]
	-----------------------------------------------------------

  Dipole Moment: [D]
     X:     0.4260      Y:     1.0879      Z:    -0.0123     Total:     1.1684

*** Psi4 exiting successfully. Buy a developer a beer!
