                               Psi4 1.3.2 release

  ==> Input File <==

--------------------------------------------------------------------------
#psi4
#
memory 32 gb

molecule  {
0 1
  S        0.7163710     0.8062280    -0.0057410
  O       -0.7612550    -1.3859280     0.0083390
  C       -2.0509520     0.6590830     0.0068010
  C        1.9223760    -0.5510590    -0.0015950
  C       -0.7750391    -0.1568442     0.0151725
  C       -3.2947410    -0.2161080     0.0056640
  C        3.3341240     0.0170930    -0.0107850
  H       -2.0194370     1.3121904     0.8867708
  H       -2.0299060     1.3210850    -0.8667760
  H        1.7458030    -1.1645560     0.8835850
  H        1.7388000    -1.1758340    -0.8774310
  H       -3.3141610    -0.8622160     0.8846490
  H       -3.3163930    -0.8568630    -0.8772710
  H       -4.1940350     0.4043620     0.0085730
  H        3.5120120     0.6248690    -0.9008780
  H        3.5189980     0.6365110     0.8698160
  H        4.0585630    -0.8014520    -0.0081370
units angstrom
no_reorient  #important for SAPT in psi4, default
symmetry c1  #important for SAPT in psi4, default
}

set PROPERTIES_ORIGIN ["COM"]
properties('MP2/aug-cc-pvtz', properties = ['dipole'])
--------------------------------------------------------------------------

    Molecular point group: c1
  Charge       = 0
  Multiplicity = 1
  Basis Set: AUG-CC-PVTZ
    Blend: AUG-CC-PVTZ
  Basis Set: (AUG-CC-PVTZ AUX)
    Blend: AUG-CC-PVTZ-JKFIT

    Orbital Energies [Eh]
    ---------------------

    Doubly Occupied:

       1A    -91.966467     2A    -20.552472     3A    -11.359758
       4A    -11.261748     5A    -11.247750     6A    -11.230446
       7A    -11.221033     8A     -8.968354     9A     -6.649560
      10A     -6.648433    11A     -6.647780    12A     -1.385476
      13A     -1.088380    14A     -1.061046    15A     -0.978237
      16A     -0.891188    17A     -0.822380    18A     -0.726632
      19A     -0.657658    20A     -0.642373    21A     -0.631081
      22A     -0.628782    23A     -0.561697    24A     -0.551440
      25A     -0.539715    26A     -0.522892    27A     -0.511778
      28A     -0.511623    29A     -0.492573    30A     -0.460229
      31A     -0.407088    32A     -0.367671

  @DF-RHF Final Energy:  -667.67998351024266

   => Energetics <=

    Nuclear Repulsion Energy =            369.6004988274631273
    One-Electron Energy =               -1650.1734825291459856
    Two-Electron Energy =                 612.8930001914402510
    Total Energy =                       -667.6799835102426641
  Basis Set: (AUG-CC-PVTZ AUX)
    Blend: AUG-CC-PVTZ-RI
    Molecular point group: c1

    Geometry (in Angstrom), charge = 0, multiplicity = 1:

       Center              X                  Y                   Z               Mass
    ------------   -----------------  -----------------  -----------------  -----------------
         S            0.715907033202     0.805646391979    -0.006891774362    31.972071174400
         O           -0.761718966798    -1.386509608021     0.007188225638    15.994914619570
         C           -2.051415966798     0.658501391979     0.005650225638    12.000000000000
         C            1.921912033202    -0.551640608021    -0.002745774362    12.000000000000
         C           -0.775503066798    -0.157425808021     0.014021725638    12.000000000000
         C           -3.295204966798    -0.216689608021     0.004513225638    12.000000000000
         C            3.333660033202     0.016511391979    -0.011935774362    12.000000000000
         H           -2.019900966798     1.311608791979     0.885620025638     1.007825032230
         H           -2.030369966798     1.320503391979    -0.867926774362     1.007825032230
         H            1.745339033202    -1.165137608021     0.882434225638     1.007825032230
         H            1.738336033202    -1.176415608021    -0.878581774362     1.007825032230
         H           -3.314624966798    -0.862797608021     0.883498225638     1.007825032230
         H           -3.316856966798    -0.857444608021    -0.878421774362     1.007825032230
         H           -4.194498966798     0.403780391979     0.007422225638     1.007825032230
         H            3.511548033202     0.624287391979    -0.902028774362     1.007825032230
         H            3.518534033202     0.635929391979     0.868665225638     1.007825032230
         H            4.058099033202    -0.802033608021    -0.009287774362     1.007825032230

  Basis Set: AUG-CC-PVTZ
    Blend: AUG-CC-PVTZ
  Basis Set: (AUG-CC-PVTZ AUX)
    Blend: AUG-CC-PVTZ-JKFIT
	 Reference Energy          =    -667.6799835102426641 [Eh]
	 Singles Energy            =      -0.0000000000000000 [Eh]
	 Same-Spin Energy          =      -0.3337835798747895 [Eh]
	 Opposite-Spin Energy      =      -1.1079376590369274 [Eh]
	 Correlation Energy        =      -1.4417212389117169 [Eh]
	 Total Energy              =    -669.1217047491543326 [Eh]

	 ================> DF-SCS-MP2 Energies <==================
	-----------------------------------------------------------
	 SCS Same-Spin Scale       =       0.3333333333333333 [-]
	 SCS Opposite-Spin Scale   =       1.2000000000000000 [-]
	 SCS Same-Spin Energy      =      -0.1112611932915965 [Eh]
	 SCS Opposite-Spin Energy  =      -1.3295251908443129 [Eh]
	 SCS Correlation Energy    =      -1.4407863841359094 [Eh]
	 SCS Total Energy          =    -669.1207698943785545 [Eh]
	-----------------------------------------------------------

  Dipole Moment: [D]
     X:     0.4009      Y:     1.0933      Z:    -0.0006     Total:     1.1645

*** Psi4 exiting successfully. Buy a developer a beer!
