                               Psi4 1.3.2 release

  ==> Input File <==

--------------------------------------------------------------------------
#psi4
#
memory 32 gb

molecule  {
0 1
  S        0.7163710     0.8062280    -0.0057410
  O       -0.7719287    -1.3860351     0.0083870
  C       -2.0580762     0.6479511     0.0068725
  C        1.9223760    -0.5510590    -0.0015950
  C       -0.7788880    -0.1628700     0.0040570
  C       -3.2947410    -0.2161080     0.0056640
  C        3.3341240     0.0170930    -0.0107850
  H       -2.0279500     1.3158130     0.8843350
  H       -2.0299060     1.3210850    -0.8667760
  H        1.7458030    -1.1645560     0.8835850
  H        1.7388000    -1.1758340    -0.8774310
  H       -3.3141610    -0.8622160     0.8846490
  H       -3.3163930    -0.8568630    -0.8772710
  H       -4.1940350     0.4043620     0.0085730
  H        3.5120120     0.6248690    -0.9008780
  H        3.5189980     0.6365110     0.8698160
  H        4.0585630    -0.8014520    -0.0081370
units angstrom
no_reorient  #important for SAPT in psi4, default
symmetry c1  #important for SAPT in psi4, default
}

set PROPERTIES_ORIGIN ["COM"]
properties('MP2/aug-cc-pvtz', properties = ['dipole'])
--------------------------------------------------------------------------

    Molecular point group: c1
  Charge       = 0
  Multiplicity = 1
  Basis Set: AUG-CC-PVTZ
    Blend: AUG-CC-PVTZ
  Basis Set: (AUG-CC-PVTZ AUX)
    Blend: AUG-CC-PVTZ-JKFIT

    Orbital Energies [Eh]
    ---------------------

    Doubly Occupied:

       1A    -91.966333     2A    -20.553236     3A    -11.359419
       4A    -11.261829     5A    -11.247803     6A    -11.230476
       7A    -11.220190     8A     -8.968093     9A     -6.649290
      10A     -6.648175    11A     -6.647512    12A     -1.389905
      13A     -1.087882    14A     -1.062018    15A     -0.977779
      16A     -0.890671    17A     -0.821678    18A     -0.726815
      19A     -0.658968    20A     -0.641593    21A     -0.632364
      22A     -0.628382    23A     -0.562398    24A     -0.552722
      25A     -0.540687    26A     -0.522839    27A     -0.513304
      28A     -0.511273    29A     -0.491154    30A     -0.460392
      31A     -0.406526    32A     -0.367487

  @DF-RHF Final Energy:  -667.68042173148319

   => Energetics <=

    Nuclear Repulsion Energy =            369.5854730585867287
    One-Electron Energy =               -1650.1334041444906688
    Two-Electron Energy =                 612.8675093544206902
    Total Energy =                       -667.6804217314831931
  Basis Set: (AUG-CC-PVTZ AUX)
    Blend: AUG-CC-PVTZ-RI
    Molecular point group: c1

    Geometry (in Angstrom), charge = 0, multiplicity = 1:

       Center              X                  Y                   Z               Mass
    ------------   -----------------  -----------------  -----------------  -----------------
         S            0.718541461705     0.807374157666    -0.005754794093    31.972071174400
         O           -0.769758238295    -1.384888942334     0.008373205907    15.994914619570
         C           -2.055905738295     0.649097257666     0.006858705907    12.000000000000
         C            1.924546461705    -0.549912842334    -0.001608794093    12.000000000000
         C           -0.776717538295    -0.161723842334     0.004043205907    12.000000000000
         C           -3.292570538295    -0.214961842334     0.005650205907    12.000000000000
         C            3.336294461705     0.018239157666    -0.010798794093    12.000000000000
         H           -2.025779538295     1.316959157666     0.884321205907     1.007825032230
         H           -2.027735538295     1.322231157666    -0.866789794093     1.007825032230
         H            1.747973461705    -1.163409842334     0.883571205907     1.007825032230
         H            1.740970461705    -1.174687842334    -0.877444794093     1.007825032230
         H           -3.311990538295    -0.861069842334     0.884635205907     1.007825032230
         H           -3.314222538295    -0.855716842334    -0.877284794093     1.007825032230
         H           -4.191864538295     0.405508157666     0.008559205907     1.007825032230
         H            3.514182461705     0.626015157666    -0.900891794093     1.007825032230
         H            3.521168461705     0.637657157666     0.869802205907     1.007825032230
         H            4.060733461705    -0.800305842334    -0.008150794093     1.007825032230

  Basis Set: AUG-CC-PVTZ
    Blend: AUG-CC-PVTZ
  Basis Set: (AUG-CC-PVTZ AUX)
    Blend: AUG-CC-PVTZ-JKFIT
	 Reference Energy          =    -667.6804217314831931 [Eh]
	 Singles Energy            =      -0.0000000000000000 [Eh]
	 Same-Spin Energy          =      -0.3336658695197319 [Eh]
	 Opposite-Spin Energy      =      -1.1076818777953075 [Eh]
	 Correlation Energy        =      -1.4413477473150393 [Eh]
	 Total Energy              =    -669.1217694787982282 [Eh]

	 ================> DF-SCS-MP2 Energies <==================
	-----------------------------------------------------------
	 SCS Same-Spin Scale       =       0.3333333333333333 [-]
	 SCS Opposite-Spin Scale   =       1.2000000000000000 [-]
	 SCS Same-Spin Energy      =      -0.1112219565065773 [Eh]
	 SCS Opposite-Spin Energy  =      -1.3292182533543688 [Eh]
	 SCS Correlation Energy    =      -1.4404402098609461 [Eh]
	 SCS Total Energy          =    -669.1208619413441738 [Eh]
	-----------------------------------------------------------

  Dipole Moment: [D]
     X:     0.3875      Y:     1.0623      Z:    -0.0010     Total:     1.1308

*** Psi4 exiting successfully. Buy a developer a beer!
