                               Psi4 1.3.2 release

  ==> Input File <==

--------------------------------------------------------------------------
#psi4
#
memory 32 gb

molecule  {
0 1
  S        0.7163710     0.8062280    -0.0057410
  O       -0.7612550    -1.3859280     0.0083390
  C       -2.0509520     0.6590830     0.0068010
  C        1.9223760    -0.5510590    -0.0015950
  C       -0.7788880    -0.1628700     0.0040570
  C       -3.2947410    -0.2161080     0.0056640
  C        3.5196591     0.0917608    -0.0119928
  H       -2.0279500     1.3158130     0.8843350
  H       -2.0299060     1.3210850    -0.8667760
  H        1.7458030    -1.1645560     0.8835850
  H        1.7388000    -1.1758340    -0.8774310
  H       -3.3141610    -0.8622160     0.8846490
  H       -3.3163930    -0.8568630    -0.8772710
  H       -4.1940350     0.4043620     0.0085730
  H        3.5120120     0.6248690    -0.9008780
  H        3.5189980     0.6365110     0.8698160
  H        4.0585630    -0.8014520    -0.0081370
units angstrom
no_reorient  #important for SAPT in psi4, default
symmetry c1  #important for SAPT in psi4, default
}

set PROPERTIES_ORIGIN ["COM"]
properties('MP2/aug-cc-pvtz', properties = ['dipole'])
--------------------------------------------------------------------------

    Molecular point group: c1
  Charge       = 0
  Multiplicity = 1
  Basis Set: AUG-CC-PVTZ
    Blend: AUG-CC-PVTZ
  Basis Set: (AUG-CC-PVTZ AUX)
    Blend: AUG-CC-PVTZ-JKFIT

    Orbital Energies [Eh]
    ---------------------

    Doubly Occupied:

       1A    -91.964716     2A    -20.552713     3A    -11.358529
       4A    -11.266176     5A    -11.247015     6A    -11.230229
       7A    -11.220563     8A     -8.966251     9A     -6.647466
      10A     -6.646368    11A     -6.645732    12A     -1.389049
      13A     -1.077290    14A     -1.051275    15A     -0.973079
      16A     -0.895820    17A     -0.824729    18A     -0.725362
      19A     -0.655379    20A     -0.641146    21A     -0.631636
      22A     -0.629804    23A     -0.587046    24A     -0.556538
      25A     -0.540950    26A     -0.526082    27A     -0.518950
      28A     -0.494086    29A     -0.470658    30A     -0.455754
      31A     -0.403252    32A     -0.365247

  @DF-RHF Final Energy:  -667.65401087748921

   => Energetics <=

    Nuclear Repulsion Energy =            366.6200067640280054
    One-Electron Energy =               -1644.2302498765291148
    Two-Electron Energy =                 609.9562322350119530
    Total Energy =                       -667.6540108774892133
  Basis Set: (AUG-CC-PVTZ AUX)
    Blend: AUG-CC-PVTZ-RI
    Molecular point group: c1

    Geometry (in Angstrom), charge = 0, multiplicity = 1:

       Center              X                  Y                   Z               Mass
    ------------   -----------------  -----------------  -----------------  -----------------
         S            0.697510231629     0.798637596248    -0.005618241730    31.972071174400
         O           -0.780115768371    -1.393518403752     0.008461758270    15.994914619570
         C           -2.069812768371     0.651492596248     0.006923758270    12.000000000000
         C            1.903515231629    -0.558649403752    -0.001472241730    12.000000000000
         C           -0.797748768371    -0.170460403752     0.004179758270    12.000000000000
         C           -3.313601768371    -0.223698403752     0.005786758270    12.000000000000
         C            3.500798331629     0.084170396248    -0.011870041730    12.000000000000
         H           -2.046810768371     1.308222596248     0.884457758270     1.007825032230
         H           -2.048766768371     1.313494596248    -0.866653241730     1.007825032230
         H            1.726942231629    -1.172146403752     0.883707758270     1.007825032230
         H            1.719939231629    -1.183424403752    -0.877308241730     1.007825032230
         H           -3.333021768371    -0.869806403752     0.884771758270     1.007825032230
         H           -3.335253768371    -0.864453403752    -0.877148241730     1.007825032230
         H           -4.212895768371     0.396771596248     0.008695758270     1.007825032230
         H            3.493151231629     0.617278596248    -0.900755241730     1.007825032230
         H            3.500137231629     0.628920596248     0.869938758270     1.007825032230
         H            4.039702231629    -0.809042403752    -0.008014241730     1.007825032230

  Basis Set: AUG-CC-PVTZ
    Blend: AUG-CC-PVTZ
  Basis Set: (AUG-CC-PVTZ AUX)
    Blend: AUG-CC-PVTZ-JKFIT
	 Reference Energy          =    -667.6540108774892133 [Eh]
	 Singles Energy            =      -0.0000000000000000 [Eh]
	 Same-Spin Energy          =      -0.3335833236713376 [Eh]
	 Opposite-Spin Energy      =      -1.1088207900191993 [Eh]
	 Correlation Energy        =      -1.4424041136905368 [Eh]
	 Total Energy              =    -669.0964149911796994 [Eh]

	 ================> DF-SCS-MP2 Energies <==================
	-----------------------------------------------------------
	 SCS Same-Spin Scale       =       0.3333333333333333 [-]
	 SCS Opposite-Spin Scale   =       1.2000000000000000 [-]
	 SCS Same-Spin Energy      =      -0.1111944412237792 [Eh]
	 SCS Opposite-Spin Energy  =      -1.3305849480230392 [Eh]
	 SCS Correlation Energy    =      -1.4417793892468183 [Eh]
	 SCS Total Energy          =    -669.0957902667360031 [Eh]
	-----------------------------------------------------------

  Dipole Moment: [D]
     X:     0.3719      Y:     1.0546      Z:    -0.0009     Total:     1.1183

*** Psi4 exiting successfully. Buy a developer a beer!
