                               Psi4 1.4a3.dev225

  ==> Input File <==

--------------------------------------------------------------------------
#psi4
#
memory 32 gb

molecule  {
0 1
  S       -0.7336830    -0.7988290    -0.0000010
  O        0.7842810     1.3701820    -0.0000010
  C        2.0392260    -0.6993310     0.0000000
  C       -1.9177210     0.5806550    -0.0000020
  C        0.7809180     0.1463140    -0.0000010
  C        3.3000750     0.1543340     0.0000020
  C       -3.3593063     0.0292873     0.0000031
  H        2.0053990    -1.3579180     0.8761960
  H        2.0054010    -1.3579160    -0.8761980
  H       -1.7269280     1.1964810     0.8811220
  H       -1.7269330     1.1964770    -0.8811310
  H        3.3326310     0.7974220     0.8814170
  H        3.3326220     0.7974380    -0.8814010
  H        4.1880090    -0.4829760    -0.0000080
  H       -3.5331250    -0.5739300    -0.8857830
  H       -3.5331200    -0.5739250     0.8857940
  H       -4.0504940     0.8682350     0.0000030
units angstrom
no_reorient  #important for SAPT in psi4, default
symmetry c1  #important for SAPT in psi4, default
}

set PROPERTIES_ORIGIN ["COM"]
properties('MP2/aug-cc-pvtz', properties = ['dipole'])
--------------------------------------------------------------------------

    Molecular point group: c1
  Charge       = 0
  Multiplicity = 1
  Basis Set: AUG-CC-PVTZ
    Blend: AUG-CC-PVTZ
  Basis Set: (AUG-CC-PVTZ AUX)
    Blend: AUG-CC-PVTZ-JKFIT

    Orbital Energies [Eh]
    ---------------------

    Doubly Occupied:

       1A    -91.965520     2A    -20.554013     3A    -11.360329
       4A    -11.262401     5A    -11.248255     6A    -11.229803
       7A    -11.221515     8A     -8.967188     9A     -6.648377
      10A     -6.647274    11A     -6.646619    12A     -1.389654
      13A     -1.084900    14A     -1.059602    15A     -0.975729
      16A     -0.891233    17A     -0.822124    18A     -0.727334
      19A     -0.657463    20A     -0.641755    21A     -0.632068
      22A     -0.628004    23A     -0.564051    24A     -0.548705
      25A     -0.541593    26A     -0.522137    27A     -0.514350
      28A     -0.508942    29A     -0.494076    30A     -0.460452
      31A     -0.405831    32A     -0.366751

  @DF-RHF Final Energy:  -667.68038712200678

   => Energetics <=

    Nuclear Repulsion Energy =            368.8451351931698241
    One-Electron Energy =               -1648.6749462298132585
    Two-Electron Energy =                 612.1494239146365999
    Total Energy =                       -667.6803871220067776
  Basis Set: (AUG-CC-PVTZ AUX)
    Blend: AUG-CC-PVTZ-RI
    Molecular point group: c1

    Geometry (in Angstrom), charge = 0, multiplicity = 1:

       Center              X                  Y                   Z               Mass
    ------------   -----------------  -----------------  -----------------  -----------------
         S           -0.729457512132    -0.793951310884    -0.000000901047    31.972071174400
         O            0.788506487868     1.375059689116    -0.000000901047    15.994914619570
         C            2.043451487868    -0.694453310884     0.000000098953    12.000000000000
         C           -1.913495512132     0.585532689116    -0.000001901047    12.000000000000
         C            0.785143487868     0.151191689116    -0.000000901047    12.000000000000
         C            3.304300487868     0.159211689116     0.000002098953    12.000000000000
         C           -3.355080812132     0.034164989116     0.000003198953    12.000000000000
         H            2.009624487868    -1.353040310884     0.876196098953     1.007825032230
         H            2.009626487868    -1.353038310884    -0.876197901047     1.007825032230
         H           -1.722702512132     1.201358689116     0.881122098953     1.007825032230
         H           -1.722707512132     1.201354689116    -0.881130901047     1.007825032230
         H            3.336856487868     0.802299689116     0.881417098953     1.007825032230
         H            3.336847487868     0.802315689116    -0.881400901047     1.007825032230
         H            4.192234487868    -0.478098310884    -0.000007901047     1.007825032230
         H           -3.528899512132    -0.569052310884    -0.885782901047     1.007825032230
         H           -3.528894512132    -0.569047310884     0.885794098953     1.007825032230
         H           -4.046268512132     0.873112689116     0.000003098953     1.007825032230

  Basis Set: AUG-CC-PVTZ
    Blend: AUG-CC-PVTZ
  Basis Set: (AUG-CC-PVTZ AUX)
    Blend: AUG-CC-PVTZ-JKFIT
	 Reference Energy          =    -667.6803871220067776 [Eh]
	 Singles Energy            =      -0.0000000000000000 [Eh]
	 Same-Spin Energy          =      -0.3334338976746061 [Eh]
	 Opposite-Spin Energy      =      -1.1076158277782340 [Eh]
	 Correlation Energy        =      -1.4410497254528400 [Eh]
	 Total Energy              =    -669.1214368474595631 [Eh]

	 ================> DF-SCS-MP2 Energies <==================
	-----------------------------------------------------------
	 SCS Same-Spin Scale       =       0.3333333333333333 [-]
	 SCS Opposite-Spin Scale   =       1.2000000000000000 [-]
	 SCS Same-Spin Energy      =      -0.1111446325582020 [Eh]
	 SCS Opposite-Spin Energy  =      -1.3291389933338806 [Eh]
	 SCS Correlation Energy    =      -1.4402836258920826 [Eh]
	 SCS Total Energy          =    -669.1206707478988847 [Eh]
	-----------------------------------------------------------

  Dipole Moment: [D]
     X:    -0.3656      Y:    -1.0514      Z:     0.0000     Total:     1.1131

*** Psi4 exiting successfully. Buy a developer a beer!
