                               Psi4 1.3.2 release

  ==> Input File <==

--------------------------------------------------------------------------
#psi4
#
memory 32 gb

molecule  {
0 1
  S        0.7247711     0.7931425    -0.0057300
  O       -0.7505826    -1.3857277     0.0082930
  C       -2.0509520     0.6590830     0.0068010
  C        1.9223760    -0.5510590    -0.0015950
  C       -0.7788880    -0.1628700     0.0040570
  C       -3.2947410    -0.2161080     0.0056640
  C        3.3341240     0.0170930    -0.0107850
  H       -2.0279500     1.3158130     0.8843350
  H       -2.0299060     1.3210850    -0.8667760
  H        1.7458030    -1.1645560     0.8835850
  H        1.7388000    -1.1758340    -0.8774310
  H       -3.3141610    -0.8622160     0.8846490
  H       -3.3163930    -0.8568630    -0.8772710
  H       -4.1940350     0.4043620     0.0085730
  H        3.5120120     0.6248690    -0.9008780
  H        3.5189980     0.6365110     0.8698160
  H        4.0585630    -0.8014520    -0.0081370
units angstrom
no_reorient  #important for SAPT in psi4, default
symmetry c1  #important for SAPT in psi4, default
}

set PROPERTIES_ORIGIN ["COM"]
properties('MP2/aug-cc-pvtz', properties = ['dipole'])
--------------------------------------------------------------------------

    Molecular point group: c1
  Charge       = 0
  Multiplicity = 1
  Basis Set: AUG-CC-PVTZ
    Blend: AUG-CC-PVTZ
  Basis Set: (AUG-CC-PVTZ AUX)
    Blend: AUG-CC-PVTZ-JKFIT

    Orbital Energies [Eh]
    ---------------------

    Doubly Occupied:

       1A    -91.964207     2A    -20.553622     3A    -11.359956
       4A    -11.259627     5A    -11.248731     6A    -11.229945
       7A    -11.221773     8A     -8.966315     9A     -6.647523
      10A     -6.646435    11A     -6.645750    12A     -1.390350
      13A     -1.089149    14A     -1.062156    15A     -0.976564
      16A     -0.891890    17A     -0.821443    18A     -0.727736
      19A     -0.659625    20A     -0.642875    21A     -0.632927
      22A     -0.628880    23A     -0.561132    24A     -0.552066
      25A     -0.541271    26A     -0.523886    27A     -0.512231
      28A     -0.511682    29A     -0.493918    30A     -0.461251
      31A     -0.405657    32A     -0.365801

  @DF-RHF Final Energy:  -667.68071398084169

   => Energetics <=

    Nuclear Repulsion Energy =            369.9917720168663777
    One-Electron Energy =               -1650.9522293079646715
    Two-Electron Energy =                 613.2797433102565492
    Total Energy =                       -667.6807139808416878
  Basis Set: (AUG-CC-PVTZ AUX)
    Blend: AUG-CC-PVTZ-RI
    Molecular point group: c1

    Geometry (in Angstrom), charge = 0, multiplicity = 1:

       Center              X                  Y                   Z               Mass
    ------------   -----------------  -----------------  -----------------  -----------------
         S            0.721049853874     0.796659536066    -0.005726768169    31.972071174400
         O           -0.754303846126    -1.382210663934     0.008296231831    15.994914619570
         C           -2.054673246126     0.662600036066     0.006804231831    12.000000000000
         C            1.918654753874    -0.547541963934    -0.001591768169    12.000000000000
         C           -0.782609246126    -0.159352963934     0.004060231831    12.000000000000
         C           -3.298462246126    -0.212590963934     0.005667231831    12.000000000000
         C            3.330402753874     0.020610036066    -0.010781768169    12.000000000000
         H           -2.031671246126     1.319330036066     0.884338231831     1.007825032230
         H           -2.033627246126     1.324602036066    -0.866772768169     1.007825032230
         H            1.742081753874    -1.161038963934     0.883588231831     1.007825032230
         H            1.735078753874    -1.172316963934    -0.877427768169     1.007825032230
         H           -3.317882246126    -0.858698963934     0.884652231831     1.007825032230
         H           -3.320114246126    -0.853345963934    -0.877267768169     1.007825032230
         H           -4.197756246126     0.407879036066     0.008576231831     1.007825032230
         H            3.508290753874     0.628386036066    -0.900874768169     1.007825032230
         H            3.515276753874     0.640028036066     0.869819231831     1.007825032230
         H            4.054841753874    -0.797934963934    -0.008133768169     1.007825032230

  Basis Set: AUG-CC-PVTZ
    Blend: AUG-CC-PVTZ
  Basis Set: (AUG-CC-PVTZ AUX)
    Blend: AUG-CC-PVTZ-JKFIT
	 Reference Energy          =    -667.6807139808416878 [Eh]
	 Singles Energy            =      -0.0000000000000000 [Eh]
	 Same-Spin Energy          =      -0.3336955754666410 [Eh]
	 Opposite-Spin Energy      =      -1.1075328540119163 [Eh]
	 Correlation Energy        =      -1.4412284294785573 [Eh]
	 Total Energy              =    -669.1219424103202300 [Eh]

	 ================> DF-SCS-MP2 Energies <==================
	-----------------------------------------------------------
	 SCS Same-Spin Scale       =       0.3333333333333333 [-]
	 SCS Opposite-Spin Scale   =       1.2000000000000000 [-]
	 SCS Same-Spin Energy      =      -0.1112318584888803 [Eh]
	 SCS Opposite-Spin Energy  =      -1.3290394248142994 [Eh]
	 SCS Correlation Energy    =      -1.4402712833031797 [Eh]
	 SCS Total Energy          =    -669.1209852641449061 [Eh]
	-----------------------------------------------------------

  Dipole Moment: [D]
     X:     0.3026      Y:     1.0584      Z:    -0.0007     Total:     1.1008

*** Psi4 exiting successfully. Buy a developer a beer!
