                               Psi4 1.3.2 release

  ==> Input File <==

--------------------------------------------------------------------------
#psi4
#
memory 32 gb

molecule  {
0 1
  S        0.7163710     0.8062280    -0.0057410
  O       -0.7612550    -1.3859280     0.0083390
  C       -2.0509520     0.6590830     0.0068010
  C        1.9223760    -0.5510590    -0.0015950
  C       -0.7788880    -0.1628700     0.0040570
  C       -3.2947410    -0.2161080     0.0056640
  C        3.3341240     0.0170930    -0.0107850
  H       -2.0279500     1.3158130     0.8843350
  H       -2.0299060     1.3210850    -0.8667760
  H        1.7458030    -1.1645560     0.8835850
  H        1.7388000    -1.1758340    -0.8774310
  H       -3.3141610    -0.8622160     0.8846490
  H       -3.3163930    -0.8568630    -0.8772710
  H       -4.1940350     0.4043620     0.0085730
  H        3.5120120     0.6248690    -0.9008780
  H        3.5189980     0.6365110     0.8698160
  H        4.0585630    -0.8014520    -0.0081370
units angstrom
no_reorient  #important for SAPT in psi4, default
symmetry c1  #important for SAPT in psi4, default
}

set PROPERTIES_ORIGIN ["COM"]
properties('MP2/aug-cc-pvtz', properties = ['dipole'])
--------------------------------------------------------------------------

    Molecular point group: c1
  Charge       = 0
  Multiplicity = 1
  Basis Set: AUG-CC-PVTZ
    Blend: AUG-CC-PVTZ
  Basis Set: (AUG-CC-PVTZ AUX)
    Blend: AUG-CC-PVTZ-JKFIT

    Orbital Energies [Eh]
    ---------------------

    Doubly Occupied:

       1A    -91.965477     2A    -20.553746     3A    -11.359818
       4A    -11.261302     5A    -11.247787     6A    -11.230085
       7A    -11.221137     8A     -8.967295     9A     -6.648490
      10A     -6.647376    11A     -6.646717    12A     -1.390138
      13A     -1.087550    14A     -1.061181    15A     -0.977008
      16A     -0.890887    17A     -0.821726    18A     -0.727587
      19A     -0.658541    20A     -0.642383    21A     -0.632648
      22A     -0.628575    23A     -0.561657    24A     -0.551375
      25A     -0.540841    26A     -0.523440    27A     -0.512102
      28A     -0.511510    29A     -0.493666    30A     -0.459800
      31A     -0.406219    32A     -0.367014

  @DF-RHF Final Energy:  -667.68072286231870

   => Energetics <=

    Nuclear Repulsion Energy =            369.5835812779536695
    One-Electron Energy =               -1650.1384523067808914
    Two-Electron Energy =                 612.8741481665084621
    Total Energy =                       -667.6807228623187029
  Basis Set: (AUG-CC-PVTZ AUX)
    Blend: AUG-CC-PVTZ-RI
    Molecular point group: c1

    Geometry (in Angstrom), charge = 0, multiplicity = 1:

       Center              X                  Y                   Z               Mass
    ------------   -----------------  -----------------  -----------------  -----------------
         S            0.716370977503     0.806228021999    -0.005741021780    31.972071174400
         O           -0.761255022497    -1.385927978001     0.008338978220    15.994914619570
         C           -2.050952022497     0.659083021999     0.006800978220    12.000000000000
         C            1.922375977503    -0.551058978001    -0.001595021780    12.000000000000
         C           -0.778888022497    -0.162869978001     0.004056978220    12.000000000000
         C           -3.294741022497    -0.216107978001     0.005663978220    12.000000000000
         C            3.334123977503     0.017093021999    -0.010785021780    12.000000000000
         H           -2.027950022497     1.315813021999     0.884334978220     1.007825032230
         H           -2.029906022497     1.321085021999    -0.866776021780     1.007825032230
         H            1.745802977503    -1.164555978001     0.883584978220     1.007825032230
         H            1.738799977503    -1.175833978001    -0.877431021780     1.007825032230
         H           -3.314161022497    -0.862215978001     0.884648978220     1.007825032230
         H           -3.316393022497    -0.856862978001    -0.877271021780     1.007825032230
         H           -4.194035022497     0.404362021999     0.008572978220     1.007825032230
         H            3.512011977503     0.624869021999    -0.900878021780     1.007825032230
         H            3.518997977503     0.636511021999     0.869815978220     1.007825032230
         H            4.058562977503    -0.801451978001    -0.008137021780     1.007825032230

  Basis Set: AUG-CC-PVTZ
    Blend: AUG-CC-PVTZ
  Basis Set: (AUG-CC-PVTZ AUX)
    Blend: AUG-CC-PVTZ-JKFIT
	 Reference Energy          =    -667.6807228623187029 [Eh]
	 Singles Energy            =      -0.0000000000000000 [Eh]
	 Same-Spin Energy          =      -0.3336150159981851 [Eh]
	 Opposite-Spin Energy      =      -1.1076334007821855 [Eh]
	 Correlation Energy        =      -1.4412484167803705 [Eh]
	 Total Energy              =    -669.1219712790990570 [Eh]

	 ================> DF-SCS-MP2 Energies <==================
	-----------------------------------------------------------
	 SCS Same-Spin Scale       =       0.3333333333333333 [-]
	 SCS Opposite-Spin Scale   =       1.2000000000000000 [-]
	 SCS Same-Spin Energy      =      -0.1112050053327284 [Eh]
	 SCS Opposite-Spin Energy  =      -1.3291600809386226 [Eh]
	 SCS Correlation Energy    =      -1.4403650862713508 [Eh]
	 SCS Total Energy          =    -669.1210879485900023 [Eh]
	-----------------------------------------------------------

  Dipole Moment: [D]
     X:     0.3491      Y:     1.0611      Z:    -0.0009     Total:     1.1170

*** Psi4 exiting successfully. Buy a developer a beer!
