                               Psi4 1.3.2 release

  ==> Input File <==

--------------------------------------------------------------------------
#psi4
#
memory 32 gb

molecule  {
0 1
  S        0.7163710     0.8062280    -0.0057410
  O       -0.7185818    -1.3845682     0.0081438
  C       -2.0214922     0.7029764     0.0065131
  C        1.9223760    -0.5510590    -0.0015950
  C       -0.7788880    -0.1628700     0.0040570
  C       -3.2947410    -0.2161080     0.0056640
  C        3.3341240     0.0170930    -0.0107850
  H       -2.0279500     1.3158130     0.8843350
  H       -2.0299060     1.3210850    -0.8667760
  H        1.7458030    -1.1645560     0.8835850
  H        1.7388000    -1.1758340    -0.8774310
  H       -3.3141610    -0.8622160     0.8846490
  H       -3.3163930    -0.8568630    -0.8772710
  H       -4.1940350     0.4043620     0.0085730
  H        3.5120120     0.6248690    -0.9008780
  H        3.5189980     0.6365110     0.8698160
  H        4.0585630    -0.8014520    -0.0081370
units angstrom
no_reorient  #important for SAPT in psi4, default
symmetry c1  #important for SAPT in psi4, default
}

set PROPERTIES_ORIGIN ["COM"]
properties('MP2/aug-cc-pvtz', properties = ['dipole'])
--------------------------------------------------------------------------

    Molecular point group: c1
  Charge       = 0
  Multiplicity = 1
  Basis Set: AUG-CC-PVTZ
    Blend: AUG-CC-PVTZ
  Basis Set: (AUG-CC-PVTZ AUX)
    Blend: AUG-CC-PVTZ-JKFIT

    Orbital Energies [Eh]
    ---------------------

    Doubly Occupied:

       1A    -91.962032     2A    -20.555756     3A    -11.361628
       4A    -11.259184     5A    -11.248230     6A    -11.228509
       7A    -11.224908     8A     -8.964089     9A     -6.645274
      10A     -6.644164    11A     -6.643518    12A     -1.391282
      13A     -1.086366    14A     -1.058509    15A     -0.973920
      16A     -0.891790    17A     -0.821990    18A     -0.730476
      19A     -0.657039    20A     -0.647287    21A     -0.634094
      22A     -0.628721    23A     -0.560016    24A     -0.546377
      25A     -0.541602    26A     -0.525500    27A     -0.514651
      28A     -0.505946    29A     -0.500464    30A     -0.456928
      31A     -0.404265    32A     -0.365105

  @DF-RHF Final Energy:  -667.67755381524944

   => Energetics <=

    Nuclear Repulsion Energy =            369.6225834775307817
    One-Electron Energy =               -1650.2410411001437751
    Two-Electron Energy =                 612.9409038073636111
    Total Energy =                       -667.6775538152494391
  Basis Set: (AUG-CC-PVTZ AUX)
    Blend: AUG-CC-PVTZ-RI
    Molecular point group: c1

    Geometry (in Angstrom), charge = 0, multiplicity = 1:

       Center              X                  Y                   Z               Mass
    ------------   -----------------  -----------------  -----------------  -----------------
         S            0.707594072778     0.801581746529    -0.005685305789    31.972071174400
         O           -0.727358727222    -1.389214453471     0.008199494211    15.994914619570
         C           -2.030269127222     0.698330146529     0.006568794211    12.000000000000
         C            1.913599072778    -0.555705253471    -0.001539305789    12.000000000000
         C           -0.787664927222    -0.167516253471     0.004112694211    12.000000000000
         C           -3.303517927222    -0.220754253471     0.005719694211    12.000000000000
         C            3.325347072778     0.012446746529    -0.010729305789    12.000000000000
         H           -2.036726927222     1.311166746529     0.884390694211     1.007825032230
         H           -2.038682927222     1.316438746529    -0.866720305789     1.007825032230
         H            1.737026072778    -1.169202253471     0.883640694211     1.007825032230
         H            1.730023072778    -1.180480253471    -0.877375305789     1.007825032230
         H           -3.322937927222    -0.866862253471     0.884704694211     1.007825032230
         H           -3.325169927222    -0.861509253471    -0.877215305789     1.007825032230
         H           -4.202811927222     0.399715746529     0.008628694211     1.007825032230
         H            3.503235072778     0.620222746529    -0.900822305789     1.007825032230
         H            3.510221072778     0.631864746529     0.869871694211     1.007825032230
         H            4.049786072778    -0.806098253471    -0.008081305789     1.007825032230

  Basis Set: AUG-CC-PVTZ
    Blend: AUG-CC-PVTZ
  Basis Set: (AUG-CC-PVTZ AUX)
    Blend: AUG-CC-PVTZ-JKFIT
	 Reference Energy          =    -667.6775538152494391 [Eh]
	 Singles Energy            =      -0.0000000000000000 [Eh]
	 Same-Spin Energy          =      -0.3335785160829073 [Eh]
	 Opposite-Spin Energy      =      -1.1077780351240363 [Eh]
	 Correlation Energy        =      -1.4413565512069435 [Eh]
	 Total Energy              =    -669.1189103664563618 [Eh]

	 ================> DF-SCS-MP2 Energies <==================
	-----------------------------------------------------------
	 SCS Same-Spin Scale       =       0.3333333333333333 [-]
	 SCS Opposite-Spin Scale   =       1.2000000000000000 [-]
	 SCS Same-Spin Energy      =      -0.1111928386943024 [Eh]
	 SCS Opposite-Spin Energy  =      -1.3293336421488435 [Eh]
	 SCS Correlation Energy    =      -1.4405264808431459 [Eh]
	 SCS Total Energy          =    -669.1180802960925575 [Eh]
	-----------------------------------------------------------

  Dipole Moment: [D]
     X:     0.1921      Y:     1.0487      Z:    -0.0003     Total:     1.0661

*** Psi4 exiting successfully. Buy a developer a beer!
