                               Psi4 1.4a3.dev225

  ==> Input File <==

--------------------------------------------------------------------------
#psi4
#
memory 32 gb

molecule  {
0 1
  S       -0.7336830    -0.7988290    -0.0000010
  O        0.7842810     1.3701820    -0.0000010
  C        2.0392260    -0.6993310     0.0000000
  C       -1.9177210     0.5806550    -0.0000020
  C        0.8224171     0.1184245    -0.0000010
  C        3.3000750     0.1543340     0.0000020
  C       -3.3406260     0.0364320     0.0000030
  H        2.0053990    -1.3579180     0.8761960
  H        2.0054010    -1.3579160    -0.8761980
  H       -1.7269280     1.1964810     0.8811220
  H       -1.7269330     1.1964770    -0.8811310
  H        3.3326310     0.7974220     0.8814170
  H        3.3326220     0.7974380    -0.8814010
  H        4.1880090    -0.4829760    -0.0000080
  H       -3.5331250    -0.5739300    -0.8857830
  H       -3.5331200    -0.5739250     0.8857940
  H       -4.0504940     0.8682350     0.0000030
units angstrom
no_reorient  #important for SAPT in psi4, default
symmetry c1  #important for SAPT in psi4, default
}

set PROPERTIES_ORIGIN ["COM"]
properties('MP2/aug-cc-pvtz', properties = ['dipole'])
--------------------------------------------------------------------------

    Molecular point group: c1
  Charge       = 0
  Multiplicity = 1
  Basis Set: AUG-CC-PVTZ
    Blend: AUG-CC-PVTZ
  Basis Set: (AUG-CC-PVTZ AUX)
    Blend: AUG-CC-PVTZ-JKFIT

    Orbital Energies [Eh]
    ---------------------

    Doubly Occupied:

       1A    -91.964926     2A    -20.552831     3A    -11.364455
       4A    -11.260906     5A    -11.249904     6A    -11.229888
       7A    -11.224038     8A     -8.966145     9A     -6.647300
      10A     -6.646286    11A     -6.645622    12A     -1.371865
      13A     -1.088434    14A     -1.067907    15A     -0.973692
      16A     -0.897673    17A     -0.820992    18A     -0.729239
      19A     -0.656952    20A     -0.645700    21A     -0.628790
      22A     -0.627499    23A     -0.562551    24A     -0.550356
      25A     -0.536006    26A     -0.524954    27A     -0.512218
      28A     -0.509450    29A     -0.489032    30A     -0.460548
      31A     -0.407167    32A     -0.364407

  @DF-RHF Final Energy:  -667.67447866236103

   => Energetics <=

    Nuclear Repulsion Energy =            368.7945867555488917
    One-Electron Energy =               -1648.5826640102618512
    Two-Electron Energy =                 612.1135985923519911
    Total Energy =                       -667.6744786623610253
  Basis Set: (AUG-CC-PVTZ AUX)
    Blend: AUG-CC-PVTZ-RI
    Molecular point group: c1

    Geometry (in Angstrom), charge = 0, multiplicity = 1:

       Center              X                  Y                   Z               Mass
    ------------   -----------------  -----------------  -----------------  -----------------
         S           -0.735575105893    -0.791842478642    -0.000000890882    31.972071174400
         O            0.782388894107     1.377168521358    -0.000000890882    15.994914619570
         C            2.037333894107    -0.692344478642     0.000000109118    12.000000000000
         C           -1.919613105893     0.587641521358    -0.000001890882    12.000000000000
         C            0.820524994107     0.125411021358    -0.000000890882    12.000000000000
         C            3.298182894107     0.161320521358     0.000002109118    12.000000000000
         C           -3.342518105893     0.043418521358     0.000003109118    12.000000000000
         H            2.003506894107    -1.350931478642     0.876196109118     1.007825032230
         H            2.003508894107    -1.350929478642    -0.876197890882     1.007825032230
         H           -1.728820105893     1.203467521358     0.881122109118     1.007825032230
         H           -1.728825105893     1.203463521358    -0.881130890882     1.007825032230
         H            3.330738894107     0.804408521358     0.881417109118     1.007825032230
         H            3.330729894107     0.804424521358    -0.881400890882     1.007825032230
         H            4.186116894107    -0.475989478642    -0.000007890882     1.007825032230
         H           -3.535017105893    -0.566943478642    -0.885782890882     1.007825032230
         H           -3.535012105893    -0.566938478642     0.885794109118     1.007825032230
         H           -4.052386105893     0.875221521358     0.000003109118     1.007825032230

  Basis Set: AUG-CC-PVTZ
    Blend: AUG-CC-PVTZ
  Basis Set: (AUG-CC-PVTZ AUX)
    Blend: AUG-CC-PVTZ-JKFIT
	 Reference Energy          =    -667.6744786623610253 [Eh]
	 Singles Energy            =      -0.0000000000000000 [Eh]
	 Same-Spin Energy          =      -0.3344811811933184 [Eh]
	 Opposite-Spin Energy      =      -1.1094898797519144 [Eh]
	 Correlation Energy        =      -1.4439710609452328 [Eh]
	 Total Energy              =    -669.1184497233062984 [Eh]

	 ================> DF-SCS-MP2 Energies <==================
	-----------------------------------------------------------
	 SCS Same-Spin Scale       =       0.3333333333333333 [-]
	 SCS Opposite-Spin Scale   =       1.2000000000000000 [-]
	 SCS Same-Spin Energy      =      -0.1114937270644395 [Eh]
	 SCS Opposite-Spin Energy  =      -1.3313878557022971 [Eh]
	 SCS Correlation Energy    =      -1.4428815827667365 [Eh]
	 SCS Total Energy          =    -669.1173602451277702 [Eh]
	-----------------------------------------------------------

  Dipole Moment: [D]
     X:    -0.1402      Y:    -1.1232      Z:     0.0000     Total:     1.1319

*** Psi4 exiting successfully. Buy a developer a beer!
