                               Psi4 1.3.2 release

  ==> Input File <==

--------------------------------------------------------------------------
#psi4
#
memory 32 gb

molecule  {
0 1
  S        0.7163710     0.8062280    -0.0057410
  O       -0.7826029    -1.3860491     0.0084347
  C       -2.0651029     0.6367574     0.0069437
  C        1.9223760    -0.5510590    -0.0015950
  C       -0.7788880    -0.1628700     0.0040570
  C       -3.2947410    -0.2161080     0.0056640
  C        3.3341240     0.0170930    -0.0107850
  H       -2.0279500     1.3158130     0.8843350
  H       -2.0299060     1.3210850    -0.8667760
  H        1.7458030    -1.1645560     0.8835850
  H        1.7388000    -1.1758340    -0.8774310
  H       -3.3141610    -0.8622160     0.8846490
  H       -3.3163930    -0.8568630    -0.8772710
  H       -4.1940350     0.4043620     0.0085730
  H        3.5120120     0.6248690    -0.9008780
  H        3.5189980     0.6365110     0.8698160
  H        4.0585630    -0.8014520    -0.0081370
units angstrom
no_reorient  #important for SAPT in psi4, default
symmetry c1  #important for SAPT in psi4, default
}

set PROPERTIES_ORIGIN ["COM"]
properties('MP2/aug-cc-pvtz', properties = ['dipole'])
--------------------------------------------------------------------------

    Molecular point group: c1
  Charge       = 0
  Multiplicity = 1
  Basis Set: AUG-CC-PVTZ
    Blend: AUG-CC-PVTZ
  Basis Set: (AUG-CC-PVTZ AUX)
    Blend: AUG-CC-PVTZ-JKFIT

    Orbital Energies [Eh]
    ---------------------

    Doubly Occupied:

       1A    -91.967186     2A    -20.552723     3A    -11.359043
       4A    -11.262355     5A    -11.247868     6A    -11.230866
       7A    -11.219243     8A     -8.968889     9A     -6.650088
      10A     -6.648972    11A     -6.648305    12A     -1.389696
      13A     -1.088227    14A     -1.062931    15A     -0.978548
      16A     -0.890457    17A     -0.821637    18A     -0.726027
      19A     -0.659416    20A     -0.640976    21A     -0.632116
      22A     -0.628132    23A     -0.563367    24A     -0.553981
      25A     -0.540549    26A     -0.522316    27A     -0.514275
      28A     -0.511165    29A     -0.488411    30A     -0.460942
      31A     -0.406755    32A     -0.367957

  @DF-RHF Final Energy:  -667.67966040276463

   => Energetics <=

    Nuclear Repulsion Energy =            369.5921077949080313
    One-Electron Energy =               -1650.1366968414042731
    Two-Electron Energy =                 612.8649286437315595
    Total Energy =                       -667.6796604027646254
  Basis Set: (AUG-CC-PVTZ AUX)
    Blend: AUG-CC-PVTZ-RI
    Molecular point group: c1

    Geometry (in Angstrom), charge = 0, multiplicity = 1:

       Center              X                  Y                   Z               Mass
    ------------   -----------------  -----------------  -----------------  -----------------
         S            0.720702102202     0.808513960789    -0.005768495259    31.972071174400
         O           -0.778271797798    -1.383763139211     0.008407204741    15.994914619570
         C           -2.060771797798     0.639043360789     0.006916204741    12.000000000000
         C            1.926707102202    -0.548773039211    -0.001622495259    12.000000000000
         C           -0.774556897798    -0.160584039211     0.004029504741    12.000000000000
         C           -3.290409897798    -0.213822039211     0.005636504741    12.000000000000
         C            3.338455102202     0.019378960789    -0.010812495259    12.000000000000
         H           -2.023618897798     1.318098960789     0.884307504741     1.007825032230
         H           -2.025574897798     1.323370960789    -0.866803495259     1.007825032230
         H            1.750134102202    -1.162270039211     0.883557504741     1.007825032230
         H            1.743131102202    -1.173548039211    -0.877458495259     1.007825032230
         H           -3.309829897798    -0.859930039211     0.884621504741     1.007825032230
         H           -3.312061897798    -0.854577039211    -0.877298495259     1.007825032230
         H           -4.189703897798     0.406647960789     0.008545504741     1.007825032230
         H            3.516343102202     0.627154960789    -0.900905495259     1.007825032230
         H            3.523329102202     0.638796960789     0.869788504741     1.007825032230
         H            4.062894102202    -0.799166039211    -0.008164495259     1.007825032230

  Basis Set: AUG-CC-PVTZ
    Blend: AUG-CC-PVTZ
  Basis Set: (AUG-CC-PVTZ AUX)
    Blend: AUG-CC-PVTZ-JKFIT
	 Reference Energy          =    -667.6796604027646254 [Eh]
	 Singles Energy            =      -0.0000000000000000 [Eh]
	 Same-Spin Energy          =      -0.3337336100915582 [Eh]
	 Opposite-Spin Energy      =      -1.1077642748313896 [Eh]
	 Correlation Energy        =      -1.4414978849229478 [Eh]
	 Total Energy              =    -669.1211582876875354 [Eh]

	 ================> DF-SCS-MP2 Energies <==================
	-----------------------------------------------------------
	 SCS Same-Spin Scale       =       0.3333333333333333 [-]
	 SCS Opposite-Spin Scale   =       1.2000000000000000 [-]
	 SCS Same-Spin Energy      =      -0.1112445366971860 [Eh]
	 SCS Opposite-Spin Energy  =      -1.3293171297976676 [Eh]
	 SCS Correlation Energy    =      -1.4405616664948537 [Eh]
	 SCS Total Energy          =    -669.1202220692595120 [Eh]
	-----------------------------------------------------------

  Dipole Moment: [D]
     X:     0.4254      Y:     1.0628      Z:    -0.0012     Total:     1.1448

*** Psi4 exiting successfully. Buy a developer a beer!
