                               Psi4 1.4a3.dev225

  ==> Input File <==

--------------------------------------------------------------------------
#psi4
#
memory 32 gb

molecule  {
0 1
  S       -0.7336830    -0.7988290    -0.0000010
  O        0.7842810     1.3701820    -0.0000010
  C        2.0392260    -0.6993310     0.0000000
  C       -1.9177210     0.5806550    -0.0000020
  C        0.7978854     0.1569020    -0.0000010
  C        3.3000750     0.1543340     0.0000020
  C       -3.3406260     0.0364320     0.0000030
  H        2.0053990    -1.3579180     0.8761960
  H        2.0054010    -1.3579160    -0.8761980
  H       -1.7269280     1.1964810     0.8811220
  H       -1.7269330     1.1964770    -0.8811310
  H        3.3326310     0.7974220     0.8814170
  H        3.3326220     0.7974380    -0.8814010
  H        4.1880090    -0.4829760    -0.0000080
  H       -3.5331250    -0.5739300    -0.8857830
  H       -3.5331200    -0.5739250     0.8857940
  H       -4.0504940     0.8682350     0.0000030
units angstrom
no_reorient  #important for SAPT in psi4, default
symmetry c1  #important for SAPT in psi4, default
}

set PROPERTIES_ORIGIN ["COM"]
properties('MP2/aug-cc-pvtz', properties = ['dipole'])
--------------------------------------------------------------------------

    Molecular point group: c1
  Charge       = 0
  Multiplicity = 1
  Basis Set: AUG-CC-PVTZ
    Blend: AUG-CC-PVTZ
  Basis Set: (AUG-CC-PVTZ AUX)
    Blend: AUG-CC-PVTZ-JKFIT

    Orbital Energies [Eh]
    ---------------------

    Doubly Occupied:

       1A    -91.962800     2A    -20.556984     3A    -11.361007
       4A    -11.260427     5A    -11.248949     6A    -11.229343
       7A    -11.222498     8A     -8.964275     9A     -6.645431
      10A     -6.644370    11A     -6.643697    12A     -1.398587
      13A     -1.084764    14A     -1.062285    15A     -0.972708
      16A     -0.891455    17A     -0.819779    18A     -0.729636
      19A     -0.659914    20A     -0.643242    21A     -0.634946
      22A     -0.627905    23A     -0.561549    24A     -0.551001
      25A     -0.542940    26A     -0.524969    27A     -0.512756
      28A     -0.511353    29A     -0.496321    30A     -0.458379
      31A     -0.403511    32A     -0.364704

  @DF-RHF Final Energy:  -667.68123779270945

   => Energetics <=

    Nuclear Repulsion Energy =            369.0860945701256242
    One-Electron Energy =               -1649.1496903755598851
    Two-Electron Energy =                 612.3823580127248078
    Total Energy =                       -667.6812377927094531
  Basis Set: (AUG-CC-PVTZ AUX)
    Blend: AUG-CC-PVTZ-RI
    Molecular point group: c1

    Geometry (in Angstrom), charge = 0, multiplicity = 1:

       Center              X                  Y                   Z               Mass
    ------------   -----------------  -----------------  -----------------  -----------------
         S           -0.733081312753    -0.795753945255    -0.000000890882    31.972071174400
         O            0.784882687247     1.373257054745    -0.000000890882    15.994914619570
         C            2.039827687247    -0.696255945255     0.000000109118    12.000000000000
         C           -1.917119312753     0.583730054745    -0.000001890882    12.000000000000
         C            0.798487087247     0.159977054745    -0.000000890882    12.000000000000
         C            3.300676687247     0.157409054745     0.000002109118    12.000000000000
         C           -3.340024312753     0.039507054745     0.000003109118    12.000000000000
         H            2.006000687247    -1.354842945255     0.876196109118     1.007825032230
         H            2.006002687247    -1.354840945255    -0.876197890882     1.007825032230
         H           -1.726326312753     1.199556054745     0.881122109118     1.007825032230
         H           -1.726331312753     1.199552054745    -0.881130890882     1.007825032230
         H            3.333232687247     0.800497054745     0.881417109118     1.007825032230
         H            3.333223687247     0.800513054745    -0.881400890882     1.007825032230
         H            4.188610687247    -0.479900945255    -0.000007890882     1.007825032230
         H           -3.532523312753    -0.570854945255    -0.885782890882     1.007825032230
         H           -3.532518312753    -0.570849945255     0.885794109118     1.007825032230
         H           -4.049892312753     0.871310054745     0.000003109118     1.007825032230

  Basis Set: AUG-CC-PVTZ
    Blend: AUG-CC-PVTZ
  Basis Set: (AUG-CC-PVTZ AUX)
    Blend: AUG-CC-PVTZ-JKFIT
	 Reference Energy          =    -667.6812377927094531 [Eh]
	 Singles Energy            =      -0.0000000000000000 [Eh]
	 Same-Spin Energy          =      -0.3332927852518753 [Eh]
	 Opposite-Spin Energy      =      -1.1072378995318253 [Eh]
	 Correlation Energy        =      -1.4405306847837005 [Eh]
	 Total Energy              =    -669.1217684774931058 [Eh]

	 ================> DF-SCS-MP2 Energies <==================
	-----------------------------------------------------------
	 SCS Same-Spin Scale       =       0.3333333333333333 [-]
	 SCS Opposite-Spin Scale   =       1.2000000000000000 [-]
	 SCS Same-Spin Energy      =      -0.1110975950839584 [Eh]
	 SCS Opposite-Spin Energy  =      -1.3286854794381904 [Eh]
	 SCS Correlation Energy    =      -1.4397830745221487 [Eh]
	 SCS Total Energy          =    -669.1210208672315503 [Eh]
	-----------------------------------------------------------

  Dipole Moment: [D]
     X:    -0.1831      Y:    -0.9742      Z:     0.0000     Total:     0.9913

*** Psi4 exiting successfully. Buy a developer a beer!
