                               Psi4 1.4a3.dev225

  ==> Input File <==

--------------------------------------------------------------------------
#psi4
#
memory 32 gb

molecule  {
0 1
  S       -0.7336830    -0.7988290    -0.0000010
  O        0.7842810     1.3701820    -0.0000010
  C        2.0392260    -0.6993310     0.0000000
  C       -1.9177210     0.5806550    -0.0000020
  C        0.7807806     0.0963142    -0.0000010
  C        3.3000750     0.1543340     0.0000020
  C       -3.3406260     0.0364320     0.0000030
  H        2.0053990    -1.3579180     0.8761960
  H        2.0054010    -1.3579160    -0.8761980
  H       -1.7269280     1.1964810     0.8811220
  H       -1.7269330     1.1964770    -0.8811310
  H        3.3326310     0.7974220     0.8814170
  H        3.3326220     0.7974380    -0.8814010
  H        4.1880090    -0.4829760    -0.0000080
  H       -3.5331250    -0.5739300    -0.8857830
  H       -3.5331200    -0.5739250     0.8857940
  H       -4.0504940     0.8682350     0.0000030
units angstrom
no_reorient  #important for SAPT in psi4, default
symmetry c1  #important for SAPT in psi4, default
}

set PROPERTIES_ORIGIN ["COM"]
properties('MP2/aug-cc-pvtz', properties = ['dipole'])
--------------------------------------------------------------------------

    Molecular point group: c1
  Charge       = 0
  Multiplicity = 1
  Basis Set: AUG-CC-PVTZ
    Blend: AUG-CC-PVTZ
  Basis Set: (AUG-CC-PVTZ AUX)
    Blend: AUG-CC-PVTZ-JKFIT

    Orbital Energies [Eh]
    ---------------------

    Doubly Occupied:

       1A    -91.970938     2A    -20.546532     3A    -11.362829
       4A    -11.263917     5A    -11.248831     6A    -11.232232
       7A    -11.221836     8A     -8.972776     9A     -6.654011
      10A     -6.652876    11A     -6.652256    12A     -1.354862
      13A     -1.091161    14A     -1.064395    15A     -0.981977
      16A     -0.895449    17A     -0.825337    18A     -0.724897
      19A     -0.654297    20A     -0.642667    21A     -0.629894
      22A     -0.620998    23A     -0.562449    24A     -0.550798
      25A     -0.533758    26A     -0.520971    27A     -0.512400
      28A     -0.508398    29A     -0.483052    30A     -0.462248
      31A     -0.411957    32A     -0.369072

  @DF-RHF Final Energy:  -667.67185372227732

   => Energetics <=

    Nuclear Repulsion Energy =            368.9986866892717217
    One-Electron Energy =               -1648.9809384183606653
    Two-Electron Energy =                 612.3103980068117380
    Total Energy =                       -667.6718537222773193
  Basis Set: (AUG-CC-PVTZ AUX)
    Blend: AUG-CC-PVTZ-RI
    Molecular point group: c1

    Geometry (in Angstrom), charge = 0, multiplicity = 1:

       Center              X                  Y                   Z               Mass
    ------------   -----------------  -----------------  -----------------  -----------------
         S           -0.731342508150    -0.789594835206    -0.000000890882    31.972071174400
         O            0.786621491850     1.379416164794    -0.000000890882    15.994914619570
         C            2.041566491850    -0.690096835206     0.000000109118    12.000000000000
         C           -1.915380508150     0.589889164794    -0.000001890882    12.000000000000
         C            0.783121091850     0.105548364794    -0.000000890882    12.000000000000
         C            3.302415491850     0.163568164794     0.000002109118    12.000000000000
         C           -3.338285508150     0.045666164794     0.000003109118    12.000000000000
         H            2.007739491850    -1.348683835206     0.876196109118     1.007825032230
         H            2.007741491850    -1.348681835206    -0.876197890882     1.007825032230
         H           -1.724587508150     1.205715164794     0.881122109118     1.007825032230
         H           -1.724592508150     1.205711164794    -0.881130890882     1.007825032230
         H            3.334971491850     0.806656164794     0.881417109118     1.007825032230
         H            3.334962491850     0.806672164794    -0.881400890882     1.007825032230
         H            4.190349491850    -0.473741835206    -0.000007890882     1.007825032230
         H           -3.530784508150    -0.564695835206    -0.885782890882     1.007825032230
         H           -3.530779508150    -0.564690835206     0.885794109118     1.007825032230
         H           -4.048153508150     0.877469164794     0.000003109118     1.007825032230

  Basis Set: AUG-CC-PVTZ
    Blend: AUG-CC-PVTZ
  Basis Set: (AUG-CC-PVTZ AUX)
    Blend: AUG-CC-PVTZ-JKFIT
	 Reference Energy          =    -667.6718537222773193 [Eh]
	 Singles Energy            =      -0.0000000000000000 [Eh]
	 Same-Spin Energy          =      -0.3350038240084178 [Eh]
	 Opposite-Spin Energy      =      -1.1104013431728743 [Eh]
	 Correlation Energy        =      -1.4454051671812922 [Eh]
	 Total Energy              =    -669.1172588894586397 [Eh]

	 ================> DF-SCS-MP2 Energies <==================
	-----------------------------------------------------------
	 SCS Same-Spin Scale       =       0.3333333333333333 [-]
	 SCS Opposite-Spin Scale   =       1.2000000000000000 [-]
	 SCS Same-Spin Energy      =      -0.1116679413361393 [Eh]
	 SCS Opposite-Spin Energy  =      -1.3324816118074492 [Eh]
	 SCS Correlation Energy    =      -1.4441495531435884 [Eh]
	 SCS Total Energy          =    -669.1160032754208942 [Eh]
	-----------------------------------------------------------

  Dipole Moment: [D]
     X:    -0.5421      Y:    -1.2757      Z:     0.0000     Total:     1.3861

*** Psi4 exiting successfully. Buy a developer a beer!
