                               Psi4 1.3.2 release

  ==> Input File <==

--------------------------------------------------------------------------
#psi4
#
memory 32 gb

molecule  {
0 1
  S        0.7163710     0.8062280    -0.0057410
  O       -0.7612550    -1.3859280     0.0083390
  C       -2.0509520     0.6590830     0.0068010
  C        1.8985045    -0.5718993    -0.0014083
  C       -0.7617465    -0.1888182     0.0041534
  C       -3.2947410    -0.2161080     0.0056640
  C        3.3341240     0.0170930    -0.0107850
  H       -2.0279500     1.3158130     0.8843350
  H       -2.0299060     1.3210850    -0.8667760
  H        1.7458030    -1.1645560     0.8835850
  H        1.7388000    -1.1758340    -0.8774310
  H       -3.3141610    -0.8622160     0.8846490
  H       -3.3163930    -0.8568630    -0.8772710
  H       -4.1940350     0.4043620     0.0085730
  H        3.5120120     0.6248690    -0.9008780
  H        3.5189980     0.6365110     0.8698160
  H        4.0585630    -0.8014520    -0.0081370
units angstrom
no_reorient  #important for SAPT in psi4, default
symmetry c1  #important for SAPT in psi4, default
}

set PROPERTIES_ORIGIN ["COM"]
properties('MP2/aug-cc-pvtz', properties = ['dipole'])
--------------------------------------------------------------------------

    Molecular point group: c1
  Charge       = 0
  Multiplicity = 1
  Basis Set: AUG-CC-PVTZ
    Blend: AUG-CC-PVTZ
  Basis Set: (AUG-CC-PVTZ AUX)
    Blend: AUG-CC-PVTZ-JKFIT

    Orbital Energies [Eh]
    ---------------------

    Doubly Occupied:

       1A    -91.964510     2A    -20.556385     3A    -11.357015
       4A    -11.259671     5A    -11.246377     6A    -11.230667
       7A    -11.219888     8A     -8.966429     9A     -6.647622
      10A     -6.646443    11A     -6.645788    12A     -1.408719
      13A     -1.084588    14A     -1.055481    15A     -0.973627
      16A     -0.886751    17A     -0.823524    18A     -0.728358
      19A     -0.660152    20A     -0.642622    21A     -0.637007
      22A     -0.628652    23A     -0.560528    24A     -0.548177
      25A     -0.546908    26A     -0.521650    27A     -0.515913
      28A     -0.508796    29A     -0.497037    30A     -0.461081
      31A     -0.401919    32A     -0.368441

  @DF-RHF Final Energy:  -667.68117294272690

   => Energetics <=

    Nuclear Repulsion Energy =            369.7800663361546185
    One-Electron Energy =               -1650.5210251998107651
    Two-Electron Energy =                 613.0597859209291300
    Total Energy =                       -667.6811729427269029
  Basis Set: (AUG-CC-PVTZ AUX)
    Blend: AUG-CC-PVTZ-RI
    Molecular point group: c1

    Geometry (in Angstrom), charge = 0, multiplicity = 1:

       Center              X                  Y                   Z               Mass
    ------------   -----------------  -----------------  -----------------  -----------------
         S            0.717055122011     0.810984351170    -0.005769800578    31.972071174400
         O           -0.760570877989    -1.381171648830     0.008310199422    15.994914619570
         C           -2.050267877989     0.663839351170     0.006772199422    12.000000000000
         C            1.899188622011    -0.567142948830    -0.001437100578    12.000000000000
         C           -0.761062377989    -0.184061848830     0.004124599422    12.000000000000
         C           -3.294056877989    -0.211351648830     0.005635199422    12.000000000000
         C            3.334808122011     0.021849351170    -0.010813800578    12.000000000000
         H           -2.027265877989     1.320569351170     0.884306199422     1.007825032230
         H           -2.029221877989     1.325841351170    -0.866804800578     1.007825032230
         H            1.746487122011    -1.159799648830     0.883556199422     1.007825032230
         H            1.739484122011    -1.171077648830    -0.877459800578     1.007825032230
         H           -3.313476877989    -0.857459648830     0.884620199422     1.007825032230
         H           -3.315708877989    -0.852106648830    -0.877299800578     1.007825032230
         H           -4.193350877989     0.409118351170     0.008544199422     1.007825032230
         H            3.512696122011     0.629625351170    -0.900906800578     1.007825032230
         H            3.519682122011     0.641267351170     0.869787199422     1.007825032230
         H            4.059247122011    -0.796695648830    -0.008165800578     1.007825032230

  Basis Set: AUG-CC-PVTZ
    Blend: AUG-CC-PVTZ
  Basis Set: (AUG-CC-PVTZ AUX)
    Blend: AUG-CC-PVTZ-JKFIT
	 Reference Energy          =    -667.6811729427269029 [Eh]
	 Singles Energy            =      -0.0000000000000000 [Eh]
	 Same-Spin Energy          =      -0.3328071163440541 [Eh]
	 Opposite-Spin Energy      =      -1.1063413803562892 [Eh]
	 Correlation Energy        =      -1.4391484967003432 [Eh]
	 Total Energy              =    -669.1203214394272436 [Eh]

	 ================> DF-SCS-MP2 Energies <==================
	-----------------------------------------------------------
	 SCS Same-Spin Scale       =       0.3333333333333333 [-]
	 SCS Opposite-Spin Scale   =       1.2000000000000000 [-]
	 SCS Same-Spin Energy      =      -0.1109357054480180 [Eh]
	 SCS Opposite-Spin Energy  =      -1.3276096564275470 [Eh]
	 SCS Correlation Energy    =      -1.4385453618755650 [Eh]
	 SCS Total Energy          =    -669.1197183046024293 [Eh]
	-----------------------------------------------------------

  Dipole Moment: [D]
     X:     0.3705      Y:     0.9632      Z:    -0.0007     Total:     1.0320

*** Psi4 exiting successfully. Buy a developer a beer!
