                               Psi4 1.3.2 release

  ==> Input File <==

--------------------------------------------------------------------------
#psi4
#
memory 32 gb

molecule  {
0 1
  S        0.7163710     0.8062280    -0.0057410
  O       -0.7399125    -1.3854343     0.0082420
  C       -2.0364136     0.6811582     0.0066574
  C        1.9223760    -0.5510590    -0.0015950
  C       -0.7788880    -0.1628700     0.0040570
  C       -3.2947410    -0.2161080     0.0056640
  C        3.3341240     0.0170930    -0.0107850
  H       -2.0279500     1.3158130     0.8843350
  H       -2.0299060     1.3210850    -0.8667760
  H        1.7458030    -1.1645560     0.8835850
  H        1.7388000    -1.1758340    -0.8774310
  H       -3.3141610    -0.8622160     0.8846490
  H       -3.3163930    -0.8568630    -0.8772710
  H       -4.1940350     0.4043620     0.0085730
  H        3.5120120     0.6248690    -0.9008780
  H        3.5189980     0.6365110     0.8698160
  H        4.0585630    -0.8014520    -0.0081370
units angstrom
no_reorient  #important for SAPT in psi4, default
symmetry c1  #important for SAPT in psi4, default
}

set PROPERTIES_ORIGIN ["COM"]
properties('MP2/aug-cc-pvtz', properties = ['dipole'])
--------------------------------------------------------------------------

    Molecular point group: c1
  Charge       = 0
  Multiplicity = 1
  Basis Set: AUG-CC-PVTZ
    Blend: AUG-CC-PVTZ
  Basis Set: (AUG-CC-PVTZ AUX)
    Blend: AUG-CC-PVTZ-JKFIT

    Orbital Energies [Eh]
    ---------------------

    Doubly Occupied:

       1A    -91.963758     2A    -20.554758     3A    -11.360681
       4A    -11.260244     5A    -11.247907     6A    -11.229299
       7A    -11.223027     8A     -8.965694     9A     -6.646885
      10A     -6.645773    11A     -6.645120    12A     -1.390669
      13A     -1.086928    14A     -1.059719    15A     -0.975460
      16A     -0.891330    17A     -0.821844    18A     -0.729074
      19A     -0.657746    20A     -0.644498    21A     -0.633314
      22A     -0.628769    23A     -0.560649    24A     -0.548691
      25A     -0.541193    26A     -0.524614    27A     -0.512564
      28A     -0.509233    29A     -0.497800    30A     -0.458472
      31A     -0.405383    32A     -0.366063

  @DF-RHF Final Energy:  -667.67998957205054

   => Energetics <=

    Nuclear Repulsion Energy =            369.5938591351912805
    One-Electron Energy =               -1650.1733768089156911
    Two-Electron Energy =                 612.8995281016739227
    Total Energy =                       -667.6799895720505447
  Basis Set: (AUG-CC-PVTZ AUX)
    Blend: AUG-CC-PVTZ-RI
    Molecular point group: c1

    Geometry (in Angstrom), charge = 0, multiplicity = 1:

       Center              X                  Y                   Z               Mass
    ------------   -----------------  -----------------  -----------------  -----------------
         S            0.712001192815     0.803917051236    -0.005713280663    31.972071174400
         O           -0.744282307185    -1.387745248764     0.008269719337    15.994914619570
         C           -2.040783407185     0.678847251236     0.006685119337    12.000000000000
         C            1.918006192815    -0.553369948764    -0.001567280663    12.000000000000
         C           -0.783257807185    -0.165180948764     0.004084719337    12.000000000000
         C           -3.299110807185    -0.218418948764     0.005691719337    12.000000000000
         C            3.329754192815     0.014782051236    -0.010757280663    12.000000000000
         H           -2.032319807185     1.313502051236     0.884362719337     1.007825032230
         H           -2.034275807185     1.318774051236    -0.866748280663     1.007825032230
         H            1.741433192815    -1.166866948764     0.883612719337     1.007825032230
         H            1.734430192815    -1.178144948764    -0.877403280663     1.007825032230
         H           -3.318530807185    -0.864526948764     0.884676719337     1.007825032230
         H           -3.320762807185    -0.859173948764    -0.877243280663     1.007825032230
         H           -4.198404807185     0.402051051236     0.008600719337     1.007825032230
         H            3.507642192815     0.622558051236    -0.900850280663     1.007825032230
         H            3.514628192815     0.634200051236     0.869843719337     1.007825032230
         H            4.054193192815    -0.803762948764    -0.008109280663     1.007825032230

  Basis Set: AUG-CC-PVTZ
    Blend: AUG-CC-PVTZ
  Basis Set: (AUG-CC-PVTZ AUX)
    Blend: AUG-CC-PVTZ-JKFIT
	 Reference Energy          =    -667.6799895720505447 [Eh]
	 Singles Energy            =      -0.0000000000000000 [Eh]
	 Same-Spin Energy          =      -0.3335635622717363 [Eh]
	 Opposite-Spin Energy      =      -1.1076381871801586 [Eh]
	 Correlation Energy        =      -1.4412017494518949 [Eh]
	 Total Energy              =    -669.1211913215024651 [Eh]

	 ================> DF-SCS-MP2 Energies <==================
	-----------------------------------------------------------
	 SCS Same-Spin Scale       =       0.3333333333333333 [-]
	 SCS Opposite-Spin Scale   =       1.2000000000000000 [-]
	 SCS Same-Spin Energy      =      -0.1111878540905788 [Eh]
	 SCS Opposite-Spin Energy  =      -1.3291658246161904 [Eh]
	 SCS Correlation Energy    =      -1.4403536787067692 [Eh]
	 SCS Total Energy          =    -669.1203432507572870 [Eh]
	-----------------------------------------------------------

  Dipole Moment: [D]
     X:     0.2713      Y:     1.0563      Z:    -0.0006     Total:     1.0906

*** Psi4 exiting successfully. Buy a developer a beer!
