                               Psi4 1.3.2 release

  ==> Input File <==

--------------------------------------------------------------------------
#psi4
#
memory 32 gb

molecule  {
0 1
  S        0.7163710     0.8062280    -0.0057410
  O       -0.7612550    -1.3859280     0.0083390
  C       -2.0509520     0.6590830     0.0068010
  C        1.9223760    -0.5510590    -0.0015950
  C       -0.7572576    -0.1257926     0.0707236
  C       -3.2947410    -0.2161080     0.0056640
  C        3.3341240     0.0170930    -0.0107850
  H       -1.9769207     1.2933368     0.8979412
  H       -2.0299060     1.3210850    -0.8667760
  H        1.7458030    -1.1645560     0.8835850
  H        1.7388000    -1.1758340    -0.8774310
  H       -3.3141610    -0.8622160     0.8846490
  H       -3.3163930    -0.8568630    -0.8772710
  H       -4.1940350     0.4043620     0.0085730
  H        3.5120120     0.6248690    -0.9008780
  H        3.5189980     0.6365110     0.8698160
  H        4.0585630    -0.8014520    -0.0081370
units angstrom
no_reorient  #important for SAPT in psi4, default
symmetry c1  #important for SAPT in psi4, default
}

set PROPERTIES_ORIGIN ["COM"]
properties('MP2/aug-cc-pvtz', properties = ['dipole'])
--------------------------------------------------------------------------

    Molecular point group: c1
  Charge       = 0
  Multiplicity = 1
  Basis Set: AUG-CC-PVTZ
    Blend: AUG-CC-PVTZ
  Basis Set: (AUG-CC-PVTZ AUX)
    Blend: AUG-CC-PVTZ-JKFIT

    Orbital Energies [Eh]
    ---------------------

    Doubly Occupied:

       1A    -91.971287     2A    -20.546363     3A    -11.360079
       4A    -11.263921     5A    -11.247924     6A    -11.232177
       7A    -11.220636     8A     -8.973525     9A     -6.654789
      10A     -6.653588    11A     -6.652967    12A     -1.361641
      13A     -1.092579    14A     -1.060585    15A     -0.984109
      16A     -0.892894    17A     -0.825593    18A     -0.722449
      19A     -0.654072    20A     -0.642731    21A     -0.630393
      22A     -0.621501    23A     -0.562052    24A     -0.551684
      25A     -0.535450    26A     -0.520003    27A     -0.512335
      28A     -0.510030    29A     -0.485781    30A     -0.461681
      31A     -0.410336    32A     -0.370282

  @DF-RHF Final Energy:  -667.67184933223541

   => Energetics <=

    Nuclear Repulsion Energy =            369.6360743885375086
    One-Electron Energy =               -1650.2449740999531969
    Two-Electron Energy =                 612.9370503791802776
    Total Energy =                       -667.6718493322354107
  Basis Set: (AUG-CC-PVTZ AUX)
    Blend: AUG-CC-PVTZ-RI
    Molecular point group: c1

    Geometry (in Angstrom), charge = 0, multiplicity = 1:

       Center              X                  Y                   Z               Mass
    ------------   -----------------  -----------------  -----------------  -----------------
         S            0.713736450129     0.802650777064    -0.012634242512    31.972071174400
         O           -0.763889549871    -1.389505222936     0.001445757488    15.994914619570
         C           -2.053586549871     0.655505777064    -0.000092242512    12.000000000000
         C            1.919741450129    -0.554636222936    -0.008488242512    12.000000000000
         C           -0.759892149871    -0.129369822936     0.063830357488    12.000000000000
         C           -3.297375549871    -0.219685222936    -0.001229242512    12.000000000000
         C            3.331489450129     0.013515777064    -0.017678242512    12.000000000000
         H           -1.979555249871     1.289759577064     0.891047957488     1.007825032230
         H           -2.032540549871     1.317507777064    -0.873669242512     1.007825032230
         H            1.743168450129    -1.168133222936     0.876691757488     1.007825032230
         H            1.736165450129    -1.179411222936    -0.884324242512     1.007825032230
         H           -3.316795549871    -0.865793222936     0.877755757488     1.007825032230
         H           -3.319027549871    -0.860440222936    -0.884164242512     1.007825032230
         H           -4.196669549871     0.400784777064     0.001679757488     1.007825032230
         H            3.509377450129     0.621291777064    -0.907771242512     1.007825032230
         H            3.516363450129     0.632933777064     0.862922757488     1.007825032230
         H            4.055928450129    -0.805029222936    -0.015030242512     1.007825032230

  Basis Set: AUG-CC-PVTZ
    Blend: AUG-CC-PVTZ
  Basis Set: (AUG-CC-PVTZ AUX)
    Blend: AUG-CC-PVTZ-JKFIT
	 Reference Energy          =    -667.6718493322354107 [Eh]
	 Singles Energy            =      -0.0000000000000000 [Eh]
	 Same-Spin Energy          =      -0.3348391527245853 [Eh]
	 Opposite-Spin Energy      =      -1.1099352485227545 [Eh]
	 Correlation Energy        =      -1.4447744012473398 [Eh]
	 Total Energy              =    -669.1166237334826974 [Eh]

	 ================> DF-SCS-MP2 Energies <==================
	-----------------------------------------------------------
	 SCS Same-Spin Scale       =       0.3333333333333333 [-]
	 SCS Opposite-Spin Scale   =       1.2000000000000000 [-]
	 SCS Same-Spin Energy      =      -0.1116130509081951 [Eh]
	 SCS Opposite-Spin Energy  =      -1.3319222982273053 [Eh]
	 SCS Correlation Energy    =      -1.4435353491355005 [Eh]
	 SCS Total Energy          =    -669.1153846813708697 [Eh]
	-----------------------------------------------------------

  Dipole Moment: [D]
     X:     0.6451      Y:     1.2442      Z:    -0.0057     Total:     1.4015

*** Psi4 exiting successfully. Buy a developer a beer!
