                               Psi4 1.3.2 release

  ==> Input File <==

--------------------------------------------------------------------------
#psi4
#
memory 32 gb

molecule  {
0 1
  S        0.7163710     0.8062280    -0.0057410
  O       -0.7612550    -1.3859280     0.0083390
  C       -2.0509520     0.6590830     0.0068010
  C        1.9690098    -0.5081445    -0.0019721
  C       -0.8117994    -0.1100959     0.0038552
  C       -3.2947410    -0.2161080     0.0056640
  C        3.3341240     0.0170930    -0.0107850
  H       -2.0279500     1.3158130     0.8843350
  H       -2.0299060     1.3210850    -0.8667760
  H        1.7458030    -1.1645560     0.8835850
  H        1.7388000    -1.1758340    -0.8774310
  H       -3.3141610    -0.8622160     0.8846490
  H       -3.3163930    -0.8568630    -0.8772710
  H       -4.1940350     0.4043620     0.0085730
  H        3.5120120     0.6248690    -0.9008780
  H        3.5189980     0.6365110     0.8698160
  H        4.0585630    -0.8014520    -0.0081370
units angstrom
no_reorient  #important for SAPT in psi4, default
symmetry c1  #important for SAPT in psi4, default
}

set PROPERTIES_ORIGIN ["COM"]
properties('MP2/aug-cc-pvtz', properties = ['dipole'])
--------------------------------------------------------------------------

    Molecular point group: c1
  Charge       = 0
  Multiplicity = 1
  Basis Set: AUG-CC-PVTZ
    Blend: AUG-CC-PVTZ
  Basis Set: (AUG-CC-PVTZ AUX)
    Blend: AUG-CC-PVTZ-JKFIT

    Orbital Energies [Eh]
    ---------------------

    Doubly Occupied:

       1A    -91.968053     2A    -20.548205     3A    -11.365353
       4A    -11.265320     5A    -11.249701     6A    -11.228744
       7A    -11.223602     8A     -8.969607     9A     -6.650797
      10A     -6.649826    11A     -6.649149    12A     -1.354839
      13A     -1.095182    14A     -1.073706    15A     -0.983713
      16A     -0.899792    17A     -0.817629    18A     -0.727086
      19A     -0.657990    20A     -0.645331    21A     -0.628347
      22A     -0.622746    23A     -0.569191    24A     -0.557308
      25A     -0.532653    26A     -0.527063    27A     -0.513467
      28A     -0.505190    29A     -0.479543    30A     -0.457567
      31A     -0.410006    32A     -0.363936

  @DF-RHF Final Energy:  -667.66457902906825

   => Energetics <=

    Nuclear Repulsion Energy =            369.2842510830652714
    One-Electron Energy =               -1649.5163717301711586
    Two-Electron Energy =                 612.5675416180375805
    Total Energy =                       -667.6645790290682498
  Basis Set: (AUG-CC-PVTZ AUX)
    Blend: AUG-CC-PVTZ-RI
    Molecular point group: c1

    Geometry (in Angstrom), charge = 0, multiplicity = 1:

       Center              X                  Y                   Z               Mass
    ------------   -----------------  -----------------  -----------------  -----------------
         S            0.714976013967     0.796500706965    -0.005682173154    31.972071174400
         O           -0.762649986033    -1.395655293035     0.008397826846    15.994914619570
         C           -2.052346986033     0.649355706965     0.006859826846    12.000000000000
         C            1.967614813967    -0.517871793035    -0.001913273154    12.000000000000
         C           -0.813194386033    -0.119823193035     0.003914026846    12.000000000000
         C           -3.296135986033    -0.225835293035     0.005722826846    12.000000000000
         C            3.332729013967     0.007365706965    -0.010726173154    12.000000000000
         H           -2.029344986033     1.306085706965     0.884393826846     1.007825032230
         H           -2.031300986033     1.311357706965    -0.866717173154     1.007825032230
         H            1.744408013967    -1.174283293035     0.883643826846     1.007825032230
         H            1.737405013967    -1.185561293035    -0.877372173154     1.007825032230
         H           -3.315555986033    -0.871943293035     0.884707826846     1.007825032230
         H           -3.317787986033    -0.866590293035    -0.877212173154     1.007825032230
         H           -4.195429986033     0.394634706965     0.008631826846     1.007825032230
         H            3.510617013967     0.615141706965    -0.900819173154     1.007825032230
         H            3.517603013967     0.626783706965     0.869874826846     1.007825032230
         H            4.057168013967    -0.811179293035    -0.008078173154     1.007825032230

  Basis Set: AUG-CC-PVTZ
    Blend: AUG-CC-PVTZ
  Basis Set: (AUG-CC-PVTZ AUX)
    Blend: AUG-CC-PVTZ-JKFIT
	 Reference Energy          =    -667.6645790290682498 [Eh]
	 Singles Energy            =      -0.0000000000000000 [Eh]
	 Same-Spin Energy          =      -0.3357688690273783 [Eh]
	 Opposite-Spin Energy      =      -1.1112082631226119 [Eh]
	 Correlation Energy        =      -1.4469771321499902 [Eh]
	 Total Energy              =    -669.1115561612182319 [Eh]

	 ================> DF-SCS-MP2 Energies <==================
	-----------------------------------------------------------
	 SCS Same-Spin Scale       =       0.3333333333333333 [-]
	 SCS Opposite-Spin Scale   =       1.2000000000000000 [-]
	 SCS Same-Spin Energy      =      -0.1119229563424594 [Eh]
	 SCS Opposite-Spin Energy  =      -1.3334499157471342 [Eh]
	 SCS Correlation Energy    =      -1.4453728720895938 [Eh]
	 SCS Total Energy          =    -669.1099519011578423 [Eh]
	-----------------------------------------------------------

  Dipole Moment: [D]
     X:     0.3233      Y:     1.2425      Z:    -0.0012     Total:     1.2839

*** Psi4 exiting successfully. Buy a developer a beer!
