                               Psi4 1.3.2 release

  ==> Input File <==

--------------------------------------------------------------------------
#psi4
#
memory 32 gb

molecule  {
0 1
  S        0.7163710     0.8062280    -0.0057410
  O       -0.7612550    -1.3859280     0.0083390
  C       -2.0509520     0.6590830     0.0068010
  C        1.9223760    -0.5510590    -0.0015950
  C       -0.6948966    -0.2171416     0.0038758
  C       -3.2947410    -0.2161080     0.0056640
  C        3.3341240     0.0170930    -0.0107850
  H       -2.0279500     1.3158130     0.8843350
  H       -2.0299060     1.3210850    -0.8667760
  H        1.7458030    -1.1645560     0.8835850
  H        1.7388000    -1.1758340    -0.8774310
  H       -3.3141610    -0.8622160     0.8846490
  H       -3.3163930    -0.8568630    -0.8772710
  H       -4.1940350     0.4043620     0.0085730
  H        3.5120120     0.6248690    -0.9008780
  H        3.5189980     0.6365110     0.8698160
  H        4.0585630    -0.8014520    -0.0081370
units angstrom
no_reorient  #important for SAPT in psi4, default
symmetry c1  #important for SAPT in psi4, default
}

set PROPERTIES_ORIGIN ["COM"]
properties('MP2/aug-cc-pvtz', properties = ['dipole'])
--------------------------------------------------------------------------

    Molecular point group: c1
  Charge       = 0
  Multiplicity = 1
  Basis Set: AUG-CC-PVTZ
    Blend: AUG-CC-PVTZ
  Basis Set: (AUG-CC-PVTZ AUX)
    Blend: AUG-CC-PVTZ-JKFIT

    Orbital Energies [Eh]
    ---------------------

    Doubly Occupied:

       1A    -91.967693     2A    -20.556260     3A    -11.352597
       4A    -11.263125     5A    -11.242286     6A    -11.231166
       7A    -11.216266     8A     -8.970383     9A     -6.651632
      10A     -6.650314    11A     -6.649652    12A     -1.425975
      13A     -1.091586    14A     -1.044009    15A     -0.982711
      16A     -0.877575    17A     -0.821809    18A     -0.726859
      19A     -0.662125    20A     -0.641400    21A     -0.640979
      22A     -0.624062    23A     -0.563013    24A     -0.555019
      25A     -0.549214    26A     -0.524117    27A     -0.513028
      28A     -0.512457    29A     -0.494807    30A     -0.461001
      31A     -0.394273    32A     -0.372455

  @DF-RHF Final Energy:  -667.67533077912458

   => Energetics <=

    Nuclear Repulsion Energy =            370.3729916594580232
    One-Electron Energy =               -1651.6369459093878049
    Two-Electron Energy =                 613.5886234708052598
    Total Energy =                       -667.6753307791245788
  Basis Set: (AUG-CC-PVTZ AUX)
    Blend: AUG-CC-PVTZ-RI
    Molecular point group: c1

    Geometry (in Angstrom), charge = 0, multiplicity = 1:

       Center              X                  Y                   Z               Mass
    ------------   -----------------  -----------------  -----------------  -----------------
         S            0.707832752385     0.811745052770    -0.005722601723    31.972071174400
         O           -0.769793247615    -1.380410947230     0.008357398277    15.994914619570
         C           -2.059490247615     0.664600052770     0.006819398277    12.000000000000
         C            1.913837752385    -0.545541947230    -0.001576601723    12.000000000000
         C           -0.703434847615    -0.211624547230     0.003894198277    12.000000000000
         C           -3.303279247615    -0.210590947230     0.005682398277    12.000000000000
         C            3.325585752385     0.022610052770    -0.010766601723    12.000000000000
         H           -2.036488247615     1.321330052770     0.884353398277     1.007825032230
         H           -2.038444247615     1.326602052770    -0.866757601723     1.007825032230
         H            1.737264752385    -1.159038947230     0.883603398277     1.007825032230
         H            1.730261752385    -1.170316947230    -0.877412601723     1.007825032230
         H           -3.322699247615    -0.856698947230     0.884667398277     1.007825032230
         H           -3.324931247615    -0.851345947230    -0.877252601723     1.007825032230
         H           -4.202573247615     0.409879052770     0.008591398277     1.007825032230
         H            3.503473752385     0.630386052770    -0.900859601723     1.007825032230
         H            3.510459752385     0.642028052770     0.869834398277     1.007825032230
         H            4.050024752385    -0.795934947230    -0.008118601723     1.007825032230

  Basis Set: AUG-CC-PVTZ
    Blend: AUG-CC-PVTZ
  Basis Set: (AUG-CC-PVTZ AUX)
    Blend: AUG-CC-PVTZ-JKFIT
	 Reference Energy          =    -667.6753307791245788 [Eh]
	 Singles Energy            =      -0.0000000000000000 [Eh]
	 Same-Spin Energy          =      -0.3324864646448918 [Eh]
	 Opposite-Spin Energy      =      -1.1054900869497315 [Eh]
	 Correlation Energy        =      -1.4379765515946232 [Eh]
	 Total Energy              =    -669.1133073307191808 [Eh]

	 ================> DF-SCS-MP2 Energies <==================
	-----------------------------------------------------------
	 SCS Same-Spin Scale       =       0.3333333333333333 [-]
	 SCS Opposite-Spin Scale   =       1.2000000000000000 [-]
	 SCS Same-Spin Energy      =      -0.1108288215482973 [Eh]
	 SCS Opposite-Spin Energy  =      -1.3265881043396777 [Eh]
	 SCS Correlation Energy    =      -1.4374169258879750 [Eh]
	 SCS Total Energy          =    -669.1127477050125663 [Eh]
	-----------------------------------------------------------

  Dipole Moment: [D]
     X:     0.8103      Y:     0.9105      Z:    -0.0025     Total:     1.2188

*** Psi4 exiting successfully. Buy a developer a beer!
