                               Psi4 1.3.2 release

  ==> Input File <==

--------------------------------------------------------------------------
#psi4
#
memory 32 gb

molecule  {
0 1
  S        0.7163710     0.8062280    -0.0057410
  O       -0.7612550    -1.3859280     0.0083390
  C       -2.0509520     0.6590830     0.0068010
  C        1.9223760    -0.5510590    -0.0015950
  C       -0.7788880    -0.1628700     0.0040570
  C       -3.2947410    -0.2161080     0.0056640
  C        3.4268915     0.0544269    -0.0113889
  H       -2.0279500     1.3158130     0.8843350
  H       -2.0299060     1.3210850    -0.8667760
  H        1.7458030    -1.1645560     0.8835850
  H        1.7388000    -1.1758340    -0.8774310
  H       -3.3141610    -0.8622160     0.8846490
  H       -3.3163930    -0.8568630    -0.8772710
  H       -4.1940350     0.4043620     0.0085730
  H        3.5120120     0.6248690    -0.9008780
  H        3.5189980     0.6365110     0.8698160
  H        4.0585630    -0.8014520    -0.0081370
units angstrom
no_reorient  #important for SAPT in psi4, default
symmetry c1  #important for SAPT in psi4, default
}

set PROPERTIES_ORIGIN ["COM"]
properties('MP2/aug-cc-pvtz', properties = ['dipole'])
--------------------------------------------------------------------------

    Molecular point group: c1
  Charge       = 0
  Multiplicity = 1
  Basis Set: AUG-CC-PVTZ
    Blend: AUG-CC-PVTZ
  Basis Set: (AUG-CC-PVTZ AUX)
    Blend: AUG-CC-PVTZ-JKFIT

    Orbital Energies [Eh]
    ---------------------

    Doubly Occupied:

       1A    -91.965019     2A    -20.553213     3A    -11.359168
       4A    -11.264155     5A    -11.247382     6A    -11.228460
       7A    -11.220836     8A     -8.966694     9A     -6.647900
      10A     -6.646798    11A     -6.646151    12A     -1.389577
      13A     -1.080740    14A     -1.056135    15A     -0.974457
      16A     -0.893498    17A     -0.823727    18A     -0.726358
      19A     -0.656636    20A     -0.641431    21A     -0.631826
      22A     -0.628081    23A     -0.574772    24A     -0.547452
      25A     -0.543601    26A     -0.522121    27A     -0.519822
      28A     -0.494202    29A     -0.490588    30A     -0.462850
      31A     -0.405113    32A     -0.366045

  @DF-RHF Final Energy:  -667.67353995473093

   => Energetics <=

    Nuclear Repulsion Energy =            368.0672071668280978
    One-Electron Energy =               -1647.1318824662241695
    Two-Electron Energy =                 611.3911353446652583
    Total Energy =                       -667.6735399547309271
  Basis Set: (AUG-CC-PVTZ AUX)
    Blend: AUG-CC-PVTZ-RI
    Molecular point group: c1

    Geometry (in Angstrom), charge = 0, multiplicity = 1:

       Center              X                  Y                   Z               Mass
    ------------   -----------------  -----------------  -----------------  -----------------
         S            0.706940609649     0.802432809124    -0.005679631755    31.972071174400
         O           -0.770685390351    -1.389723190876     0.008400368245    15.994914619570
         C           -2.060382390351     0.655287809124     0.006862368245    12.000000000000
         C            1.912945609649    -0.554854190876    -0.001533631755    12.000000000000
         C           -0.788318390351    -0.166665190876     0.004118368245    12.000000000000
         C           -3.304171390351    -0.219903190876     0.005725368245    12.000000000000
         C            3.417461109649     0.050631709124    -0.011327531755    12.000000000000
         H           -2.037380390351     1.312017809124     0.884396368245     1.007825032230
         H           -2.039336390351     1.317289809124    -0.866714631755     1.007825032230
         H            1.736372609649    -1.168351190876     0.883646368245     1.007825032230
         H            1.729369609649    -1.179629190876    -0.877369631755     1.007825032230
         H           -3.323591390351    -0.866011190876     0.884710368245     1.007825032230
         H           -3.325823390351    -0.860658190876    -0.877209631755     1.007825032230
         H           -4.203465390351     0.400566809124     0.008634368245     1.007825032230
         H            3.502581609649     0.621073809124    -0.900816631755     1.007825032230
         H            3.509567609649     0.632715809124     0.869877368245     1.007825032230
         H            4.049132609649    -0.805247190876    -0.008075631755     1.007825032230

  Basis Set: AUG-CC-PVTZ
    Blend: AUG-CC-PVTZ
  Basis Set: (AUG-CC-PVTZ AUX)
    Blend: AUG-CC-PVTZ-JKFIT
	 Reference Energy          =    -667.6735399547309271 [Eh]
	 Singles Energy            =      -0.0000000000000000 [Eh]
	 Same-Spin Energy          =      -0.3333103852181968 [Eh]
	 Opposite-Spin Energy      =      -1.1076720536591429 [Eh]
	 Correlation Energy        =      -1.4409824388773398 [Eh]
	 Total Energy              =    -669.1145223936082402 [Eh]

	 ================> DF-SCS-MP2 Energies <==================
	-----------------------------------------------------------
	 SCS Same-Spin Scale       =       0.3333333333333333 [-]
	 SCS Opposite-Spin Scale   =       1.2000000000000000 [-]
	 SCS Same-Spin Energy      =      -0.1111034617393989 [Eh]
	 SCS Opposite-Spin Energy  =      -1.3292064643909713 [Eh]
	 SCS Correlation Energy    =      -1.4403099261303702 [Eh]
	 SCS Total Energy          =    -669.1138498808612667 [Eh]
	-----------------------------------------------------------

  Dipole Moment: [D]
     X:     0.3731      Y:     1.0611      Z:    -0.0009     Total:     1.1248

*** Psi4 exiting successfully. Buy a developer a beer!
