                               Psi4 1.4a2.dev612

  ==> Input File <==

--------------------------------------------------------------------------
#psi4
#
memory 32 gb

molecule  {
-1 1
  O       -1.6024110     1.2883820    -0.5634480
  O        2.0191420    -1.7287390     0.1939930
  O        3.3803020    -0.0587520    -0.5397320
  N       -0.1147610    -0.2476350     0.2334190
  C        1.0875530     0.4615680    -0.1724770
  C        1.3782960     1.6508690     0.7367710
  C       -2.4731170    -0.8032840     0.3122730
  C       -1.3649450     0.1785500    -0.0525630
  C        2.2731730    -0.5407160    -0.1753640
  C       -3.8468580    -0.3344400    -0.1480570
  H        0.9550610     0.8289670    -1.1997950
  H        0.0683050    -1.1531076     0.6516673
  H        1.5293690     1.3045580     1.7644240
  H        2.2851470     2.1591780     0.4026320
  H        0.5420990     2.3541860     0.7225810
  H       -2.2325720    -1.7800520    -0.1237300
  H       -2.4588320    -0.9441430     1.3993390
  H       -4.0995650     0.6270340     0.3028840
  H       -3.8738130    -0.2132220    -1.2332140
  H       -4.6116960    -1.0622230     0.1365660
units angstrom
no_reorient  #important for SAPT in psi4, default
symmetry c1  #important for SAPT in psi4, default
}

set PROPERTIES_ORIGIN ["COM"]
properties('MP2/aug-cc-pvtz', properties = ['dipole'])
--------------------------------------------------------------------------

    Molecular point group: c1
  Charge       = -1
  Multiplicity = 1
  Basis Set: AUG-CC-PVTZ
    Blend: AUG-CC-PVTZ
  Basis Set: (AUG-CC-PVTZ AUX)
    Blend: AUG-CC-PVTZ-JKFIT

    Orbital Energies [Eh]
    ---------------------

    Doubly Occupied:

       1A    -20.391064     2A    -20.320615     3A    -20.312890
       4A    -15.439160     5A    -11.223927     6A    -11.160862
       7A    -11.135238     8A    -11.124279     9A    -11.115057
      10A    -11.075793    11A     -1.241255    12A     -1.189235
      13A     -1.096017    14A     -1.080835    15A     -0.949234
      16A     -0.878656    17A     -0.783890    18A     -0.720959
      19A     -0.644125    20A     -0.588697    21A     -0.541834
      22A     -0.532003    23A     -0.510715    24A     -0.481071
      25A     -0.463022    26A     -0.442313    27A     -0.426875
      28A     -0.418978    29A     -0.413025    30A     -0.404048
      31A     -0.397112    32A     -0.374946    33A     -0.371356
      34A     -0.340699    35A     -0.299179    36A     -0.257069
      37A     -0.235094    38A     -0.221512    39A     -0.214255

  @DF-RHF Final Energy:  -512.33511096687732

   => Energetics <=

    Nuclear Repulsion Energy =            533.3576029794836586
    One-Electron Energy =               -1771.7516466244303501
    Two-Electron Energy =                 726.0589326780692545
    Total Energy =                       -512.3351109668773233
  Basis Set: (AUG-CC-PVTZ AUX)
    Blend: AUG-CC-PVTZ-RI
    Molecular point group: c1

    Geometry (in Angstrom), charge = -1, multiplicity = 1:

       Center              X                  Y                   Z               Mass
    ------------   -----------------  -----------------  -----------------  -----------------
         O           -1.684219635044     1.302004356956    -0.546640837847    15.994914619570
         O            1.937333364956    -1.715116643044     0.210800162153    15.994914619570
         O            3.298493364956    -0.045129643044    -0.522924837847    15.994914619570
         N           -0.196569635044    -0.234012643044     0.250226162153    14.003074004430
         C            1.005744364956     0.475190356956    -0.155669837847    12.000000000000
         C            1.296487364956     1.664491356956     0.753578162153    12.000000000000
         C           -2.554925635044    -0.789661643044     0.329080162153    12.000000000000
         C           -1.446753635044     0.192172356956    -0.035755837847    12.000000000000
         C            2.191364364956    -0.527093643044    -0.158556837847    12.000000000000
         C           -3.928666635044    -0.320817643044    -0.131249837847    12.000000000000
         H            0.873252364956     0.842589356956    -1.182987837847     1.007825032230
         H           -0.013503635044    -1.139485243044     0.668474462153     1.007825032230
         H            1.447560364956     1.318180356956     1.781231162153     1.007825032230
         H            2.203338364956     2.172800356956     0.419439162153     1.007825032230
         H            0.460290364956     2.367808356956     0.739388162153     1.007825032230
         H           -2.314380635044    -1.766429643044    -0.106922837847     1.007825032230
         H           -2.540640635044    -0.930520643044     1.416146162153     1.007825032230
         H           -4.181373635044     0.640656356956     0.319691162153     1.007825032230
         H           -3.955621635044    -0.199599643044    -1.216406837847     1.007825032230
         H           -4.693504635044    -1.048600643044     0.153373162153     1.007825032230

  Basis Set: AUG-CC-PVTZ
    Blend: AUG-CC-PVTZ
  Basis Set: (AUG-CC-PVTZ AUX)
    Blend: AUG-CC-PVTZ-JKFIT
	 Reference Energy          =    -512.3351109668773233 [Eh]
	 Singles Energy            =      -0.0000000000000000 [Eh]
	 Same-Spin Energy          =      -0.5200302208702008 [Eh]
	 Opposite-Spin Energy      =      -1.6211161637924938 [Eh]
	 Correlation Energy        =      -2.1411463846626946 [Eh]
	 Total Energy              =    -514.4762573515399708 [Eh]

	 ================> DF-SCS-MP2 Energies <==================
	-----------------------------------------------------------
	 SCS Same-Spin Scale       =       0.3333333333333333 [-]
	 SCS Opposite-Spin Scale   =       1.2000000000000000 [-]
	 SCS Same-Spin Energy      =      -0.1733434069567336 [Eh]
	 SCS Opposite-Spin Energy  =      -1.9453393965509924 [Eh]
	 SCS Correlation Energy    =      -2.1186828035077259 [Eh]
	 SCS Total Energy          =    -514.4537937703850048 [Eh]
	-----------------------------------------------------------

  Dipole Moment: [D]
     X:    -8.7080      Y:     0.6936      Z:     1.8140     Total:     8.9220

*** Psi4 exiting successfully. Buy a developer a beer!
