                               Psi4 1.4a2.dev612

  ==> Input File <==

--------------------------------------------------------------------------
#psi4
#
memory 32 gb

molecule  {
-1 1
  O       -1.6024110     1.2883820    -0.5634480
  O        2.0191420    -1.7287390     0.1939930
  O        3.3803020    -0.0587520    -0.5397320
  N       -0.1147610    -0.2476350     0.2334190
  C        1.0875530     0.4615680    -0.1724770
  C        1.3782960     1.6508690     0.7367710
  C       -2.4731170    -0.8032840     0.3122730
  C       -1.3649450     0.1785500    -0.0525630
  C        2.2731730    -0.5407160    -0.1753640
  C       -3.8468580    -0.3344400    -0.1480570
  H        0.9550610     0.8289670    -1.1997950
  H        0.0680395    -1.1706454     0.6048447
  H        1.5293690     1.3045580     1.7644240
  H        2.2851470     2.1591780     0.4026320
  H        0.5420990     2.3541860     0.7225810
  H       -2.2325720    -1.7800520    -0.1237300
  H       -2.4588320    -0.9441430     1.3993390
  H       -4.0995650     0.6270340     0.3028840
  H       -3.8738130    -0.2132220    -1.2332140
  H       -4.6116960    -1.0622230     0.1365660
units angstrom
no_reorient  #important for SAPT in psi4, default
symmetry c1  #important for SAPT in psi4, default
}

set PROPERTIES_ORIGIN ["COM"]
properties('MP2/aug-cc-pvtz', properties = ['dipole'])
--------------------------------------------------------------------------

    Molecular point group: c1
  Charge       = -1
  Multiplicity = 1
  Basis Set: AUG-CC-PVTZ
    Blend: AUG-CC-PVTZ
  Basis Set: (AUG-CC-PVTZ AUX)
    Blend: AUG-CC-PVTZ-JKFIT

    Orbital Energies [Eh]
    ---------------------

    Doubly Occupied:

       1A    -20.391135     2A    -20.321091     3A    -20.313139
       4A    -15.438651     5A    -11.223848     6A    -11.161185
       7A    -11.135288     8A    -11.124304     9A    -11.115009
      10A    -11.075730    11A     -1.241308    12A     -1.189625
      13A     -1.096387    14A     -1.081105    15A     -0.949264
      16A     -0.878666    17A     -0.783973    18A     -0.720975
      19A     -0.643862    20A     -0.588843    21A     -0.541918
      22A     -0.532260    23A     -0.510964    24A     -0.481561
      25A     -0.463734    26A     -0.441357    27A     -0.426704
      28A     -0.419093    29A     -0.413175    30A     -0.404053
      31A     -0.397049    32A     -0.375248    33A     -0.371103
      34A     -0.340920    35A     -0.299237    36A     -0.257057
      37A     -0.235632    38A     -0.221943    39A     -0.214629

  @DF-RHF Final Energy:  -512.33569294395716

   => Energetics <=

    Nuclear Repulsion Energy =            533.3933173262423679
    One-Electron Energy =               -1771.8159721483236808
    Two-Electron Energy =                 726.0869618781241570
    Total Energy =                       -512.3356929439571559
  Basis Set: (AUG-CC-PVTZ AUX)
    Blend: AUG-CC-PVTZ-RI
    Molecular point group: c1

    Geometry (in Angstrom), charge = -1, multiplicity = 1:

       Center              X                  Y                   Z               Mass
    ------------   -----------------  -----------------  -----------------  -----------------
         O           -1.684217777719     1.302127043957    -0.546313286821    15.994914619570
         O            1.937335222281    -1.714993956043     0.211127713179    15.994914619570
         O            3.298495222281    -0.045006956043    -0.522597286821    15.994914619570
         N           -0.196567777719    -0.233889956043     0.250553713179    14.003074004430
         C            1.005746222281     0.475313043957    -0.155342286821    12.000000000000
         C            1.296489222281     1.664614043957     0.753905713179    12.000000000000
         C           -2.554923777719    -0.789538956043     0.329407713179    12.000000000000
         C           -1.446751777719     0.192295043957    -0.035428286821    12.000000000000
         C            2.191366222281    -0.526970956043    -0.158229286821    12.000000000000
         C           -3.928664777719    -0.320694956043    -0.130922286821    12.000000000000
         H            0.873254222281     0.842712043957    -1.182660286821     1.007825032230
         H           -0.013767277719    -1.156900356043     0.621979413179     1.007825032230
         H            1.447562222281     1.318303043957     1.781558713179     1.007825032230
         H            2.203340222281     2.172923043957     0.419766713179     1.007825032230
         H            0.460292222281     2.367931043957     0.739715713179     1.007825032230
         H           -2.314378777719    -1.766306956043    -0.106595286821     1.007825032230
         H           -2.540638777719    -0.930397956043     1.416473713179     1.007825032230
         H           -4.181371777719     0.640779043957     0.320018713179     1.007825032230
         H           -3.955619777719    -0.199476956043    -1.216079286821     1.007825032230
         H           -4.693502777719    -1.048477956043     0.153700713179     1.007825032230

  Basis Set: AUG-CC-PVTZ
    Blend: AUG-CC-PVTZ
  Basis Set: (AUG-CC-PVTZ AUX)
    Blend: AUG-CC-PVTZ-JKFIT
	 Reference Energy          =    -512.3356929439571559 [Eh]
	 Singles Energy            =      -0.0000000000000000 [Eh]
	 Same-Spin Energy          =      -0.5200267473063724 [Eh]
	 Opposite-Spin Energy      =      -1.6210923610239889 [Eh]
	 Correlation Energy        =      -2.1411191083303613 [Eh]
	 Total Energy              =    -514.4768120522875279 [Eh]

	 ================> DF-SCS-MP2 Energies <==================
	-----------------------------------------------------------
	 SCS Same-Spin Scale       =       0.3333333333333333 [-]
	 SCS Opposite-Spin Scale   =       1.2000000000000000 [-]
	 SCS Same-Spin Energy      =      -0.1733422491021241 [Eh]
	 SCS Opposite-Spin Energy  =      -1.9453108332287865 [Eh]
	 SCS Correlation Energy    =      -2.1186530823309107 [Eh]
	 SCS Total Energy          =    -514.4543460262880217 [Eh]
	-----------------------------------------------------------

  Dipole Moment: [D]
     X:    -8.7002      Y:     0.6733      Z:     1.7611     Total:     8.9021

*** Psi4 exiting successfully. Buy a developer a beer!
