                               Psi4 1.4a2.dev612

  ==> Input File <==

--------------------------------------------------------------------------
#psi4
#
memory 32 gb

molecule  {
-1 1
  O       -1.6024110     1.2883820    -0.5634480
  O        2.0191420    -1.7287390     0.1939930
  O        3.3803020    -0.0587520    -0.5397320
  N       -0.1147610    -0.2476350     0.2334190
  C        1.1394553     0.5232381     0.0641724
  C        1.3782960     1.6508690     0.7367710
  C       -2.4731170    -0.8032840     0.3122730
  C       -1.3649450     0.1785500    -0.0525630
  C        2.2731730    -0.5407160    -0.1753640
  C       -3.8468580    -0.3344400    -0.1480570
  H        0.9550610     0.8289670    -1.1997950
  H        0.0672430    -1.2232590     0.4643770
  H        1.5293690     1.3045580     1.7644240
  H        2.2851470     2.1591780     0.4026320
  H        0.5420990     2.3541860     0.7225810
  H       -2.2325720    -1.7800520    -0.1237300
  H       -2.4588320    -0.9441430     1.3993390
  H       -4.0995650     0.6270340     0.3028840
  H       -3.8738130    -0.2132220    -1.2332140
  H       -4.6116960    -1.0622230     0.1365660
units angstrom
no_reorient  #important for SAPT in psi4, default
symmetry c1  #important for SAPT in psi4, default
}

set PROPERTIES_ORIGIN ["COM"]
properties('MP2/aug-cc-pvtz', properties = ['dipole'])
--------------------------------------------------------------------------

    Molecular point group: c1
  Charge       = -1
  Multiplicity = 1
  Basis Set: AUG-CC-PVTZ
    Blend: AUG-CC-PVTZ
  Basis Set: (AUG-CC-PVTZ AUX)
    Blend: AUG-CC-PVTZ-JKFIT

    Orbital Energies [Eh]
    ---------------------

    Doubly Occupied:

       1A    -20.390195     2A    -20.324305     3A    -20.315191
       4A    -15.439895     5A    -11.222795     6A    -11.168101
       7A    -11.134910     8A    -11.128439     9A    -11.123621
      10A    -11.072470    11A     -1.239263    12A     -1.191975
      13A     -1.095886    14A     -1.080644    15A     -0.953308
      16A     -0.919701    17A     -0.787280    18A     -0.713327
      19A     -0.630212    20A     -0.586828    21A     -0.546116
      22A     -0.529963    23A     -0.502868    24A     -0.492415
      25A     -0.485045    26A     -0.445836    27A     -0.430068
      28A     -0.425943    29A     -0.413702    30A     -0.411322
      31A     -0.393456    32A     -0.385324    33A     -0.372147
      34A     -0.308867    35A     -0.295672    36A     -0.248946
      37A     -0.232389    38A     -0.219772    39A     -0.213113

  @DF-RHF Final Energy:  -512.27053958162401

   => Energetics <=

    Nuclear Repulsion Energy =            533.9767863274934143
    One-Electron Energy =               -1772.7520417514181190
    Two-Electron Energy =                 726.5047158423005840
    Total Energy =                       -512.2705395816240070
  Basis Set: (AUG-CC-PVTZ AUX)
    Blend: AUG-CC-PVTZ-RI
    Molecular point group: c1

    Geometry (in Angstrom), charge = -1, multiplicity = 1:

       Center              X                  Y                   Z               Mass
    ------------   -----------------  -----------------  -----------------  -----------------
         O           -1.688535413892     1.297358288166    -0.565042373897    15.994914619570
         O            1.933017586108    -1.719762711834     0.192398626103    15.994914619570
         O            3.294177586108    -0.049775711834    -0.541326373897    15.994914619570
         N           -0.200885413892    -0.238658711834     0.231824626103    14.003074004430
         C            1.053330886108     0.532214388166     0.062578026103    12.000000000000
         C            1.292171586108     1.659845288166     0.735176626103    12.000000000000
         C           -2.559241413892    -0.794307711834     0.310678626103    12.000000000000
         C           -1.451069413892     0.187526288166    -0.054157373897    12.000000000000
         C            2.187048586108    -0.531739711834    -0.176958373897    12.000000000000
         C           -3.932982413892    -0.325463711834    -0.149651373897    12.000000000000
         H            0.868936586108     0.837943288166    -1.201389373897     1.007825032230
         H           -0.018881413892    -1.214282711834     0.462782626103     1.007825032230
         H            1.443244586108     1.313534288166     1.762829626103     1.007825032230
         H            2.199022586108     2.168154288166     0.401037626103     1.007825032230
         H            0.455974586108     2.363162288166     0.720986626103     1.007825032230
         H           -2.318696413892    -1.771075711834    -0.125324373897     1.007825032230
         H           -2.544956413892    -0.935166711834     1.397744626103     1.007825032230
         H           -4.185689413892     0.636010288166     0.301289626103     1.007825032230
         H           -3.959937413892    -0.204245711834    -1.234808373897     1.007825032230
         H           -4.697820413892    -1.053246711834     0.134971626103     1.007825032230

  Basis Set: AUG-CC-PVTZ
    Blend: AUG-CC-PVTZ
  Basis Set: (AUG-CC-PVTZ AUX)
    Blend: AUG-CC-PVTZ-JKFIT
	 Reference Energy          =    -512.2705395816240070 [Eh]
	 Singles Energy            =      -0.0000000000000000 [Eh]
	 Same-Spin Energy          =      -0.5233975575791299 [Eh]
	 Opposite-Spin Energy      =      -1.6267110359528520 [Eh]
	 Correlation Energy        =      -2.1501085935319821 [Eh]
	 Total Energy              =    -514.4206481751559750 [Eh]

	 ================> DF-SCS-MP2 Energies <==================
	-----------------------------------------------------------
	 SCS Same-Spin Scale       =       0.3333333333333333 [-]
	 SCS Opposite-Spin Scale   =       1.2000000000000000 [-]
	 SCS Same-Spin Energy      =      -0.1744658525263766 [Eh]
	 SCS Opposite-Spin Energy  =      -1.9520532431434223 [Eh]
	 SCS Correlation Energy    =      -2.1265190956697988 [Eh]
	 SCS Total Energy          =    -514.3970586772937850 [Eh]
	-----------------------------------------------------------

  Dipole Moment: [D]
     X:    -8.4433      Y:     0.7844      Z:     2.1201     Total:     8.7407

*** Psi4 exiting successfully. Buy a developer a beer!
