                               Psi4 1.4a2.dev612

  ==> Input File <==

--------------------------------------------------------------------------
#psi4
#
memory 32 gb

molecule  {
-1 1
  O       -1.6024110     1.2883820    -0.5634480
  O        2.0191420    -1.7287390     0.1939930
  O        3.3803020    -0.0587520    -0.5397320
  N       -0.1147610    -0.2476350     0.2334190
  C        1.0875530     0.4615680    -0.1724770
  C        1.3782960     1.6508690     0.7367710
  C       -2.4533719    -0.9258464     0.0391639
  C       -1.3649450     0.1785500    -0.0525630
  C        2.2731730    -0.5407160    -0.1753640
  C       -3.8468580    -0.3344400    -0.1480570
  H        0.9550610     0.8289670    -1.1997950
  H        0.0672430    -1.2232590     0.4643770
  H        1.5293690     1.3045580     1.7644240
  H        2.2851470     2.1591780     0.4026320
  H        0.5420990     2.3541860     0.7225810
  H       -2.2325720    -1.7800520    -0.1237300
  H       -2.4588320    -0.9441430     1.3993390
  H       -4.0995650     0.6270340     0.3028840
  H       -3.8738130    -0.2132220    -1.2332140
  H       -4.6116960    -1.0622230     0.1365660
units angstrom
no_reorient  #important for SAPT in psi4, default
symmetry c1  #important for SAPT in psi4, default
}

set PROPERTIES_ORIGIN ["COM"]
properties('MP2/aug-cc-pvtz', properties = ['dipole'])
--------------------------------------------------------------------------

    Molecular point group: c1
  Charge       = -1
  Multiplicity = 1
  Basis Set: AUG-CC-PVTZ
    Blend: AUG-CC-PVTZ
  Basis Set: (AUG-CC-PVTZ AUX)
    Blend: AUG-CC-PVTZ-JKFIT

    Orbital Energies [Eh]
    ---------------------

    Doubly Occupied:

       1A    -20.394346     2A    -20.322512     3A    -20.314140
       4A    -15.437455     5A    -11.231519     6A    -11.162377
       7A    -11.147990     8A    -11.130880     9A    -11.115403
      10A    -11.075243    11A     -1.243537    12A     -1.190889
      13A     -1.096981    14A     -1.081540    15A     -0.954268
      16A     -0.878957    17A     -0.790003    18A     -0.728018
      19A     -0.646307    20A     -0.607261    21A     -0.549776
      22A     -0.517017    23A     -0.508987    24A     -0.485186
      25A     -0.465819    26A     -0.463516    27A     -0.433902
      28A     -0.426768    29A     -0.416172    30A     -0.403591
      31A     -0.381220    32A     -0.370950    33A     -0.345333
      34A     -0.328344    35A     -0.296708    36A     -0.254955
      37A     -0.237268    38A     -0.223469    39A     -0.215841

  @DF-RHF Final Energy:  -512.24801182474164

   => Energetics <=

    Nuclear Repulsion Energy =            533.1240941081512119
    One-Electron Energy =               -1770.9953102655861130
    Two-Electron Energy =                 725.6232043326932626
    Total Energy =                       -512.2480118247416385
  Basis Set: (AUG-CC-PVTZ AUX)
    Blend: AUG-CC-PVTZ-RI
    Molecular point group: c1

    Geometry (in Angstrom), charge = -1, multiplicity = 1:

       Center              X                  Y                   Z               Mass
    ------------   -----------------  -----------------  -----------------  -----------------
         O           -1.685856876157     1.312703955802    -0.522581980016    15.994914619570
         O            1.935696123843    -1.704417044198     0.234859019984    15.994914619570
         O            3.296856123843    -0.034430044198    -0.498865980016    15.994914619570
         N           -0.198206876157    -0.223313044198     0.274285019984    14.003074004430
         C            1.004107123843     0.485889955802    -0.131610980016    12.000000000000
         C            1.294850123843     1.675190955802     0.777637019984    12.000000000000
         C           -2.536817776157    -0.901524444198     0.080029919984    12.000000000000
         C           -1.448390876157     0.202871955802    -0.011696980016    12.000000000000
         C            2.189727123843    -0.516394044198    -0.134497980016    12.000000000000
         C           -3.930303876157    -0.310118044198    -0.107190980016    12.000000000000
         H            0.871615123843     0.853288955802    -1.158928980016     1.007825032230
         H           -0.016202876157    -1.198937044198     0.505243019984     1.007825032230
         H            1.445923123843     1.328879955802     1.805290019984     1.007825032230
         H            2.201701123843     2.183499955802     0.443498019984     1.007825032230
         H            0.458653123843     2.378507955802     0.763447019984     1.007825032230
         H           -2.316017876157    -1.755730044198    -0.082863980016     1.007825032230
         H           -2.542277876157    -0.919821044198     1.440205019984     1.007825032230
         H           -4.183010876157     0.651355955802     0.343750019984     1.007825032230
         H           -3.957258876157    -0.188900044198    -1.192347980016     1.007825032230
         H           -4.695141876157    -1.037901044198     0.177432019984     1.007825032230

  Basis Set: AUG-CC-PVTZ
    Blend: AUG-CC-PVTZ
  Basis Set: (AUG-CC-PVTZ AUX)
    Blend: AUG-CC-PVTZ-JKFIT
	 Reference Energy          =    -512.2480118247416385 [Eh]
	 Singles Energy            =      -0.0000000000000000 [Eh]
	 Same-Spin Energy          =      -0.5215061300941299 [Eh]
	 Opposite-Spin Energy      =      -1.6257922214233758 [Eh]
	 Correlation Energy        =      -2.1472983515175059 [Eh]
	 Total Energy              =    -514.3953101762591587 [Eh]

	 ================> DF-SCS-MP2 Energies <==================
	-----------------------------------------------------------
	 SCS Same-Spin Scale       =       0.3333333333333333 [-]
	 SCS Opposite-Spin Scale   =       1.2000000000000000 [-]
	 SCS Same-Spin Energy      =      -0.1738353766980433 [Eh]
	 SCS Opposite-Spin Energy  =      -1.9509506657080509 [Eh]
	 SCS Correlation Energy    =      -2.1247860424060940 [Eh]
	 SCS Total Energy          =    -514.3727978671477103 [Eh]
	-----------------------------------------------------------

  Dipole Moment: [D]
     X:    -8.6999      Y:     0.5992      Z:     1.2587     Total:     8.8109

*** Psi4 exiting successfully. Buy a developer a beer!
