                               Psi4 1.4a2.dev612

  ==> Input File <==

--------------------------------------------------------------------------
#psi4
#
memory 32 gb

molecule  {
-1 1
  O       -1.6024110     1.2883820    -0.5634480
  O        2.0191420    -1.7287390     0.1939930
  O        3.3803020    -0.0587520    -0.5397320
  N       -0.1147610    -0.2476350     0.2334190
  C        1.1290748     0.5109041     0.0168425
  C        1.3782960     1.6508690     0.7367710
  C       -2.4731170    -0.8032840     0.3122730
  C       -1.3649450     0.1785500    -0.0525630
  C        2.2731730    -0.5407160    -0.1753640
  C       -3.8468580    -0.3344400    -0.1480570
  H        0.9550610     0.8289670    -1.1997950
  H        0.0672430    -1.2232590     0.4643770
  H        1.5293690     1.3045580     1.7644240
  H        2.2851470     2.1591780     0.4026320
  H        0.5420990     2.3541860     0.7225810
  H       -2.2325720    -1.7800520    -0.1237300
  H       -2.4588320    -0.9441430     1.3993390
  H       -4.0995650     0.6270340     0.3028840
  H       -3.8738130    -0.2132220    -1.2332140
  H       -4.6116960    -1.0622230     0.1365660
units angstrom
no_reorient  #important for SAPT in psi4, default
symmetry c1  #important for SAPT in psi4, default
}

set PROPERTIES_ORIGIN ["COM"]
properties('MP2/aug-cc-pvtz', properties = ['dipole'])
--------------------------------------------------------------------------

    Molecular point group: c1
  Charge       = -1
  Multiplicity = 1
  Basis Set: AUG-CC-PVTZ
    Blend: AUG-CC-PVTZ
  Basis Set: (AUG-CC-PVTZ AUX)
    Blend: AUG-CC-PVTZ-JKFIT

    Orbital Energies [Eh]
    ---------------------

    Doubly Occupied:

       1A    -20.390481     2A    -20.323695     3A    -20.314789
       4A    -15.439230     5A    -11.223032     6A    -11.166063
       7A    -11.135041     8A    -11.124878     9A    -11.123801
      10A    -11.072881    11A     -1.239775    12A     -1.191606
      13A     -1.096008    14A     -1.080823    15A     -0.951386
      16A     -0.910465    17A     -0.787048    18A     -0.715059
      19A     -0.631717    20A     -0.587322    21A     -0.545324
      22A     -0.530447    23A     -0.502475    24A     -0.487516
      25A     -0.482908    26A     -0.443687    27A     -0.428086
      28A     -0.425755    29A     -0.413477    30A     -0.410330
      31A     -0.394377    32A     -0.384092    33A     -0.371275
      34A     -0.315024    35A     -0.296868    36A     -0.251486
      37A     -0.233777    38A     -0.221221    39A     -0.215033

  @DF-RHF Final Energy:  -512.29355443154043

   => Energetics <=

    Nuclear Repulsion Energy =            533.9164246221794201
    One-Electron Energy =               -1772.7034385709966955
    Two-Electron Energy =                 726.4934595172768468
    Total Energy =                       -512.2935544315404286
  Basis Set: (AUG-CC-PVTZ AUX)
    Blend: AUG-CC-PVTZ-RI
    Molecular point group: c1

    Geometry (in Angstrom), charge = -1, multiplicity = 1:

       Center              X                  Y                   Z               Mass
    ------------   -----------------  -----------------  -----------------  -----------------
         O           -1.687670768931     1.298385650139    -0.561100024341    15.994914619570
         O            1.933882231069    -1.718735349861     0.196340975659    15.994914619570
         O            3.295042231069    -0.048748349861    -0.537384024341    15.994914619570
         N           -0.200020768931    -0.237631349861     0.235766975659    14.003074004430
         C            1.043815031069     0.520907750139     0.019190475659    12.000000000000
         C            1.293036231069     1.660872650139     0.739118975659    12.000000000000
         C           -2.558376768931    -0.793280349861     0.314620975659    12.000000000000
         C           -1.450204768931     0.188553650139    -0.050215024341    12.000000000000
         C            2.187913231069    -0.530712349861    -0.173016024341    12.000000000000
         C           -3.932117768931    -0.324436349861    -0.145709024341    12.000000000000
         H            0.869801231069     0.838970650139    -1.197447024341     1.007825032230
         H           -0.018016768931    -1.213255349861     0.466724975659     1.007825032230
         H            1.444109231069     1.314561650139     1.766771975659     1.007825032230
         H            2.199887231069     2.169181650139     0.404979975659     1.007825032230
         H            0.456839231069     2.364189650139     0.724928975659     1.007825032230
         H           -2.317831768931    -1.770048349861    -0.121382024341     1.007825032230
         H           -2.544091768931    -0.934139349861     1.401686975659     1.007825032230
         H           -4.184824768931     0.637037650139     0.305231975659     1.007825032230
         H           -3.959072768931    -0.203218349861    -1.230866024341     1.007825032230
         H           -4.696955768931    -1.052219349861     0.138913975659     1.007825032230

  Basis Set: AUG-CC-PVTZ
    Blend: AUG-CC-PVTZ
  Basis Set: (AUG-CC-PVTZ AUX)
    Blend: AUG-CC-PVTZ-JKFIT
	 Reference Energy          =    -512.2935544315404286 [Eh]
	 Singles Energy            =      -0.0000000000000000 [Eh]
	 Same-Spin Energy          =      -0.5224472867284689 [Eh]
	 Opposite-Spin Energy      =      -1.6250513335211918 [Eh]
	 Correlation Energy        =      -2.1474986202496607 [Eh]
	 Total Energy              =    -514.4410530517900497 [Eh]

	 ================> DF-SCS-MP2 Energies <==================
	-----------------------------------------------------------
	 SCS Same-Spin Scale       =       0.3333333333333333 [-]
	 SCS Opposite-Spin Scale   =       1.2000000000000000 [-]
	 SCS Same-Spin Energy      =      -0.1741490955761563 [Eh]
	 SCS Opposite-Spin Energy  =      -1.9500616002254301 [Eh]
	 SCS Correlation Energy    =      -2.1242106958015863 [Eh]
	 SCS Total Energy          =    -514.4177651273420224 [Eh]
	-----------------------------------------------------------

  Dipole Moment: [D]
     X:    -8.5002      Y:     0.7557      Z:     2.0034     Total:     8.7658

*** Psi4 exiting successfully. Buy a developer a beer!
