                               Psi4 1.4a2.dev612

  ==> Input File <==

--------------------------------------------------------------------------
#psi4
#
memory 32 gb

molecule  {
-1 1
  O       -1.6024110     1.2883820    -0.5634480
  O        2.0191420    -1.7287390     0.1939930
  O        3.3803020    -0.0587520    -0.5397320
  N       -0.1147610    -0.2476350     0.2334190
  C        1.1498357     0.5355721     0.1115023
  C        1.3782960     1.6508690     0.7367710
  C       -2.4731170    -0.8032840     0.3122730
  C       -1.3649450     0.1785500    -0.0525630
  C        2.2731730    -0.5407160    -0.1753640
  C       -3.8468580    -0.3344400    -0.1480570
  H        0.9550610     0.8289670    -1.1997950
  H        0.0672430    -1.2232590     0.4643770
  H        1.5293690     1.3045580     1.7644240
  H        2.2851470     2.1591780     0.4026320
  H        0.5420990     2.3541860     0.7225810
  H       -2.2325720    -1.7800520    -0.1237300
  H       -2.4588320    -0.9441430     1.3993390
  H       -4.0995650     0.6270340     0.3028840
  H       -3.8738130    -0.2132220    -1.2332140
  H       -4.6116960    -1.0622230     0.1365660
units angstrom
no_reorient  #important for SAPT in psi4, default
symmetry c1  #important for SAPT in psi4, default
}

set PROPERTIES_ORIGIN ["COM"]
properties('MP2/aug-cc-pvtz', properties = ['dipole'])
--------------------------------------------------------------------------

    Molecular point group: c1
  Charge       = -1
  Multiplicity = 1
  Basis Set: AUG-CC-PVTZ
    Blend: AUG-CC-PVTZ
  Basis Set: (AUG-CC-PVTZ AUX)
    Blend: AUG-CC-PVTZ-JKFIT

    Orbital Energies [Eh]
    ---------------------

    Doubly Occupied:

       1A    -20.389912     2A    -20.325021     3A    -20.315667
       4A    -15.440642     5A    -11.222501     6A    -11.170523
       7A    -11.134751     8A    -11.132359     9A    -11.123417
      10A    -11.072300    11A     -1.238721    12A     -1.192398
      13A     -1.095840    14A     -1.080455    15A     -0.957146
      16A     -0.927984    17A     -0.787277    18A     -0.711426
      19A     -0.628818    20A     -0.586325    21A     -0.547022
      22A     -0.529519    23A     -0.505435    24A     -0.497461
      25A     -0.486286    26A     -0.448201    27A     -0.431818
      28A     -0.426035    29A     -0.414263    30A     -0.411829
      31A     -0.392389    32A     -0.386215    33A     -0.372962
      34A     -0.304363    35A     -0.293930    36A     -0.246863
      37A     -0.231037    38A     -0.218835    39A     -0.208317

  @DF-RHF Final Energy:  -512.24248342356509

   => Energetics <=

    Nuclear Repulsion Energy =            534.0134878716556841
    One-Electron Energy =               -1772.7394165542909832
    Two-Electron Energy =                 726.4834452590700948
    Total Energy =                       -512.2424834235650906
  Basis Set: (AUG-CC-PVTZ AUX)
    Blend: AUG-CC-PVTZ-RI
    Molecular point group: c1

    Geometry (in Angstrom), charge = -1, multiplicity = 1:

       Center              X                  Y                   Z               Mass
    ------------   -----------------  -----------------  -----------------  -----------------
         O           -1.689400050524     1.296330926194    -0.568984723454    15.994914619570
         O            1.932152949476    -1.720790073806     0.188456276546    15.994914619570
         O            3.293312949476    -0.050803073806    -0.545268723454    15.994914619570
         N           -0.201750050524    -0.239686073806     0.227882276546    14.003074004430
         C            1.062846649476     0.543521026194     0.105965576546    12.000000000000
         C            1.291306949476     1.658817926194     0.731234276546    12.000000000000
         C           -2.560106050524    -0.795335073806     0.306736276546    12.000000000000
         C           -1.451934050524     0.186498926194    -0.058099723454    12.000000000000
         C            2.186183949476    -0.532767073806    -0.180900723454    12.000000000000
         C           -3.933847050524    -0.326491073806    -0.153593723454    12.000000000000
         H            0.868071949476     0.836915926194    -1.205331723454     1.007825032230
         H           -0.019746050524    -1.215310073806     0.458840276546     1.007825032230
         H            1.442379949476     1.312506926194     1.758887276546     1.007825032230
         H            2.198157949476     2.167126926194     0.397095276546     1.007825032230
         H            0.455109949476     2.362134926194     0.717044276546     1.007825032230
         H           -2.319561050524    -1.772103073806    -0.129266723454     1.007825032230
         H           -2.545821050524    -0.936194073806     1.393802276546     1.007825032230
         H           -4.186554050524     0.634982926194     0.297347276546     1.007825032230
         H           -3.960802050524    -0.205273073806    -1.238750723454     1.007825032230
         H           -4.698685050524    -1.054274073806     0.131029276546     1.007825032230

  Basis Set: AUG-CC-PVTZ
    Blend: AUG-CC-PVTZ
  Basis Set: (AUG-CC-PVTZ AUX)
    Blend: AUG-CC-PVTZ-JKFIT
	 Reference Energy          =    -512.2424834235650906 [Eh]
	 Singles Energy            =      -0.0000000000000000 [Eh]
	 Same-Spin Energy          =      -0.5245043516339607 [Eh]
	 Opposite-Spin Energy      =      -1.6286514951512019 [Eh]
	 Correlation Energy        =      -2.1531558467851628 [Eh]
	 Total Energy              =    -514.3956392703502161 [Eh]

	 ================> DF-SCS-MP2 Energies <==================
	-----------------------------------------------------------
	 SCS Same-Spin Scale       =       0.3333333333333333 [-]
	 SCS Opposite-Spin Scale   =       1.2000000000000000 [-]
	 SCS Same-Spin Energy      =      -0.1748347838779869 [Eh]
	 SCS Opposite-Spin Energy  =      -1.9543817941814421 [Eh]
	 SCS Correlation Energy    =      -2.1292165780594292 [Eh]
	 SCS Total Energy          =    -514.3717000016245038 [Eh]
	-----------------------------------------------------------

  Dipole Moment: [D]
     X:    -8.3806      Y:     0.8129      Z:     2.2451     Total:     8.7141

*** Psi4 exiting successfully. Buy a developer a beer!
