                               Psi4 1.4a2.dev612

  ==> Input File <==

--------------------------------------------------------------------------
#psi4
#
memory 32 gb

molecule  {
-1 1
  O       -1.6024110     1.2883820    -0.5634480
  O        2.0191420    -1.7287390     0.1939930
  O        3.3803020    -0.0587520    -0.5397320
  N       -0.1147610    -0.2476350     0.2334190
  C        1.0875530     0.4615680    -0.1724770
  C        1.3782960     1.6508690     0.7367710
  C       -2.4731170    -0.8032840     0.3122730
  C       -1.3649450     0.1785500    -0.0525630
  C        2.2731730    -0.5407160    -0.1753640
  C       -3.8468580    -0.3344400    -0.1480570
  H        0.9550610     0.8289670    -1.1997950
  H        0.0677740    -1.1881833     0.5580221
  H        1.5293690     1.3045580     1.7644240
  H        2.2851470     2.1591780     0.4026320
  H        0.5420990     2.3541860     0.7225810
  H       -2.2325720    -1.7800520    -0.1237300
  H       -2.4588320    -0.9441430     1.3993390
  H       -4.0995650     0.6270340     0.3028840
  H       -3.8738130    -0.2132220    -1.2332140
  H       -4.6116960    -1.0622230     0.1365660
units angstrom
no_reorient  #important for SAPT in psi4, default
symmetry c1  #important for SAPT in psi4, default
}

set PROPERTIES_ORIGIN ["COM"]
properties('MP2/aug-cc-pvtz', properties = ['dipole'])
--------------------------------------------------------------------------

    Molecular point group: c1
  Charge       = -1
  Multiplicity = 1
  Basis Set: AUG-CC-PVTZ
    Blend: AUG-CC-PVTZ
  Basis Set: (AUG-CC-PVTZ AUX)
    Blend: AUG-CC-PVTZ-JKFIT

    Orbital Energies [Eh]
    ---------------------

    Doubly Occupied:

       1A    -20.391278     2A    -20.321525     3A    -20.313363
       4A    -15.438273     5A    -11.223761     6A    -11.161468
       7A    -11.135329     8A    -11.124326     9A    -11.114932
      10A    -11.075673    11A     -1.241386    12A     -1.189975
      13A     -1.096602    14A     -1.081256    15A     -0.949287
      16A     -0.878632    17A     -0.784016    18A     -0.720980
      19A     -0.642982    20A     -0.588869    21A     -0.541989
      22A     -0.532522    23A     -0.511173    24A     -0.482034
      25A     -0.464406    26A     -0.440353    27A     -0.426481
      28A     -0.419200    29A     -0.413303    30A     -0.404017
      31A     -0.396967    32A     -0.375496    33A     -0.370784
      34A     -0.341119    35A     -0.299328    36A     -0.257060
      37A     -0.236113    38A     -0.222339    39A     -0.214973

  @DF-RHF Final Energy:  -512.33605089404000

   => Energetics <=

    Nuclear Repulsion Energy =            533.4155210705229138
    One-Electron Energy =               -1771.8560025467552350
    Two-Electron Energy =                 726.1044305821924354
    Total Energy =                       -512.3360508940399995
  Basis Set: (AUG-CC-PVTZ AUX)
    Blend: AUG-CC-PVTZ-RI
    Molecular point group: c1

    Geometry (in Angstrom), charge = -1, multiplicity = 1:

       Center              X                  Y                   Z               Mass
    ------------   -----------------  -----------------  -----------------  -----------------
         O           -1.684215920394     1.302249731658    -0.545985735796    15.994914619570
         O            1.937337079606    -1.714871268342     0.211455264204    15.994914619570
         O            3.298497079606    -0.044884268342    -0.522269735796    15.994914619570
         N           -0.196565920394    -0.233767268342     0.250881264204    14.003074004430
         C            1.005748079606     0.475435731658    -0.155014735796    12.000000000000
         C            1.296491079606     1.664736731658     0.754233264204    12.000000000000
         C           -2.554921920394    -0.789416268342     0.329735264204    12.000000000000
         C           -1.446749920394     0.192417731658    -0.035100735796    12.000000000000
         C            2.191368079606    -0.526848268342    -0.157901735796    12.000000000000
         C           -3.928662920394    -0.320572268342    -0.130594735796    12.000000000000
         H            0.873256079606     0.842834731658    -1.182332735796     1.007825032230
         H           -0.014030920394    -1.174315568342     0.575484364204     1.007825032230
         H            1.447564079606     1.318425731658     1.781886264204     1.007825032230
         H            2.203342079606     2.173045731658     0.420094264204     1.007825032230
         H            0.460294079606     2.368053731658     0.740043264204     1.007825032230
         H           -2.314376920394    -1.766184268342    -0.106267735796     1.007825032230
         H           -2.540636920394    -0.930275268342     1.416801264204     1.007825032230
         H           -4.181369920394     0.640901731658     0.320346264204     1.007825032230
         H           -3.955617920394    -0.199354268342    -1.215751735796     1.007825032230
         H           -4.693500920394    -1.048355268342     0.154028264204     1.007825032230

  Basis Set: AUG-CC-PVTZ
    Blend: AUG-CC-PVTZ
  Basis Set: (AUG-CC-PVTZ AUX)
    Blend: AUG-CC-PVTZ-JKFIT
	 Reference Energy          =    -512.3360508940399995 [Eh]
	 Singles Energy            =      -0.0000000000000000 [Eh]
	 Same-Spin Energy          =      -0.5200467071483412 [Eh]
	 Opposite-Spin Energy      =      -1.6211210719017721 [Eh]
	 Correlation Energy        =      -2.1411677790501136 [Eh]
	 Total Energy              =    -514.4772186730900785 [Eh]

	 ================> DF-SCS-MP2 Energies <==================
	-----------------------------------------------------------
	 SCS Same-Spin Scale       =       0.3333333333333333 [-]
	 SCS Opposite-Spin Scale   =       1.2000000000000000 [-]
	 SCS Same-Spin Energy      =      -0.1733489023827804 [Eh]
	 SCS Opposite-Spin Energy  =      -1.9453452862821266 [Eh]
	 SCS Correlation Energy    =      -2.1186941886649069 [Eh]
	 SCS Total Energy          =    -514.4547450827049033 [Eh]
	-----------------------------------------------------------

  Dipole Moment: [D]
     X:    -8.6938      Y:     0.6552      Z:     1.7077     Total:     8.8841

*** Psi4 exiting successfully. Buy a developer a beer!
