                               Psi4 1.4a2.dev612

  ==> Input File <==

--------------------------------------------------------------------------
#psi4
#
memory 32 gb

molecule  {
-1 1
  O       -1.6024110     1.2883820    -0.5634480
  O        2.0191420    -1.7287390     0.1939930
  O        3.3803020    -0.0587520    -0.5397320
  N       -0.1147610    -0.2476350     0.2334190
  C        1.0875530     0.4615680    -0.1724770
  C        1.3782960     1.6508690     0.7367710
  C       -2.4599536    -0.8849923     0.1302002
  C       -1.3649450     0.1785500    -0.0525630
  C        2.2731730    -0.5407160    -0.1753640
  C       -3.8468580    -0.3344400    -0.1480570
  H        0.9550610     0.8289670    -1.1997950
  H        0.0672430    -1.2232590     0.4643770
  H        1.5293690     1.3045580     1.7644240
  H        2.2851470     2.1591780     0.4026320
  H        0.5420990     2.3541860     0.7225810
  H       -2.2325720    -1.7800520    -0.1237300
  H       -2.4588320    -0.9441430     1.3993390
  H       -4.0995650     0.6270340     0.3028840
  H       -3.8738130    -0.2132220    -1.2332140
  H       -4.6116960    -1.0622230     0.1365660
units angstrom
no_reorient  #important for SAPT in psi4, default
symmetry c1  #important for SAPT in psi4, default
}

set PROPERTIES_ORIGIN ["COM"]
properties('MP2/aug-cc-pvtz', properties = ['dipole'])
--------------------------------------------------------------------------

    Molecular point group: c1
  Charge       = -1
  Multiplicity = 1
  Basis Set: AUG-CC-PVTZ
    Blend: AUG-CC-PVTZ
  Basis Set: (AUG-CC-PVTZ AUX)
    Blend: AUG-CC-PVTZ-JKFIT

    Orbital Energies [Eh]
    ---------------------

    Doubly Occupied:

       1A    -20.392934     2A    -20.322439     3A    -20.313988
       4A    -15.437556     5A    -11.227317     6A    -11.162204
       7A    -11.141482     8A    -11.127188     9A    -11.115104
      10A    -11.075293    11A     -1.242505    12A     -1.190763
      13A     -1.096796    14A     -1.081359    15A     -0.952466
      16A     -0.878806    17A     -0.786171    18A     -0.724119
      19A     -0.642571    20A     -0.599485    21A     -0.548165
      22A     -0.519926    23A     -0.512892    24A     -0.483288
      25A     -0.464319    26A     -0.452389    27A     -0.434532
      28A     -0.424677    29A     -0.416657    30A     -0.403732
      31A     -0.382700    32A     -0.371171    33A     -0.354445
      34A     -0.338955    35A     -0.298726    36A     -0.255960
      37A     -0.237150    38A     -0.223309    39A     -0.215770

  @DF-RHF Final Energy:  -512.29593026739792

   => Energetics <=

    Nuclear Repulsion Energy =            533.3472098611217689
    One-Electron Energy =               -1771.5876678625504610
    Two-Electron Energy =                 725.9445277340306575
    Total Energy =                       -512.2959302673979209
  Basis Set: (AUG-CC-PVTZ AUX)
    Blend: AUG-CC-PVTZ-RI
    Molecular point group: c1

    Geometry (in Angstrom), charge = -1, multiplicity = 1:

       Center              X                  Y                   Z               Mass
    ------------   -----------------  -----------------  -----------------  -----------------
         O           -1.685308652686     1.309301008765    -0.530164859273    15.994914619570
         O            1.936244347314    -1.707819991235     0.227276140727    15.994914619570
         O            3.297404347314    -0.037832991235    -0.506448859273    15.994914619570
         N           -0.197658652686    -0.226715991235     0.266702140727    14.003074004430
         C            1.004655347314     0.482487008765    -0.139193859273    12.000000000000
         C            1.295398347314     1.671788008765     0.770054140727    12.000000000000
         C           -2.542851252686    -0.864073291235     0.163483340727    12.000000000000
         C           -1.447842652686     0.199469008765    -0.019279859273    12.000000000000
         C            2.190275347314    -0.519796991235    -0.142080859273    12.000000000000
         C           -3.929755652686    -0.313520991235    -0.114773859273    12.000000000000
         H            0.872163347314     0.849886008765    -1.166511859273     1.007825032230
         H           -0.015654652686    -1.202339991235     0.497660140727     1.007825032230
         H            1.446471347314     1.325477008765     1.797707140727     1.007825032230
         H            2.202249347314     2.180097008765     0.435915140727     1.007825032230
         H            0.459201347314     2.375105008765     0.755864140727     1.007825032230
         H           -2.315469652686    -1.759132991235    -0.090446859273     1.007825032230
         H           -2.541729652686    -0.923223991235     1.432622140727     1.007825032230
         H           -4.182462652686     0.647953008765     0.336167140727     1.007825032230
         H           -3.956710652686    -0.192302991235    -1.199930859273     1.007825032230
         H           -4.694593652686    -1.041303991235     0.169849140727     1.007825032230

  Basis Set: AUG-CC-PVTZ
    Blend: AUG-CC-PVTZ
  Basis Set: (AUG-CC-PVTZ AUX)
    Blend: AUG-CC-PVTZ-JKFIT
	 Reference Energy          =    -512.2959302673979209 [Eh]
	 Singles Energy            =      -0.0000000000000000 [Eh]
	 Same-Spin Energy          =      -0.5207810188083900 [Eh]
	 Opposite-Spin Energy      =      -1.6232786204200544 [Eh]
	 Correlation Energy        =      -2.1440596392284443 [Eh]
	 Total Energy              =    -514.4399899066263515 [Eh]

	 ================> DF-SCS-MP2 Energies <==================
	-----------------------------------------------------------
	 SCS Same-Spin Scale       =       0.3333333333333333 [-]
	 SCS Opposite-Spin Scale   =       1.2000000000000000 [-]
	 SCS Same-Spin Energy      =      -0.1735936729361300 [Eh]
	 SCS Opposite-Spin Energy  =      -1.9479343445040653 [Eh]
	 SCS Correlation Energy    =      -2.1215280174401951 [Eh]
	 SCS Total Energy          =    -514.4174582848380624 [Eh]
	-----------------------------------------------------------

  Dipole Moment: [D]
     X:    -8.6940      Y:     0.5820      Z:     1.3806     Total:     8.8221

*** Psi4 exiting successfully. Buy a developer a beer!
