                               Psi4 1.4a2.dev612

  ==> Input File <==

--------------------------------------------------------------------------
#psi4
#
memory 32 gb

molecule  {
-1 1
  O       -1.6024110     1.2883820    -0.5634480
  O        2.0191420    -1.7287390     0.1939930
  O        3.3803020    -0.0587520    -0.5397320
  N       -0.1147610    -0.2476350     0.2334190
  C        1.0875530     0.4615680    -0.1724770
  C        1.3782960     1.6508690     0.7367710
  C       -2.4731170    -0.8032840     0.3122730
  C       -1.3649450     0.1785500    -0.0525630
  C        2.2731730    -0.5407160    -0.1753640
  C       -3.8468580    -0.3344400    -0.1480570
  H        0.9550610     0.8289670    -1.1997950
  H        0.0675085    -1.2057211     0.5111996
  H        1.5293690     1.3045580     1.7644240
  H        2.2851470     2.1591780     0.4026320
  H        0.5420990     2.3541860     0.7225810
  H       -2.2325720    -1.7800520    -0.1237300
  H       -2.4588320    -0.9441430     1.3993390
  H       -4.0995650     0.6270340     0.3028840
  H       -3.8738130    -0.2132220    -1.2332140
  H       -4.6116960    -1.0622230     0.1365660
units angstrom
no_reorient  #important for SAPT in psi4, default
symmetry c1  #important for SAPT in psi4, default
}

set PROPERTIES_ORIGIN ["COM"]
properties('MP2/aug-cc-pvtz', properties = ['dipole'])
--------------------------------------------------------------------------

    Molecular point group: c1
  Charge       = -1
  Multiplicity = 1
  Basis Set: AUG-CC-PVTZ
    Blend: AUG-CC-PVTZ
  Basis Set: (AUG-CC-PVTZ AUX)
    Blend: AUG-CC-PVTZ-JKFIT

    Orbital Energies [Eh]
    ---------------------

    Doubly Occupied:

       1A    -20.391489     2A    -20.321918     3A    -20.313561
       4A    -15.438027     5A    -11.223666     6A    -11.161711
       7A    -11.135360     8A    -11.124342     9A    -11.114827
      10A    -11.075622    11A     -1.241486    12A     -1.190283
      13A     -1.096668    14A     -1.081279    15A     -0.949302
      16A     -0.878553    17A     -0.784017    18A     -0.720975
      19A     -0.641506    20A     -0.588766    21A     -0.542045
      22A     -0.532784    23A     -0.511340    24A     -0.482485
      25A     -0.465026    26A     -0.439337    27A     -0.426196
      28A     -0.419298    29A     -0.413409    30A     -0.403939
      31A     -0.396865    32A     -0.375688    33A     -0.370391
      34A     -0.341297    35A     -0.299448    36A     -0.257080
      37A     -0.236530    38A     -0.222698    39A     -0.215287

  @DF-RHF Final Energy:  -512.33618073347361

   => Energetics <=

    Nuclear Repulsion Energy =            533.4241079416532330
    One-Electron Energy =               -1771.8715804140688306
    Two-Electron Energy =                 726.1112917389418726
    Total Energy =                       -512.3361807334736113
  Basis Set: (AUG-CC-PVTZ AUX)
    Blend: AUG-CC-PVTZ-RI
    Molecular point group: c1

    Geometry (in Angstrom), charge = -1, multiplicity = 1:

       Center              X                  Y                   Z               Mass
    ------------   -----------------  -----------------  -----------------  -----------------
         O           -1.684214063068     1.302372418659    -0.545658185470    15.994914619570
         O            1.937338936932    -1.714748581341     0.211782814530    15.994914619570
         O            3.298498936932    -0.044761581341    -0.521942185470    15.994914619570
         N           -0.196564063068    -0.233644581341     0.251208814530    14.003074004430
         C            1.005749936932     0.475558418659    -0.154687185470    12.000000000000
         C            1.296492936932     1.664859418659     0.754560814530    12.000000000000
         C           -2.554920063068    -0.789293581341     0.330062814530    12.000000000000
         C           -1.446748063068     0.192540418659    -0.034773185470    12.000000000000
         C            2.191369936932    -0.526725581341    -0.157574185470    12.000000000000
         C           -3.928661063068    -0.320449581341    -0.130267185470    12.000000000000
         H            0.873257936932     0.842957418659    -1.182005185470     1.007825032230
         H           -0.014294563068    -1.191730681341     0.528989414530     1.007825032230
         H            1.447565936932     1.318548418659     1.782213814530     1.007825032230
         H            2.203343936932     2.173168418659     0.420421814530     1.007825032230
         H            0.460295936932     2.368176418659     0.740370814530     1.007825032230
         H           -2.314375063068    -1.766061581341    -0.105940185470     1.007825032230
         H           -2.540635063068    -0.930152581341     1.417128814530     1.007825032230
         H           -4.181368063068     0.641024418659     0.320673814530     1.007825032230
         H           -3.955616063068    -0.199231581341    -1.215424185470     1.007825032230
         H           -4.693499063068    -1.048232581341     0.154355814530     1.007825032230

  Basis Set: AUG-CC-PVTZ
    Blend: AUG-CC-PVTZ
  Basis Set: (AUG-CC-PVTZ AUX)
    Blend: AUG-CC-PVTZ-JKFIT
	 Reference Energy          =    -512.3361807334736113 [Eh]
	 Singles Energy            =      -0.0000000000000000 [Eh]
	 Same-Spin Energy          =      -0.5200906316945595 [Eh]
	 Opposite-Spin Energy      =      -1.6212018556917425 [Eh]
	 Correlation Energy        =      -2.1412924873863020 [Eh]
	 Total Energy              =    -514.4774732208599062 [Eh]

	 ================> DF-SCS-MP2 Energies <==================
	-----------------------------------------------------------
	 SCS Same-Spin Scale       =       0.3333333333333333 [-]
	 SCS Opposite-Spin Scale   =       1.2000000000000000 [-]
	 SCS Same-Spin Energy      =      -0.1733635438981865 [Eh]
	 SCS Opposite-Spin Energy  =      -1.9454422268300908 [Eh]
	 SCS Correlation Energy    =      -2.1188057707282772 [Eh]
	 SCS Total Energy          =    -514.4549865042018837 [Eh]
	-----------------------------------------------------------

  Dipole Moment: [D]
     X:    -8.6886      Y:     0.6392      Z:     1.6541     Total:     8.8677

*** Psi4 exiting successfully. Buy a developer a beer!
