                               Psi4 1.4a2.dev612

  ==> Input File <==

--------------------------------------------------------------------------
#psi4
#
memory 32 gb

molecule  {
-1 1
  O       -1.6024110     1.2883820    -0.5634480
  O        2.0191420    -1.7287390     0.1939930
  O        3.3803020    -0.0587520    -0.5397320
  N       -0.1147610    -0.2476350     0.2334190
  C        1.1186944     0.4985701    -0.0304873
  C        1.3782960     1.6508690     0.7367710
  C       -2.4731170    -0.8032840     0.3122730
  C       -1.3649450     0.1785500    -0.0525630
  C        2.2731730    -0.5407160    -0.1753640
  C       -3.8468580    -0.3344400    -0.1480570
  H        0.9550610     0.8289670    -1.1997950
  H        0.0672430    -1.2232590     0.4643770
  H        1.5293690     1.3045580     1.7644240
  H        2.2851470     2.1591780     0.4026320
  H        0.5420990     2.3541860     0.7225810
  H       -2.2325720    -1.7800520    -0.1237300
  H       -2.4588320    -0.9441430     1.3993390
  H       -4.0995650     0.6270340     0.3028840
  H       -3.8738130    -0.2132220    -1.2332140
  H       -4.6116960    -1.0622230     0.1365660
units angstrom
no_reorient  #important for SAPT in psi4, default
symmetry c1  #important for SAPT in psi4, default
}

set PROPERTIES_ORIGIN ["COM"]
properties('MP2/aug-cc-pvtz', properties = ['dipole'])
--------------------------------------------------------------------------

    Molecular point group: c1
  Charge       = -1
  Multiplicity = 1
  Basis Set: AUG-CC-PVTZ
    Blend: AUG-CC-PVTZ
  Basis Set: (AUG-CC-PVTZ AUX)
    Blend: AUG-CC-PVTZ-JKFIT

    Orbital Energies [Eh]
    ---------------------

    Doubly Occupied:

       1A    -20.390777     2A    -20.323189     3A    -20.314451
       4A    -15.438675     5A    -11.223221     6A    -11.164418
       7A    -11.135149     8A    -11.123961     9A    -11.121703
      10A    -11.073454    11A     -1.240263    12A     -1.191284
      13A     -1.096173    14A     -1.080970    15A     -0.950389
      16A     -0.901341    17A     -0.786585    18A     -0.716649
      19A     -0.633359    20A     -0.587764    21A     -0.544569
      22A     -0.530973    23A     -0.503356    24A     -0.485232
      25A     -0.478498    26A     -0.441842    27A     -0.426507
      28A     -0.424953    29A     -0.413429    30A     -0.408973
      31A     -0.395154    32A     -0.382453    33A     -0.370369
      34A     -0.322357    35A     -0.297740    36A     -0.253951
      37A     -0.234952    38A     -0.222362    39A     -0.215599

  @DF-RHF Final Energy:  -512.31158924602596

   => Energetics <=

    Nuclear Repulsion Energy =            533.8313717452361971
    One-Electron Energy =               -1772.5918384941503518
    Two-Electron Energy =                 726.4488775028880809
    Total Energy =                       -512.3115892460259602
  Basis Set: (AUG-CC-PVTZ AUX)
    Blend: AUG-CC-PVTZ-RI
    Molecular point group: c1

    Geometry (in Angstrom), charge = -1, multiplicity = 1:

       Center              X                  Y                   Z               Mass
    ------------   -----------------  -----------------  -----------------  -----------------
         O           -1.686806132298     1.299413012112    -0.557157683114    15.994914619570
         O            1.934746867702    -1.717707987888     0.200283316886    15.994914619570
         O            3.295906867702    -0.047720987888    -0.533441683114    15.994914619570
         N           -0.199156132298    -0.236603987888     0.239709316886    14.003074004430
         C            1.034299267702     0.509601112112    -0.024196983114    12.000000000000
         C            1.293900867702     1.661900012112     0.743061316886    12.000000000000
         C           -2.557512132298    -0.792252987888     0.318563316886    12.000000000000
         C           -1.449340132298     0.189581012112    -0.046272683114    12.000000000000
         C            2.188777867702    -0.529684987888    -0.169073683114    12.000000000000
         C           -3.931253132298    -0.323408987888    -0.141766683114    12.000000000000
         H            0.870665867702     0.839998012112    -1.193504683114     1.007825032230
         H           -0.017152132298    -1.212227987888     0.470667316886     1.007825032230
         H            1.444973867702     1.315589012112     1.770714316886     1.007825032230
         H            2.200751867702     2.170209012112     0.408922316886     1.007825032230
         H            0.457703867702     2.365217012112     0.728871316886     1.007825032230
         H           -2.316967132298    -1.769020987888    -0.117439683114     1.007825032230
         H           -2.543227132298    -0.933111987888     1.405629316886     1.007825032230
         H           -4.183960132298     0.638065012112     0.309174316886     1.007825032230
         H           -3.958208132298    -0.202190987888    -1.226923683114     1.007825032230
         H           -4.696091132298    -1.051191987888     0.142856316886     1.007825032230

  Basis Set: AUG-CC-PVTZ
    Blend: AUG-CC-PVTZ
  Basis Set: (AUG-CC-PVTZ AUX)
    Blend: AUG-CC-PVTZ-JKFIT
	 Reference Energy          =    -512.3115892460259602 [Eh]
	 Singles Energy            =      -0.0000000000000000 [Eh]
	 Same-Spin Energy          =      -0.5216522107087362 [Eh]
	 Opposite-Spin Energy      =      -1.6236788009530629 [Eh]
	 Correlation Energy        =      -2.1453310116617992 [Eh]
	 Total Energy              =    -514.4569202576877842 [Eh]

	 ================> DF-SCS-MP2 Energies <==================
	-----------------------------------------------------------
	 SCS Same-Spin Scale       =       0.3333333333333333 [-]
	 SCS Opposite-Spin Scale   =       1.2000000000000000 [-]
	 SCS Same-Spin Energy      =      -0.1738840702362454 [Eh]
	 SCS Opposite-Spin Energy  =      -1.9484145611436754 [Eh]
	 SCS Correlation Energy    =      -2.1222986313799206 [Eh]
	 SCS Total Energy          =    -514.4338878774059367 [Eh]
	-----------------------------------------------------------

  Dipole Moment: [D]
     X:    -8.5521      Y:     0.7261      Z:     1.8940     Total:     8.7894

*** Psi4 exiting successfully. Buy a developer a beer!
