                               Psi4 1.4a2.dev612

  ==> Input File <==

--------------------------------------------------------------------------
#psi4
#
memory 32 gb

molecule  {
-1 1
  O       -1.6024110     1.2883820    -0.5634480
  O        2.0191420    -1.7287390     0.1939930
  O        3.3803020    -0.0587520    -0.5397320
  N       -0.1147610    -0.2476350     0.2334190
  C        1.0875530     0.4615680    -0.1724770
  C        1.3782960     1.6508690     0.7367710
  C       -2.4731170    -0.8032840     0.3122730
  C       -1.3649450     0.1785500    -0.0525630
  C        2.2731730    -0.5407160    -0.1753640
  C       -3.8468580    -0.3344400    -0.1480570
  H        0.9550610     0.8289670    -1.1997950
  H        0.0685705    -1.1355697     0.6984899
  H        1.5293690     1.3045580     1.7644240
  H        2.2851470     2.1591780     0.4026320
  H        0.5420990     2.3541860     0.7225810
  H       -2.2325720    -1.7800520    -0.1237300
  H       -2.4588320    -0.9441430     1.3993390
  H       -4.0995650     0.6270340     0.3028840
  H       -3.8738130    -0.2132220    -1.2332140
  H       -4.6116960    -1.0622230     0.1365660
units angstrom
no_reorient  #important for SAPT in psi4, default
symmetry c1  #important for SAPT in psi4, default
}

set PROPERTIES_ORIGIN ["COM"]
properties('MP2/aug-cc-pvtz', properties = ['dipole'])
--------------------------------------------------------------------------

    Molecular point group: c1
  Charge       = -1
  Multiplicity = 1
  Basis Set: AUG-CC-PVTZ
    Blend: AUG-CC-PVTZ
  Basis Set: (AUG-CC-PVTZ AUX)
    Blend: AUG-CC-PVTZ-JKFIT

    Orbital Energies [Eh]
    ---------------------

    Doubly Occupied:

       1A    -20.391069     2A    -20.320097     3A    -20.312615
       4A    -15.439796     5A    -11.224001     6A    -11.160502
       7A    -11.135182     8A    -11.124250     9A    -11.115078
      10A    -11.075862    11A     -1.241230    12A     -1.188806
      13A     -1.095498    14A     -1.080450    15A     -0.949199
      16A     -0.878604    17A     -0.783771    18A     -0.720933
      19A     -0.643773    20A     -0.588436    21A     -0.541738
      22A     -0.531754    23A     -0.510431    24A     -0.480562
      25A     -0.462282    26A     -0.443185    27A     -0.427001
      28A     -0.418857    29A     -0.412855    30A     -0.404005
      31A     -0.397158    32A     -0.374592    33A     -0.371550
      34A     -0.340456    35A     -0.299154    36A     -0.257096
      37A     -0.234502    38A     -0.221047    39A     -0.213854

  @DF-RHF Final Energy:  -512.33428334384178

   => Energetics <=

    Nuclear Repulsion Energy =            533.3086940985707542
    One-Electron Energy =               -1771.6634921431959810
    Two-Electron Energy =                 726.0205147007833375
    Total Energy =                       -512.3342833438417756
  Basis Set: (AUG-CC-PVTZ AUX)
    Blend: AUG-CC-PVTZ-RI
    Molecular point group: c1

    Geometry (in Angstrom), charge = -1, multiplicity = 1:

       Center              X                  Y                   Z               Mass
    ------------   -----------------  -----------------  -----------------  -----------------
         O           -1.684221492369     1.301881669255    -0.546968388872    15.994914619570
         O            1.937331507631    -1.715239330745     0.210472611128    15.994914619570
         O            3.298491507631    -0.045252330745    -0.523252388872    15.994914619570
         N           -0.196571492369    -0.234135330745     0.249898611128    14.003074004430
         C            1.005742507631     0.475067669255    -0.155997388872    12.000000000000
         C            1.296485507631     1.664368669255     0.753250611128    12.000000000000
         C           -2.554927492369    -0.789784330745     0.328752611128    12.000000000000
         C           -1.446755492369     0.192049669255    -0.036083388872    12.000000000000
         C            2.191362507631    -0.527216330745    -0.158884388872    12.000000000000
         C           -3.928668492369    -0.320940330745    -0.131577388872    12.000000000000
         H            0.873250507631     0.842466669255    -1.183315388872     1.007825032230
         H           -0.013239992369    -1.122070030745     0.714969511128     1.007825032230
         H            1.447558507631     1.318057669255     1.780903611128     1.007825032230
         H            2.203336507631     2.172677669255     0.419111611128     1.007825032230
         H            0.460288507631     2.367685669255     0.739060611128     1.007825032230
         H           -2.314382492369    -1.766552330745    -0.107250388872     1.007825032230
         H           -2.540642492369    -0.930643330745     1.415818611128     1.007825032230
         H           -4.181375492369     0.640533669255     0.319363611128     1.007825032230
         H           -3.955623492369    -0.199722330745    -1.216734388872     1.007825032230
         H           -4.693506492369    -1.048723330745     0.153045611128     1.007825032230

  Basis Set: AUG-CC-PVTZ
    Blend: AUG-CC-PVTZ
  Basis Set: (AUG-CC-PVTZ AUX)
    Blend: AUG-CC-PVTZ-JKFIT
	 Reference Energy          =    -512.3342833438417756 [Eh]
	 Singles Energy            =      -0.0000000000000000 [Eh]
	 Same-Spin Energy          =      -0.5200564685845305 [Eh]
	 Opposite-Spin Energy      =      -1.6211929342773002 [Eh]
	 Correlation Energy        =      -2.1412494028618307 [Eh]
	 Total Energy              =    -514.4755327467036068 [Eh]

	 ================> DF-SCS-MP2 Energies <==================
	-----------------------------------------------------------
	 SCS Same-Spin Scale       =       0.3333333333333333 [-]
	 SCS Opposite-Spin Scale   =       1.2000000000000000 [-]
	 SCS Same-Spin Energy      =      -0.1733521561948435 [Eh]
	 SCS Opposite-Spin Energy  =      -1.9454315211327602 [Eh]
	 SCS Correlation Energy    =      -2.1187836773276039 [Eh]
	 SCS Total Energy          =    -514.4530670211694314 [Eh]
	-----------------------------------------------------------

  Dipole Moment: [D]
     X:    -8.7174      Y:     0.7161      Z:     1.8663     Total:     8.9436

*** Psi4 exiting successfully. Buy a developer a beer!
