                               Psi4 1.4a2.dev612

  ==> Input File <==

--------------------------------------------------------------------------
#psi4
#
memory 32 gb

molecule  {
-1 1
  O       -1.6024110     1.2883820    -0.5634480
  O        2.0191420    -1.7287390     0.1939930
  O        3.3803020    -0.0587520    -0.5397320
  N       -0.1147610    -0.2476350     0.2334190
  C        1.1083139     0.4862360    -0.0778172
  C        1.3782960     1.6508690     0.7367710
  C       -2.4731170    -0.8032840     0.3122730
  C       -1.3649450     0.1785500    -0.0525630
  C        2.2731730    -0.5407160    -0.1753640
  C       -3.8468580    -0.3344400    -0.1480570
  H        0.9550610     0.8289670    -1.1997950
  H        0.0672430    -1.2232590     0.4643770
  H        1.5293690     1.3045580     1.7644240
  H        2.2851470     2.1591780     0.4026320
  H        0.5420990     2.3541860     0.7225810
  H       -2.2325720    -1.7800520    -0.1237300
  H       -2.4588320    -0.9441430     1.3993390
  H       -4.0995650     0.6270340     0.3028840
  H       -3.8738130    -0.2132220    -1.2332140
  H       -4.6116960    -1.0622230     0.1365660
units angstrom
no_reorient  #important for SAPT in psi4, default
symmetry c1  #important for SAPT in psi4, default
}

set PROPERTIES_ORIGIN ["COM"]
properties('MP2/aug-cc-pvtz', properties = ['dipole'])
--------------------------------------------------------------------------

    Molecular point group: c1
  Charge       = -1
  Multiplicity = 1
  Basis Set: AUG-CC-PVTZ
    Blend: AUG-CC-PVTZ
  Basis Set: (AUG-CC-PVTZ AUX)
    Blend: AUG-CC-PVTZ-JKFIT

    Orbital Energies [Eh]
    ---------------------

    Doubly Occupied:

       1A    -20.391087     2A    -20.322784     3A    -20.314167
       4A    -15.438256     5A    -11.223369     6A    -11.163175
       7A    -11.135240     8A    -11.124105     9A    -11.118934
      10A    -11.074126    11A     -1.240729    12A     -1.191003
      13A     -1.096345    14A     -1.081076    15A     -0.949837
      16A     -0.892839    17A     -0.785904    18A     -0.718132
      19A     -0.635171    20A     -0.588124    21A     -0.543797
      22A     -0.531556    23A     -0.505224    24A     -0.484210
      25A     -0.473576    26A     -0.440336    27A     -0.426080
      28A     -0.423011    29A     -0.413441    30A     -0.407357
      31A     -0.395796    32A     -0.380407    33A     -0.369517
      34A     -0.330081    35A     -0.298440    36A     -0.255847
      37A     -0.235829    38A     -0.222956    39A     -0.215729

  @DF-RHF Final Energy:  -512.32468747015207

   => Energetics <=

    Nuclear Repulsion Energy =            533.7206669664622041
    One-Electron Energy =               -1772.4155272393275027
    Two-Electron Energy =                 726.3701728027132276
    Total Energy =                       -512.3246874701520710
  Basis Set: (AUG-CC-PVTZ AUX)
    Blend: AUG-CC-PVTZ-RI
    Molecular point group: c1

    Geometry (in Angstrom), charge = -1, multiplicity = 1:

       Center              X                  Y                   Z               Mass
    ------------   -----------------  -----------------  -----------------  -----------------
         O           -1.685941487337     1.300440382414    -0.553215333558    15.994914619570
         O            1.935611512663    -1.716680617586     0.204225666442    15.994914619570
         O            3.296771512663    -0.046693617586    -0.529499333558    15.994914619570
         N           -0.198291487337    -0.235576617586     0.243651666442    14.003074004430
         C            1.024783412663     0.498294382414    -0.067584533558    12.000000000000
         C            1.294765512663     1.662927382414     0.747003666442    12.000000000000
         C           -2.556647487337    -0.791225617586     0.322505666442    12.000000000000
         C           -1.448475487337     0.190608382414    -0.042330333558    12.000000000000
         C            2.189642512663    -0.528657617586    -0.165131333558    12.000000000000
         C           -3.930388487337    -0.322381617586    -0.137824333558    12.000000000000
         H            0.871530512663     0.841025382414    -1.189562333558     1.007825032230
         H           -0.016287487337    -1.211200617586     0.474609666442     1.007825032230
         H            1.445838512663     1.316616382414     1.774656666442     1.007825032230
         H            2.201616512663     2.171236382414     0.412864666442     1.007825032230
         H            0.458568512663     2.366244382414     0.732813666442     1.007825032230
         H           -2.316102487337    -1.767993617586    -0.113497333558     1.007825032230
         H           -2.542362487337    -0.932084617586     1.409571666442     1.007825032230
         H           -4.183095487337     0.639092382414     0.313116666442     1.007825032230
         H           -3.957343487337    -0.201163617586    -1.222981333558     1.007825032230
         H           -4.695226487337    -1.050164617586     0.146798666442     1.007825032230

  Basis Set: AUG-CC-PVTZ
    Blend: AUG-CC-PVTZ
  Basis Set: (AUG-CC-PVTZ AUX)
    Blend: AUG-CC-PVTZ-JKFIT
	 Reference Energy          =    -512.3246874701520710 [Eh]
	 Singles Energy            =      -0.0000000000000000 [Eh]
	 Same-Spin Energy          =      -0.5210087767720851 [Eh]
	 Opposite-Spin Energy      =      -1.6225977651523897 [Eh]
	 Correlation Energy        =      -2.1436065419244748 [Eh]
	 Total Energy              =    -514.4682940120765124 [Eh]

	 ================> DF-SCS-MP2 Energies <==================
	-----------------------------------------------------------
	 SCS Same-Spin Scale       =       0.3333333333333333 [-]
	 SCS Opposite-Spin Scale   =       1.2000000000000000 [-]
	 SCS Same-Spin Energy      =      -0.1736695922573617 [Eh]
	 SCS Opposite-Spin Energy  =      -1.9471173181828676 [Eh]
	 SCS Correlation Energy    =      -2.1207869104402293 [Eh]
	 SCS Total Energy          =    -514.4454743805922590 [Eh]
	-----------------------------------------------------------

  Dipole Moment: [D]
     X:    -8.5997      Y:     0.6948      Z:     1.7908     Total:     8.8117

*** Psi4 exiting successfully. Buy a developer a beer!
