                               Psi4 1.4a2.dev612

  ==> Input File <==

--------------------------------------------------------------------------
#psi4
#
memory 32 gb

molecule  {
-1 1
  O       -1.6024110     1.2883820    -0.5634480
  O        2.0191420    -1.7287390     0.1939930
  O        3.3803020    -0.0587520    -0.5397320
  N       -0.1147610    -0.2476350     0.2334190
  C        1.0875530     0.4615680    -0.1724770
  C        1.3782960     1.6508690     0.7367710
  C       -2.4665353    -0.8441381     0.2212366
  C       -1.3649450     0.1785500    -0.0525630
  C        2.2731730    -0.5407160    -0.1753640
  C       -3.8468580    -0.3344400    -0.1480570
  H        0.9550610     0.8289670    -1.1997950
  H        0.0672430    -1.2232590     0.4643770
  H        1.5293690     1.3045580     1.7644240
  H        2.2851470     2.1591780     0.4026320
  H        0.5420990     2.3541860     0.7225810
  H       -2.2325720    -1.7800520    -0.1237300
  H       -2.4588320    -0.9441430     1.3993390
  H       -4.0995650     0.6270340     0.3028840
  H       -3.8738130    -0.2132220    -1.2332140
  H       -4.6116960    -1.0622230     0.1365660
units angstrom
no_reorient  #important for SAPT in psi4, default
symmetry c1  #important for SAPT in psi4, default
}

set PROPERTIES_ORIGIN ["COM"]
properties('MP2/aug-cc-pvtz', properties = ['dipole'])
--------------------------------------------------------------------------

    Molecular point group: c1
  Charge       = -1
  Multiplicity = 1
  Basis Set: AUG-CC-PVTZ
    Blend: AUG-CC-PVTZ
  Basis Set: (AUG-CC-PVTZ AUX)
    Blend: AUG-CC-PVTZ-JKFIT

    Orbital Energies [Eh]
    ---------------------

    Doubly Occupied:

       1A    -20.392049     2A    -20.322358     3A    -20.313851
       4A    -15.437704     5A    -11.224600     6A    -11.162048
       7A    -11.137237     8A    -11.124953     9A    -11.114863
      10A    -11.075401    11A     -1.241839    12A     -1.190648
      13A     -1.096663    14A     -1.081229    15A     -0.950781
      16A     -0.878620    17A     -0.784320    18A     -0.721646
      19A     -0.640229    20A     -0.591645    21A     -0.545561
      22A     -0.527034    23A     -0.512798    24A     -0.482713
      25A     -0.464868    26A     -0.437961    27A     -0.435355
      28A     -0.420680    29A     -0.416745    30A     -0.403923
      31A     -0.387237    32A     -0.372534    33A     -0.368569
      34A     -0.340936    35A     -0.299441    36A     -0.256617
      37A     -0.237019    38A     -0.223156    39A     -0.215675

  @DF-RHF Final Energy:  -512.32575933121655

   => Energetics <=

    Nuclear Repulsion Energy =            533.4440025860088781
    One-Electron Energy =               -1771.8765127892922919
    Two-Electron Energy =                 726.1067508720669821
    Total Energy =                       -512.3257593312165454
  Basis Set: (AUG-CC-PVTZ AUX)
    Blend: AUG-CC-PVTZ-RI
    Molecular point group: c1

    Geometry (in Angstrom), charge = -1, multiplicity = 1:

       Center              X                  Y                   Z               Mass
    ------------   -----------------  -----------------  -----------------  -----------------
         O           -1.684760429214     1.305898053397    -0.537747746859    15.994914619570
         O            1.936792570786    -1.711222946603     0.219693253141    15.994914619570
         O            3.297952570786    -0.041235946603    -0.514031746859    15.994914619570
         N           -0.197110429214    -0.230118946603     0.259119253141    14.003074004430
         C            1.005203570786     0.479084053397    -0.146776746859    12.000000000000
         C            1.295946570786     1.668385053397     0.762471253141    12.000000000000
         C           -2.548884729214    -0.826622046603     0.246936853141    12.000000000000
         C           -1.447294429214     0.196066053397    -0.026862746859    12.000000000000
         C            2.190823570786    -0.523199946603    -0.149663746859    12.000000000000
         C           -3.929207429214    -0.316923946603    -0.122356746859    12.000000000000
         H            0.872711570786     0.846483053397    -1.174094746859     1.007825032230
         H           -0.015106429214    -1.205742946603     0.490077253141     1.007825032230
         H            1.447019570786     1.322074053397     1.790124253141     1.007825032230
         H            2.202797570786     2.176694053397     0.428332253141     1.007825032230
         H            0.459749570786     2.371702053397     0.748281253141     1.007825032230
         H           -2.314921429214    -1.762535946603    -0.098029746859     1.007825032230
         H           -2.541181429214    -0.926626946603     1.425039253141     1.007825032230
         H           -4.181914429214     0.644550053397     0.328584253141     1.007825032230
         H           -3.956162429214    -0.195705946603    -1.207513746859     1.007825032230
         H           -4.694045429214    -1.044706946603     0.162266253141     1.007825032230

  Basis Set: AUG-CC-PVTZ
    Blend: AUG-CC-PVTZ
  Basis Set: (AUG-CC-PVTZ AUX)
    Blend: AUG-CC-PVTZ-JKFIT
	 Reference Energy          =    -512.3257593312165454 [Eh]
	 Singles Energy            =      -0.0000000000000000 [Eh]
	 Same-Spin Energy          =      -0.5203349692471835 [Eh]
	 Opposite-Spin Energy      =      -1.6218014784657750 [Eh]
	 Correlation Energy        =      -2.1421364477129585 [Eh]
	 Total Energy              =    -514.4678957789294600 [Eh]

	 ================> DF-SCS-MP2 Energies <==================
	-----------------------------------------------------------
	 SCS Same-Spin Scale       =       0.3333333333333333 [-]
	 SCS Opposite-Spin Scale   =       1.2000000000000000 [-]
	 SCS Same-Spin Energy      =      -0.1734449897490611 [Eh]
	 SCS Opposite-Spin Energy  =      -1.9461617741589299 [Eh]
	 SCS Correlation Energy    =      -2.1196067639079912 [Eh]
	 SCS Total Energy          =    -514.4453660951245411 [Eh]
	-----------------------------------------------------------

  Dipole Moment: [D]
     X:    -8.6885      Y:     0.5889      Z:     1.4983     Total:     8.8364

*** Psi4 exiting successfully. Buy a developer a beer!
