                               Psi4 1.4a2.dev612

  ==> Input File <==

--------------------------------------------------------------------------
#psi4
#
memory 32 gb

molecule  {
-1 1
  O       -1.6024110     1.2883820    -0.5634480
  O        2.0191420    -1.7287390     0.1939930
  O        3.3803020    -0.0587520    -0.5397320
  N       -0.1147610    -0.2476350     0.2334190
  C        1.0875530     0.4615680    -0.1724770
  C        1.3782960     1.6508690     0.7367710
  C       -2.4731170    -0.8032840     0.3122730
  C       -1.3649450     0.1785500    -0.0525630
  C        2.2731730    -0.5407160    -0.1753640
  C       -3.8468580    -0.3344400    -0.1480570
  H        0.9550610     0.8289670    -1.1997950
  H        0.0688360    -1.1180319     0.7453124
  H        1.5293690     1.3045580     1.7644240
  H        2.2851470     2.1591780     0.4026320
  H        0.5420990     2.3541860     0.7225810
  H       -2.2325720    -1.7800520    -0.1237300
  H       -2.4588320    -0.9441430     1.3993390
  H       -4.0995650     0.6270340     0.3028840
  H       -3.8738130    -0.2132220    -1.2332140
  H       -4.6116960    -1.0622230     0.1365660
units angstrom
no_reorient  #important for SAPT in psi4, default
symmetry c1  #important for SAPT in psi4, default
}

set PROPERTIES_ORIGIN ["COM"]
properties('MP2/aug-cc-pvtz', properties = ['dipole'])
--------------------------------------------------------------------------

    Molecular point group: c1
  Charge       = -1
  Multiplicity = 1
  Basis Set: AUG-CC-PVTZ
    Blend: AUG-CC-PVTZ
  Basis Set: (AUG-CC-PVTZ AUX)
    Blend: AUG-CC-PVTZ-JKFIT

    Orbital Energies [Eh]
    ---------------------

    Doubly Occupied:

       1A    -20.391151     2A    -20.319540     3A    -20.312317
       4A    -15.440556     5A    -11.224073     6A    -11.160105
       7A    -11.135121     8A    -11.124219     9A    -11.115071
      10A    -11.075937    11A     -1.241236    12A     -1.188340
      13A     -1.094839    14A     -1.079958    15A     -0.949159
      16A     -0.878513    17A     -0.783621    18A     -0.720898
      19A     -0.642829    20A     -0.588058    21A     -0.541633
      22A     -0.531517    23A     -0.510118    24A     -0.480035
      25A     -0.461534    26A     -0.443935    27A     -0.427090
      28A     -0.418731    29A     -0.412666    30A     -0.403924
      31A     -0.397189    32A     -0.374189    33A     -0.371692
      34A     -0.340191    35A     -0.299166    36A     -0.257139
      37A     -0.233864    38A     -0.220554    39A     -0.213426

  @DF-RHF Final Energy:  -512.33316566235067

   => Energetics <=

    Nuclear Repulsion Energy =            533.2471000486436878
    One-Electron Energy =               -1771.5522609481149630
    Two-Electron Energy =                 725.9719952371206091
    Total Energy =                       -512.3331656623506660
  Basis Set: (AUG-CC-PVTZ AUX)
    Blend: AUG-CC-PVTZ-RI
    Molecular point group: c1

    Geometry (in Angstrom), charge = -1, multiplicity = 1:

       Center              X                  Y                   Z               Mass
    ------------   -----------------  -----------------  -----------------  -----------------
         O           -1.684223349695     1.301758982255    -0.547295939198    15.994914619570
         O            1.937329650305    -1.715362017745     0.210145060802    15.994914619570
         O            3.298489650305    -0.045375017745    -0.523579939198    15.994914619570
         N           -0.196573349695    -0.234258017745     0.249571060802    14.003074004430
         C            1.005740650305     0.474944982255    -0.156324939198    12.000000000000
         C            1.296483650305     1.664245982255     0.752923060802    12.000000000000
         C           -2.554929349695    -0.789907017745     0.328425060802    12.000000000000
         C           -1.446757349695     0.191926982255    -0.036410939198    12.000000000000
         C            2.191360650305    -0.527339017745    -0.159211939198    12.000000000000
         C           -3.928670349695    -0.321063017745    -0.131904939198    12.000000000000
         H            0.873248650305     0.842343982255    -1.183642939198     1.007825032230
         H           -0.012976349695    -1.104654917745     0.761464460802     1.007825032230
         H            1.447556650305     1.317934982255     1.780576060802     1.007825032230
         H            2.203334650305     2.172554982255     0.418784060802     1.007825032230
         H            0.460286650305     2.367562982255     0.738733060802     1.007825032230
         H           -2.314384349695    -1.766675017745    -0.107577939198     1.007825032230
         H           -2.540644349695    -0.930766017745     1.415491060802     1.007825032230
         H           -4.181377349695     0.640410982255     0.319036060802     1.007825032230
         H           -3.955625349695    -0.199845017745    -1.217061939198     1.007825032230
         H           -4.693508349695    -1.048846017745     0.152718060802     1.007825032230

  Basis Set: AUG-CC-PVTZ
    Blend: AUG-CC-PVTZ
  Basis Set: (AUG-CC-PVTZ AUX)
    Blend: AUG-CC-PVTZ-JKFIT
	 Reference Energy          =    -512.3331656623506660 [Eh]
	 Singles Energy            =      -0.0000000000000000 [Eh]
	 Same-Spin Energy          =      -0.5201047194779481 [Eh]
	 Opposite-Spin Energy      =      -1.6213230743718450 [Eh]
	 Correlation Energy        =      -2.1414277938497932 [Eh]
	 Total Energy              =    -514.4745934562004095 [Eh]

	 ================> DF-SCS-MP2 Energies <==================
	-----------------------------------------------------------
	 SCS Same-Spin Scale       =       0.3333333333333333 [-]
	 SCS Opposite-Spin Scale   =       1.2000000000000000 [-]
	 SCS Same-Spin Energy      =      -0.1733682398259827 [Eh]
	 SCS Opposite-Spin Energy  =      -1.9455876892462138 [Eh]
	 SCS Correlation Energy    =      -2.1189559290721967 [Eh]
	 SCS Total Energy          =    -514.4521215914228378 [Eh]
	-----------------------------------------------------------

  Dipole Moment: [D]
     X:    -8.7283      Y:     0.7407      Z:     1.9178     Total:     8.9672

*** Psi4 exiting successfully. Buy a developer a beer!
