                               Psi4 1.4a2.dev612

  ==> Input File <==

--------------------------------------------------------------------------
#psi4
#
memory 32 gb

molecule  {
-1 1
  O       -1.6024110     1.2883820    -0.5634480
  O        2.0191420    -1.7287390     0.1939930
  O        3.3803020    -0.0587520    -0.5397320
  N       -0.1147610    -0.2476350     0.2334190
  C        1.0875530     0.4615680    -0.1724770
  C        1.3782960     1.6508690     0.7367710
  C       -2.4698262    -0.8237111     0.2667548
  C       -1.3649450     0.1785500    -0.0525630
  C        2.2731730    -0.5407160    -0.1753640
  C       -3.8468580    -0.3344400    -0.1480570
  H        0.9550610     0.8289670    -1.1997950
  H        0.0672430    -1.2232590     0.4643770
  H        1.5293690     1.3045580     1.7644240
  H        2.2851470     2.1591780     0.4026320
  H        0.5420990     2.3541860     0.7225810
  H       -2.2325720    -1.7800520    -0.1237300
  H       -2.4588320    -0.9441430     1.3993390
  H       -4.0995650     0.6270340     0.3028840
  H       -3.8738130    -0.2132220    -1.2332140
  H       -4.6116960    -1.0622230     0.1365660
units angstrom
no_reorient  #important for SAPT in psi4, default
symmetry c1  #important for SAPT in psi4, default
}

set PROPERTIES_ORIGIN ["COM"]
properties('MP2/aug-cc-pvtz', properties = ['dipole'])
--------------------------------------------------------------------------

    Molecular point group: c1
  Charge       = -1
  Multiplicity = 1
  Basis Set: AUG-CC-PVTZ
    Blend: AUG-CC-PVTZ
  Basis Set: (AUG-CC-PVTZ AUX)
    Blend: AUG-CC-PVTZ-JKFIT

    Orbital Energies [Eh]
    ---------------------

    Doubly Occupied:

       1A    -20.391828     2A    -20.322314     3A    -20.313790
       4A    -15.437799     5A    -11.223864     6A    -11.161978
       7A    -11.136010     8A    -11.124443     9A    -11.114770
      10A    -11.075480    11A     -1.241665    12A     -1.190596
      13A     -1.096621    14A     -1.081189    15A     -0.950011
      16A     -0.878524    17A     -0.783977    18A     -0.721069
      19A     -0.639657    20A     -0.589203    21A     -0.543758
      22A     -0.530556    23A     -0.512247    24A     -0.482729
      25A     -0.465208    26A     -0.437452    27A     -0.430189
      28A     -0.418640    29A     -0.416078    30A     -0.404015
      31A     -0.392328    32A     -0.375062    33A     -0.369884
      34A     -0.341250    35A     -0.299567    36A     -0.256879
      37A     -0.236950    38A     -0.223084    39A     -0.215623

  @DF-RHF Final Energy:  -512.33343448921437

   => Energetics <=

    Nuclear Repulsion Energy =            533.4464338629755957
    One-Electron Energy =               -1771.9071603718923598
    Two-Electron Energy =                 726.1272920197022813
    Total Energy =                       -512.3334344892143690
  Basis Set: (AUG-CC-PVTZ AUX)
    Blend: AUG-CC-PVTZ-RI
    Molecular point group: c1

    Geometry (in Angstrom), charge = -1, multiplicity = 1:

       Center              X                  Y                   Z               Mass
    ------------   -----------------  -----------------  -----------------  -----------------
         O           -1.684486313314     1.304196584043    -0.541539190652    15.994914619570
         O            1.937066686686    -1.712924415957     0.215901809348    15.994914619570
         O            3.298226686686    -0.042937415957    -0.517823190652    15.994914619570
         N           -0.196836313314    -0.231820415957     0.255327809348    14.003074004430
         C            1.005477686686     0.477382584043    -0.150568190652    12.000000000000
         C            1.296220686686     1.666683584043     0.758679809348    12.000000000000
         C           -2.551901513314    -0.807896515957     0.288663609348    12.000000000000
         C           -1.447020313314     0.194364584043    -0.030654190652    12.000000000000
         C            2.191097686686    -0.524901415957    -0.153455190652    12.000000000000
         C           -3.928933313314    -0.318625415957    -0.126148190652    12.000000000000
         H            0.872985686686     0.844781584043    -1.177886190652     1.007825032230
         H           -0.014832313314    -1.207444415957     0.486285809348     1.007825032230
         H            1.447293686686     1.320372584043     1.786332809348     1.007825032230
         H            2.203071686686     2.174992584043     0.424540809348     1.007825032230
         H            0.460023686686     2.370000584043     0.744489809348     1.007825032230
         H           -2.314647313314    -1.764237415957    -0.101821190652     1.007825032230
         H           -2.540907313314    -0.928328415957     1.421247809348     1.007825032230
         H           -4.181640313314     0.642848584043     0.324792809348     1.007825032230
         H           -3.955888313314    -0.197407415957    -1.211305190652     1.007825032230
         H           -4.693771313314    -1.046408415957     0.158474809348     1.007825032230

  Basis Set: AUG-CC-PVTZ
    Blend: AUG-CC-PVTZ
  Basis Set: (AUG-CC-PVTZ AUX)
    Blend: AUG-CC-PVTZ-JKFIT
	 Reference Energy          =    -512.3334344892143690 [Eh]
	 Singles Energy            =      -0.0000000000000000 [Eh]
	 Same-Spin Energy          =      -0.5202131908534049 [Eh]
	 Opposite-Spin Energy      =      -1.6214426293877429 [Eh]
	 Correlation Energy        =      -2.1416558202411480 [Eh]
	 Total Energy              =    -514.4750903094554815 [Eh]

	 ================> DF-SCS-MP2 Energies <==================
	-----------------------------------------------------------
	 SCS Same-Spin Scale       =       0.3333333333333333 [-]
	 SCS Opposite-Spin Scale   =       1.2000000000000000 [-]
	 SCS Same-Spin Energy      =      -0.1734043969511350 [Eh]
	 SCS Opposite-Spin Energy  =      -1.9457311552652914 [Eh]
	 SCS Correlation Energy    =      -2.1191355522164264 [Eh]
	 SCS Total Energy          =    -514.4525700414308176 [Eh]
	-----------------------------------------------------------

  Dipole Moment: [D]
     X:    -8.6863      Y:     0.6032      Z:     1.5517     Total:     8.8444

*** Psi4 exiting successfully. Buy a developer a beer!
