                               Psi4 1.4a2.dev612

  ==> Input File <==

--------------------------------------------------------------------------
#psi4
#
memory 32 gb

molecule  {
-1 1
  O       -1.6024110     1.2883820    -0.5634480
  O        2.0191420    -1.7287390     0.1939930
  O        3.3803020    -0.0587520    -0.5397320
  N       -0.1147610    -0.2476350     0.2334190
  C        1.0979335     0.4739020    -0.1251471
  C        1.3782960     1.6508690     0.7367710
  C       -2.4731170    -0.8032840     0.3122730
  C       -1.3649450     0.1785500    -0.0525630
  C        2.2731730    -0.5407160    -0.1753640
  C       -3.8468580    -0.3344400    -0.1480570
  H        0.9550610     0.8289670    -1.1997950
  H        0.0672430    -1.2232590     0.4643770
  H        1.5293690     1.3045580     1.7644240
  H        2.2851470     2.1591780     0.4026320
  H        0.5420990     2.3541860     0.7225810
  H       -2.2325720    -1.7800520    -0.1237300
  H       -2.4588320    -0.9441430     1.3993390
  H       -4.0995650     0.6270340     0.3028840
  H       -3.8738130    -0.2132220    -1.2332140
  H       -4.6116960    -1.0622230     0.1365660
units angstrom
no_reorient  #important for SAPT in psi4, default
symmetry c1  #important for SAPT in psi4, default
}

set PROPERTIES_ORIGIN ["COM"]
properties('MP2/aug-cc-pvtz', properties = ['dipole'])
--------------------------------------------------------------------------

    Molecular point group: c1
  Charge       = -1
  Multiplicity = 1
  Basis Set: AUG-CC-PVTZ
    Blend: AUG-CC-PVTZ
  Basis Set: (AUG-CC-PVTZ AUX)
    Blend: AUG-CC-PVTZ-JKFIT

    Orbital Energies [Eh]
    ---------------------

    Doubly Occupied:

       1A    -20.391415     2A    -20.322478     3A    -20.313931
       4A    -15.437995     5A    -11.223481     6A    -11.162338
       7A    -11.135315     8A    -11.124234     9A    -11.116592
      10A    -11.074846    11A     -1.241176    12A     -1.190759
      13A     -1.096495    14A     -1.081140    15A     -0.949512
      16A     -0.885175    17A     -0.785023    18A     -0.719551
      19A     -0.637195    20A     -0.588380    21A     -0.542973
      22A     -0.532226    23A     -0.507966    24A     -0.483496
      25A     -0.469220    26A     -0.439173    27A     -0.425935
      28A     -0.421035    29A     -0.413468    30A     -0.405590
      31A     -0.396318    32A     -0.378098    33A     -0.369066
      34A     -0.337015    35A     -0.299045    36A     -0.256925
      37A     -0.236452    38A     -0.223134    39A     -0.215694

  @DF-RHF Final Energy:  -512.33285625483609

   => Energetics <=

    Nuclear Repulsion Energy =            533.5834823729544496
    One-Electron Energy =               -1772.1729568459720667
    Two-Electron Energy =                 726.2566182181815293
    Total Energy =                       -512.3328562548360878
  Basis Set: (AUG-CC-PVTZ AUX)
    Blend: AUG-CC-PVTZ-RI
    Molecular point group: c1

    Geometry (in Angstrom), charge = -1, multiplicity = 1:

       Center              X                  Y                   Z               Mass
    ------------   -----------------  -----------------  -----------------  -----------------
         O           -1.685076850705     1.301467744386    -0.549272984001    15.994914619570
         O            1.936476149295    -1.715653255614     0.208168015999    15.994914619570
         O            3.297636149295    -0.045666255614    -0.525556984001    15.994914619570
         N           -0.197426850705    -0.234549255614     0.247594015999    14.003074004430
         C            1.015267649295     0.486987744386    -0.110972084001    12.000000000000
         C            1.295630149295     1.663954744386     0.750946015999    12.000000000000
         C           -2.555782850705    -0.790198255614     0.326448015999    12.000000000000
         C           -1.447610850705     0.191635744386    -0.038387984001    12.000000000000
         C            2.190507149295    -0.527630255614    -0.161188984001    12.000000000000
         C           -3.929523850705    -0.321354255614    -0.133881984001    12.000000000000
         H            0.872395149295     0.842052744386    -1.185619984001     1.007825032230
         H           -0.015422850705    -1.210173255614     0.478552015999     1.007825032230
         H            1.446703149295     1.317643744386     1.778599015999     1.007825032230
         H            2.202481149295     2.172263744386     0.416807015999     1.007825032230
         H            0.459433149295     2.367271744386     0.736756015999     1.007825032230
         H           -2.315237850705    -1.766966255614    -0.109554984001     1.007825032230
         H           -2.541497850705    -0.931057255614     1.413514015999     1.007825032230
         H           -4.182230850705     0.640119744386     0.317059015999     1.007825032230
         H           -3.956478850705    -0.200136255614    -1.219038984001     1.007825032230
         H           -4.694361850705    -1.049137255614     0.150741015999     1.007825032230

  Basis Set: AUG-CC-PVTZ
    Blend: AUG-CC-PVTZ
  Basis Set: (AUG-CC-PVTZ AUX)
    Blend: AUG-CC-PVTZ-JKFIT
	 Reference Energy          =    -512.3328562548360878 [Eh]
	 Singles Energy            =      -0.0000000000000000 [Eh]
	 Same-Spin Energy          =      -0.5205124970625514 [Eh]
	 Opposite-Spin Energy      =      -1.6218135781862897 [Eh]
	 Correlation Energy        =      -2.1423260752488411 [Eh]
	 Total Energy              =    -514.4751823300849765 [Eh]

	 ================> DF-SCS-MP2 Energies <==================
	-----------------------------------------------------------
	 SCS Same-Spin Scale       =       0.3333333333333333 [-]
	 SCS Opposite-Spin Scale   =       1.2000000000000000 [-]
	 SCS Same-Spin Energy      =      -0.1735041656875171 [Eh]
	 SCS Opposite-Spin Energy  =      -1.9461762938235476 [Eh]
	 SCS Correlation Energy    =      -2.1196804595110645 [Eh]
	 SCS Total Energy          =    -514.4525367143471613 [Eh]
	-----------------------------------------------------------

  Dipole Moment: [D]
     X:    -8.6437      Y:     0.6613      Z:     1.6931     Total:     8.8327

*** Psi4 exiting successfully. Buy a developer a beer!
