                               Psi4 1.4a2.dev612

  ==> Input File <==

--------------------------------------------------------------------------
#psi4
#
memory 32 gb

molecule  {
-1 1
  O       -1.6024110     1.2883820    -0.5634480
  O        2.0191420    -1.7287390     0.1939930
  O        3.3803020    -0.0587520    -0.5397320
  N       -0.1147610    -0.2476350     0.2334190
  C        1.0875530     0.4615680    -0.1724770
  C        1.3782960     1.6508690     0.7367710
  C       -2.4566628    -0.9054193     0.0846821
  C       -1.3649450     0.1785500    -0.0525630
  C        2.2731730    -0.5407160    -0.1753640
  C       -3.8468580    -0.3344400    -0.1480570
  H        0.9550610     0.8289670    -1.1997950
  H        0.0672430    -1.2232590     0.4643770
  H        1.5293690     1.3045580     1.7644240
  H        2.2851470     2.1591780     0.4026320
  H        0.5420990     2.3541860     0.7225810
  H       -2.2325720    -1.7800520    -0.1237300
  H       -2.4588320    -0.9441430     1.3993390
  H       -4.0995650     0.6270340     0.3028840
  H       -3.8738130    -0.2132220    -1.2332140
  H       -4.6116960    -1.0622230     0.1365660
units angstrom
no_reorient  #important for SAPT in psi4, default
symmetry c1  #important for SAPT in psi4, default
}

set PROPERTIES_ORIGIN ["COM"]
properties('MP2/aug-cc-pvtz', properties = ['dipole'])
--------------------------------------------------------------------------

    Molecular point group: c1
  Charge       = -1
  Multiplicity = 1
  Basis Set: AUG-CC-PVTZ
    Blend: AUG-CC-PVTZ
  Basis Set: (AUG-CC-PVTZ AUX)
    Blend: AUG-CC-PVTZ-JKFIT

    Orbital Energies [Eh]
    ---------------------

    Doubly Occupied:

       1A    -20.393580     2A    -20.322477     3A    -20.314063
       4A    -15.437501     5A    -11.229249     6A    -11.162289
       7A    -11.144471     8A    -11.128869     9A    -11.115247
      10A    -11.075262    11A     -1.242981    12A     -1.190825
      13A     -1.096883    14A     -1.081444    15A     -0.953359
      16A     -0.878887    17A     -0.787805    18A     -0.725934
      19A     -0.644311    20A     -0.603621    21A     -0.549050
      22A     -0.517740    23A     -0.511582    24A     -0.484009
      25A     -0.464166    26A     -0.459340    27A     -0.434008
      28A     -0.426022    29A     -0.416468    30A     -0.403659
      31A     -0.381823    32A     -0.371071    33A     -0.348113
      34A     -0.335203    35A     -0.297967    36A     -0.255518
      37A     -0.237211    38A     -0.223389    39A     -0.215809

  @DF-RHF Final Energy:  -512.27412091579572

   => Energetics <=

    Nuclear Repulsion Energy =            533.2516949673889712
    One-Electron Energy =               -1771.3292216814768381
    Two-Electron Energy =                 725.8034057982922604
    Total Energy =                       -512.2741209157957201
  Basis Set: (AUG-CC-PVTZ AUX)
    Blend: AUG-CC-PVTZ-RI
    Molecular point group: c1

    Geometry (in Angstrom), charge = -1, multiplicity = 1:

       Center              X                  Y                   Z               Mass
    ------------   -----------------  -----------------  -----------------  -----------------
         O           -1.685582760257     1.311002478119    -0.526373423809    15.994914619570
         O            1.935970239743    -1.706118521881     0.231067576191    15.994914619570
         O            3.297130239743    -0.036131521881    -0.502657423809    15.994914619570
         N           -0.197932760257    -0.225014521881     0.270493576191    14.003074004430
         C            1.004381239743     0.484188478119    -0.135402423809    12.000000000000
         C            1.295124239743     1.673489478119     0.773845576191    12.000000000000
         C           -2.539834560257    -0.882798821881     0.121756676191    12.000000000000
         C           -1.448116760257     0.201170478119    -0.015488423809    12.000000000000
         C            2.190001239743    -0.518095521881    -0.138289423809    12.000000000000
         C           -3.930029760257    -0.311819521881    -0.110982423809    12.000000000000
         H            0.871889239743     0.851587478119    -1.162720423809     1.007825032230
         H           -0.015928760257    -1.200638521881     0.501451576191     1.007825032230
         H            1.446197239743     1.327178478119     1.801498576191     1.007825032230
         H            2.201975239743     2.181798478119     0.439706576191     1.007825032230
         H            0.458927239743     2.376806478119     0.759655576191     1.007825032230
         H           -2.315743760257    -1.757431521881    -0.086655423809     1.007825032230
         H           -2.542003760257    -0.921522521881     1.436413576191     1.007825032230
         H           -4.182736760257     0.649654478119     0.339958576191     1.007825032230
         H           -3.956984760257    -0.190601521881    -1.196139423809     1.007825032230
         H           -4.694867760257    -1.039602521881     0.173640576191     1.007825032230

  Basis Set: AUG-CC-PVTZ
    Blend: AUG-CC-PVTZ
  Basis Set: (AUG-CC-PVTZ AUX)
    Blend: AUG-CC-PVTZ-JKFIT
	 Reference Energy          =    -512.2741209157957201 [Eh]
	 Singles Energy            =      -0.0000000000000000 [Eh]
	 Same-Spin Energy          =      -0.5211074851337844 [Eh]
	 Opposite-Spin Energy      =      -1.6244049103313998 [Eh]
	 Correlation Energy        =      -2.1455123954651842 [Eh]
	 Total Energy              =    -514.4196333112608954 [Eh]

	 ================> DF-SCS-MP2 Energies <==================
	-----------------------------------------------------------
	 SCS Same-Spin Scale       =       0.3333333333333333 [-]
	 SCS Opposite-Spin Scale   =       1.2000000000000000 [-]
	 SCS Same-Spin Energy      =      -0.1737024950445948 [Eh]
	 SCS Opposite-Spin Energy  =      -1.9492858923976797 [Eh]
	 SCS Correlation Energy    =      -2.1229883874422746 [Eh]
	 SCS Total Energy          =    -514.3971093032380395 [Eh]
	-----------------------------------------------------------

  Dipole Moment: [D]
     X:    -8.6970      Y:     0.5880      Z:     1.3192     Total:     8.8161

*** Psi4 exiting successfully. Buy a developer a beer!
