                               Psi4 1.4a2.dev612

  ==> Input File <==

--------------------------------------------------------------------------
#psi4
#
memory 32 gb

molecule  {
-1 1
  O       -1.6024110     1.2883820    -0.5634480
  O        2.0191420    -1.7287390     0.1939930
  O        3.3803020    -0.0587520    -0.5397320
  N       -0.1147610    -0.2476350     0.2334190
  C        1.0875530     0.4615680    -0.1724770
  C        1.3782960     1.6508690     0.7367710
  C       -2.4632445    -0.8645652     0.1757184
  C       -1.3649450     0.1785500    -0.0525630
  C        2.2731730    -0.5407160    -0.1753640
  C       -3.8468580    -0.3344400    -0.1480570
  H        0.9550610     0.8289670    -1.1997950
  H        0.0672430    -1.2232590     0.4643770
  H        1.5293690     1.3045580     1.7644240
  H        2.2851470     2.1591780     0.4026320
  H        0.5420990     2.3541860     0.7225810
  H       -2.2325720    -1.7800520    -0.1237300
  H       -2.4588320    -0.9441430     1.3993390
  H       -4.0995650     0.6270340     0.3028840
  H       -3.8738130    -0.2132220    -1.2332140
  H       -4.6116960    -1.0622230     0.1365660
units angstrom
no_reorient  #important for SAPT in psi4, default
symmetry c1  #important for SAPT in psi4, default
}

set PROPERTIES_ORIGIN ["COM"]
properties('MP2/aug-cc-pvtz', properties = ['dipole'])
--------------------------------------------------------------------------

    Molecular point group: c1
  Charge       = -1
  Multiplicity = 1
  Basis Set: AUG-CC-PVTZ
    Blend: AUG-CC-PVTZ
  Basis Set: (AUG-CC-PVTZ AUX)
    Blend: AUG-CC-PVTZ-JKFIT

    Orbital Energies [Eh]
    ---------------------

    Doubly Occupied:

       1A    -20.392420     2A    -20.322400     3A    -20.313918
       4A    -15.437623     5A    -11.225758     6A    -11.162123
       7A    -11.139063     8A    -11.125873     9A    -11.114976
      10A    -11.075339    11A     -1.242121    12A     -1.190704
      13A     -1.096722    14A     -1.081286    15A     -0.951603
      16A     -0.878716    17A     -0.785033    18A     -0.722671
      19A     -0.641199    20A     -0.595293    21A     -0.547033
      22A     -0.523296    23A     -0.513088    24A     -0.482884
      25A     -0.464570    26A     -0.444833    27A     -0.435235
      28A     -0.422883    29A     -0.416754    30A     -0.403818
      31A     -0.384208    32A     -0.371379    33A     -0.362568
      34A     -0.340347    35A     -0.299180    36A     -0.256317
      37A     -0.237085    38A     -0.223231    39A     -0.215725

  @DF-RHF Final Energy:  -512.31320356803519

   => Energetics <=

    Nuclear Repulsion Energy =            533.4111341451393855
    One-Electron Energy =               -1771.7701282841983357
    Two-Electron Energy =                 726.0457905710237583
    Total Energy =                       -512.3132035680351919
  Basis Set: (AUG-CC-PVTZ AUX)
    Blend: AUG-CC-PVTZ-RI
    Molecular point group: c1

    Geometry (in Angstrom), charge = -1, multiplicity = 1:

       Center              X                  Y                   Z               Mass
    ------------   -----------------  -----------------  -----------------  -----------------
         O           -1.685034536785     1.307599531081    -0.533956303066    15.994914619570
         O            1.936518463215    -1.709521468919     0.223484696934    15.994914619570
         O            3.297678463215    -0.039534468919    -0.510240303066    15.994914619570
         N           -0.197384536785    -0.228417468919     0.262910696934    14.003074004430
         C            1.004929463215     0.480785531081    -0.142985303066    12.000000000000
         C            1.295672463215     1.670086531081     0.766262696934    12.000000000000
         C           -2.545868036785    -0.845347668919     0.205210096934    12.000000000000
         C           -1.447568536785     0.197767531081    -0.023071303066    12.000000000000
         C            2.190549463215    -0.521498468919    -0.145872303066    12.000000000000
         C           -3.929481536785    -0.315222468919    -0.118565303066    12.000000000000
         H            0.872437463215     0.848184531081    -1.170303303066     1.007825032230
         H           -0.015380536785    -1.204041468919     0.493868696934     1.007825032230
         H            1.446745463215     1.323775531081     1.793915696934     1.007825032230
         H            2.202523463215     2.178395531081     0.432123696934     1.007825032230
         H            0.459475463215     2.373403531081     0.752072696934     1.007825032230
         H           -2.315195536785    -1.760834468919    -0.094238303066     1.007825032230
         H           -2.541455536785    -0.924925468919     1.428830696934     1.007825032230
         H           -4.182188536785     0.646251531081     0.332375696934     1.007825032230
         H           -3.956436536785    -0.194004468919    -1.203722303066     1.007825032230
         H           -4.694319536785    -1.043005468919     0.166057696934     1.007825032230

  Basis Set: AUG-CC-PVTZ
    Blend: AUG-CC-PVTZ
  Basis Set: (AUG-CC-PVTZ AUX)
    Blend: AUG-CC-PVTZ-JKFIT
	 Reference Energy          =    -512.3132035680351919 [Eh]
	 Singles Energy            =      -0.0000000000000000 [Eh]
	 Same-Spin Energy          =      -0.5205240319203065 [Eh]
	 Opposite-Spin Energy      =      -1.6224121340402484 [Eh]
	 Correlation Energy        =      -2.1429361659605548 [Eh]
	 Total Energy              =    -514.4561397339957693 [Eh]

	 ================> DF-SCS-MP2 Energies <==================
	-----------------------------------------------------------
	 SCS Same-Spin Scale       =       0.3333333333333333 [-]
	 SCS Opposite-Spin Scale   =       1.2000000000000000 [-]
	 SCS Same-Spin Energy      =      -0.1735080106401022 [Eh]
	 SCS Opposite-Spin Energy  =      -1.9468945608482979 [Eh]
	 SCS Correlation Energy    =      -2.1204025714884001 [Eh]
	 SCS Total Energy          =    -514.4336061395235902 [Eh]
	-----------------------------------------------------------

  Dipole Moment: [D]
     X:    -8.6911      Y:     0.5820      Z:     1.4409     Total:     8.8289

*** Psi4 exiting successfully. Buy a developer a beer!
