                               Psi4 1.4a3.dev225

  ==> Input File <==

--------------------------------------------------------------------------
#psi4
#
memory 32 gb

molecule  {
0 1
  O       -2.5334200    -0.7491890    -0.0380440
  O       -0.0309920    -1.3916750    -0.5246560
  N        0.8474210     0.2516040     0.7908210
  C       -1.5793960     0.2040340     0.3844480
  C        2.2299320    -0.1523350     0.5631470
  C       -0.1821000    -0.3862620     0.1848690
  C       -1.7255558     1.4548466    -0.3882987
  C        2.7876300     0.3918150    -0.7462470
  H       -1.7371730     0.4054880     1.4537200
  H        2.8183710     0.1913570     1.4185970
  H        2.2480760    -1.2444890     0.5585260
  H        0.6595560     1.1005830     1.3085070
  H       -1.5202540     1.2971370    -1.4686150
  H       -1.0543700     2.2823790    -0.0604110
  H       -2.7592110     1.8535180    -0.3272230
  H        2.1936920     0.0168210    -1.5822170
  H        2.7616940     1.4848860    -0.7566670
  H        3.8242090     0.0700520    -0.8849050
  H       -2.0046360    -1.4186050    -0.5240660
units angstrom
no_reorient  #important for SAPT in psi4, default
symmetry c1  #important for SAPT in psi4, default
}

set PROPERTIES_ORIGIN ["COM"]
properties('MP2/aug-cc-pvtz', properties = ['dipole'])
--------------------------------------------------------------------------

    Molecular point group: c1
  Charge       = 0
  Multiplicity = 1
  Basis Set: AUG-CC-PVTZ
    Blend: AUG-CC-PVTZ
  Basis Set: (AUG-CC-PVTZ AUX)
    Blend: AUG-CC-PVTZ-JKFIT

    Orbital Energies [Eh]
    ---------------------

    Doubly Occupied:

       1A    -20.549332     2A    -20.533360     3A    -15.599357
       4A    -11.359475     5A    -11.296525     6A    -11.274472
       7A    -11.232785     8A    -11.223960     9A     -1.397765
      10A     -1.347523    11A     -1.245094    12A     -1.056988
      13A     -1.015967    14A     -0.900486    15A     -0.847115
      16A     -0.793888    17A     -0.747092    18A     -0.676213
      19A     -0.646774    20A     -0.640078    21A     -0.615301
      22A     -0.597748    23A     -0.588171    24A     -0.558942
      25A     -0.539790    26A     -0.525842    27A     -0.520817
      28A     -0.511898    29A     -0.502684    30A     -0.451032
      31A     -0.434390    32A     -0.403998

  @DF-RHF Final Energy:  -400.08466931187201

   => Energetics <=

    Nuclear Repulsion Energy =            401.2398030811407921
    One-Electron Energy =               -1341.3792242590573096
    Two-Electron Energy =                 540.0547518660445121
    Total Energy =                       -400.0846693118720623
  Basis Set: (AUG-CC-PVTZ AUX)
    Blend: AUG-CC-PVTZ-RI
    Molecular point group: c1

    Geometry (in Angstrom), charge = 0, multiplicity = 1:

       Center              X                  Y                   Z               Mass
    ------------   -----------------  -----------------  -----------------  -----------------
         O           -2.488044766017    -0.693772212336    -0.048097772394    15.994914619570
         O            0.014383233983    -1.336258212336    -0.534709772394    15.994914619570
         N            0.892796233983     0.307020787664     0.780767227606    14.003074004430
         C           -1.534020766017     0.259450787664     0.374394227606    12.000000000000
         C            2.275307233983    -0.096918212336     0.553093227606    12.000000000000
         C           -0.136724766017    -0.330845212336     0.174815227606    12.000000000000
         C           -1.680180566017     1.510263387664    -0.398352472394    12.000000000000
         C            2.833005233983     0.447231787664    -0.756300772394    12.000000000000
         H           -1.691797766017     0.460904787664     1.443666227606     1.007825032230
         H            2.863746233983     0.246773787664     1.408543227606     1.007825032230
         H            2.293451233983    -1.189072212336     0.548472227606     1.007825032230
         H            0.704931233983     1.155999787664     1.298453227606     1.007825032230
         H           -1.474878766017     1.352553787664    -1.478668772394     1.007825032230
         H           -1.008994766017     2.337795787664    -0.070464772394     1.007825032230
         H           -2.713835766017     1.908934787664    -0.337276772394     1.007825032230
         H            2.239067233983     0.072237787664    -1.592270772394     1.007825032230
         H            2.807069233983     1.540302787664    -0.766720772394     1.007825032230
         H            3.869584233983     0.125468787664    -0.894958772394     1.007825032230
         H           -1.959260766017    -1.363188212336    -0.534119772394     1.007825032230

  Basis Set: AUG-CC-PVTZ
    Blend: AUG-CC-PVTZ
  Basis Set: (AUG-CC-PVTZ AUX)
    Blend: AUG-CC-PVTZ-JKFIT
	 Reference Energy          =    -400.0846693118720054 [Eh]
	 Singles Energy            =      -0.0000000000000000 [Eh]
	 Same-Spin Energy          =      -0.4024240882958482 [Eh]
	 Opposite-Spin Energy      =      -1.3082161964202919 [Eh]
	 Correlation Energy        =      -1.7106402847161402 [Eh]
	 Total Energy              =    -401.7953095965881403 [Eh]

	 ================> DF-SCS-MP2 Energies <==================
	-----------------------------------------------------------
	 SCS Same-Spin Scale       =       0.3333333333333333 [-]
	 SCS Opposite-Spin Scale   =       1.2000000000000000 [-]
	 SCS Same-Spin Energy      =      -0.1341413627652827 [Eh]
	 SCS Opposite-Spin Energy  =      -1.5698594357043503 [Eh]
	 SCS Correlation Energy    =      -1.7040007984696330 [Eh]
	 SCS Total Energy          =    -401.7886701103416272 [Eh]
	-----------------------------------------------------------

  Dipole Moment: [D]
     X:     2.8803      Y:     3.1477      Z:     1.5995     Total:     4.5565

*** Psi4 exiting successfully. Buy a developer a beer!
