                               Psi4 1.3.2 release

  ==> Input File <==

--------------------------------------------------------------------------
#psi4
#
memory 32 gb

molecule  {
0 1
  O       -2.4925410    -0.6205970    -0.1535330
  O       -0.0069960    -1.4050930    -0.3804930
  N        0.8845720     0.3685180     0.7343320
  C       -1.5476372     0.3147081     0.3546717
  C        2.2569670    -0.1011270     0.6035390
  C       -0.1490540    -0.3186880     0.1981930
  C       -1.6458490     1.6048030    -0.4506110
  C        2.8658230     0.2522360    -0.7461750
  H       -1.7322500     0.4923850     1.3997900
  H        2.8336360     0.3321260     1.4253690
  H        2.2399750    -1.1846720     0.7384180
  H        0.7096630     1.2770080     1.1428940
  H       -1.3943481     1.4389236    -1.5009745
  H       -0.9867360     2.3841060    -0.0548340
  H       -2.6752710     1.9656290    -0.4028710
  H        2.2847230    -0.2144000    -1.5438430
  H        2.8717410     1.3343490    -0.8997070
  H        3.8959980    -0.1107530    -0.8084670
  H       -1.9544520    -1.3731060    -0.4835650
units angstrom
no_reorient  #important for SAPT in psi4, default
symmetry c1  #important for SAPT in psi4, default
}

set PROPERTIES_ORIGIN ["COM"]
properties('MP2/aug-cc-pvtz', properties = ['dipole'])
--------------------------------------------------------------------------

    Molecular point group: c1
  Charge       = 0
  Multiplicity = 1
  Basis Set: AUG-CC-PVTZ
    Blend: AUG-CC-PVTZ
  Basis Set: (AUG-CC-PVTZ AUX)
    Blend: AUG-CC-PVTZ-JKFIT

    Orbital Energies [Eh]
    ---------------------

    Doubly Occupied:

       1A    -20.546761     2A    -20.533555     3A    -15.598693
       4A    -11.359376     5A    -11.297989     6A    -11.273820
       7A    -11.231286     8A    -11.223200     9A     -1.396470
      10A     -1.342287    11A     -1.245682    12A     -1.052461
      13A     -1.012914    14A     -0.901964    15A     -0.849754
      16A     -0.794566    17A     -0.742786    18A     -0.676758
      19A     -0.648741    20A     -0.640721    21A     -0.612816
      22A     -0.597467    23A     -0.577295    24A     -0.563142
      25A     -0.541414    26A     -0.534892    27A     -0.521098
      28A     -0.512507    29A     -0.501765    30A     -0.448290
      31A     -0.434568    32A     -0.403656

  @DF-RHF Final Energy:  -400.08690054879509

   => Energetics <=

    Nuclear Repulsion Energy =            400.2545693324832996
    One-Electron Energy =               -1339.4455550105853945
    Two-Electron Energy =                 539.1040851293071228
    Total Energy =                       -400.0869005487950290
  Basis Set: (AUG-CC-PVTZ AUX)
    Blend: AUG-CC-PVTZ-RI
    Molecular point group: c1

    Geometry (in Angstrom), charge = 0, multiplicity = 1:

       Center              X                  Y                   Z               Mass
    ------------   -----------------  -----------------  -----------------  -----------------
         O           -2.491773980869    -0.622083605215    -0.155763096947    15.994914619570
         O           -0.006228980869    -1.406579605215    -0.382723096947    15.994914619570
         N            0.885339019131     0.367031394785     0.732101903053    14.003074004430
         C           -1.546870180869     0.313221494785     0.352441603053    12.000000000000
         C            2.257734019131    -0.102613605215     0.601308903053    12.000000000000
         C           -0.148286980869    -0.320174605215     0.195962903053    12.000000000000
         C           -1.645081980869     1.603316394785    -0.452841096947    12.000000000000
         C            2.866590019131     0.250749394785    -0.748405096947    12.000000000000
         H           -1.731482980869     0.490898394785     1.397559903053     1.007825032230
         H            2.834403019131     0.330639394785     1.423138903053     1.007825032230
         H            2.240742019131    -1.186158605215     0.736187903053     1.007825032230
         H            0.710430019131     1.275521394785     1.140663903053     1.007825032230
         H           -1.393581080869     1.437436994785    -1.503204596947     1.007825032230
         H           -0.985968980869     2.382619394785    -0.057064096947     1.007825032230
         H           -2.674503980869     1.964142394785    -0.405101096947     1.007825032230
         H            2.285490019131    -0.215886605215    -1.546073096947     1.007825032230
         H            2.872508019131     1.332862394785    -0.901937096947     1.007825032230
         H            3.896765019131    -0.112239605215    -0.810697096947     1.007825032230
         H           -1.953684980869    -1.374592605215    -0.485795096947     1.007825032230

  Basis Set: AUG-CC-PVTZ
    Blend: AUG-CC-PVTZ
  Basis Set: (AUG-CC-PVTZ AUX)
    Blend: AUG-CC-PVTZ-JKFIT
	 Reference Energy          =    -400.0869005487950858 [Eh]
	 Singles Energy            =      -0.0000000000000000 [Eh]
	 Same-Spin Energy          =      -0.4020494946113896 [Eh]
	 Opposite-Spin Energy      =      -1.3077903633948451 [Eh]
	 Correlation Energy        =      -1.7098398580062346 [Eh]
	 Total Energy              =    -401.7967404068013479 [Eh]

	 ================> DF-SCS-MP2 Energies <==================
	-----------------------------------------------------------
	 SCS Same-Spin Scale       =       0.3333333333333333 [-]
	 SCS Opposite-Spin Scale   =       1.2000000000000000 [-]
	 SCS Same-Spin Energy      =      -0.1340164982037965 [Eh]
	 SCS Opposite-Spin Energy  =      -1.5693484360738141 [Eh]
	 SCS Correlation Energy    =      -1.7033649342776107 [Eh]
	 SCS Total Energy          =    -401.7902654830726874 [Eh]
	-----------------------------------------------------------

  Dipole Moment: [D]
     X:     2.9257      Y:     3.1766      Z:     1.5912     Total:     4.6024

*** Psi4 exiting successfully. Buy a developer a beer!
