                               Psi4 1.3.2 release

  ==> Input File <==

--------------------------------------------------------------------------
#psi4
#
memory 32 gb

molecule  {
0 1
  O       -2.4925410    -0.6205970    -0.1535330
  O       -0.0069960    -1.4050930    -0.3804930
  N        0.8845720     0.3685180     0.7343320
  C       -1.5404070     0.3017530     0.3325960
  C        2.2569670    -0.1011270     0.6035390
  C       -0.1191146    -0.3534394     0.1870930
  C       -1.6458490     1.6048030    -0.4506110
  C        2.8658230     0.2522360    -0.7461750
  H       -1.7322500     0.4923850     1.3997900
  H        2.8336360     0.3321260     1.4253690
  H        2.2399750    -1.1846720     0.7384180
  H        0.7439969     1.2794007     1.1507471
  H       -1.3913480     1.4204780    -1.4971700
  H       -0.9867360     2.3841060    -0.0548340
  H       -2.6752710     1.9656290    -0.4028710
  H        2.2847230    -0.2144000    -1.5438430
  H        2.8717410     1.3343490    -0.8997070
  H        3.8959980    -0.1107530    -0.8084670
  H       -1.9544520    -1.3731060    -0.4835650
units angstrom
no_reorient  #important for SAPT in psi4, default
symmetry c1  #important for SAPT in psi4, default
}

set PROPERTIES_ORIGIN ["COM"]
properties('MP2/aug-cc-pvtz', properties = ['dipole'])
--------------------------------------------------------------------------

    Molecular point group: c1
  Charge       = 0
  Multiplicity = 1
  Basis Set: AUG-CC-PVTZ
    Blend: AUG-CC-PVTZ
  Basis Set: (AUG-CC-PVTZ AUX)
    Blend: AUG-CC-PVTZ-JKFIT

    Orbital Energies [Eh]
    ---------------------

    Doubly Occupied:

       1A    -20.546857     2A    -20.539503     3A    -15.595872
       4A    -11.356917     5A    -11.295197     6A    -11.272107
       7A    -11.227983     8A    -11.223290     9A     -1.418223
      10A     -1.349012    11A     -1.248814    12A     -1.046392
      13A     -1.009884    14A     -0.897060    15A     -0.843751
      16A     -0.799211    17A     -0.742091    18A     -0.677578
      19A     -0.649515    20A     -0.643626    21A     -0.614050
      22A     -0.602601    23A     -0.576322    24A     -0.561257
      25A     -0.543246    26A     -0.532465    27A     -0.528492
      28A     -0.518469    29A     -0.503727    30A     -0.443808
      31A     -0.429513    32A     -0.405709

  @DF-RHF Final Energy:  -400.08755447266884

   => Energetics <=

    Nuclear Repulsion Energy =            400.7666844553617125
    One-Electron Energy =               -1340.4233961795050618
    Two-Electron Energy =                 539.5691572514745076
    Total Energy =                       -400.0875544726688986
  Basis Set: (AUG-CC-PVTZ AUX)
    Blend: AUG-CC-PVTZ-RI
    Molecular point group: c1

    Geometry (in Angstrom), charge = 0, multiplicity = 1:

       Center              X                  Y                   Z               Mass
    ------------   -----------------  -----------------  -----------------  -----------------
         O           -2.495905049875    -0.617055746914    -0.152463105919    15.994914619570
         O           -0.010360049875    -1.401551746914    -0.379423105919    15.994914619570
         N            0.881207950125     0.372059253086     0.735401894081    14.003074004430
         C           -1.543771049875     0.305294253086     0.333665894081    12.000000000000
         C            2.253602950125    -0.097585746914     0.604608894081    12.000000000000
         C           -0.122478649875    -0.349898146914     0.188162894081    12.000000000000
         C           -1.649213049875     1.608344253086    -0.449541105919    12.000000000000
         C            2.862458950125     0.255777253086    -0.745105105919    12.000000000000
         H           -1.735614049875     0.495926253086     1.400859894081     1.007825032230
         H            2.830271950125     0.335667253086     1.426438894081     1.007825032230
         H            2.236610950125    -1.181130746914     0.739487894081     1.007825032230
         H            0.740632850125     1.282941953086     1.151816994081     1.007825032230
         H           -1.394712049875     1.424019253086    -1.496100105919     1.007825032230
         H           -0.990100049875     2.387647253086    -0.053764105919     1.007825032230
         H           -2.678635049875     1.969170253086    -0.401801105919     1.007825032230
         H            2.281358950125    -0.210858746914    -1.542773105919     1.007825032230
         H            2.868376950125     1.337890253086    -0.898637105919     1.007825032230
         H            3.892633950125    -0.107211746914    -0.807397105919     1.007825032230
         H           -1.957816049875    -1.369564746914    -0.482495105919     1.007825032230

  Basis Set: AUG-CC-PVTZ
    Blend: AUG-CC-PVTZ
  Basis Set: (AUG-CC-PVTZ AUX)
    Blend: AUG-CC-PVTZ-JKFIT
	 Reference Energy          =    -400.0875544726688418 [Eh]
	 Singles Energy            =      -0.0000000000000000 [Eh]
	 Same-Spin Energy          =      -0.4012485726252135 [Eh]
	 Opposite-Spin Energy      =      -1.3060255346049936 [Eh]
	 Correlation Energy        =      -1.7072741072302071 [Eh]
	 Total Energy              =    -401.7948285798990469 [Eh]

	 ================> DF-SCS-MP2 Energies <==================
	-----------------------------------------------------------
	 SCS Same-Spin Scale       =       0.3333333333333333 [-]
	 SCS Opposite-Spin Scale   =       1.2000000000000000 [-]
	 SCS Same-Spin Energy      =      -0.1337495242084045 [Eh]
	 SCS Opposite-Spin Energy  =      -1.5672306415259922 [Eh]
	 SCS Correlation Energy    =      -1.7009801657343968 [Eh]
	 SCS Total Energy          =    -401.7885346384032346 [Eh]
	-----------------------------------------------------------

  Dipole Moment: [D]
     X:     3.0007      Y:     2.9609      Z:     1.5048     Total:     4.4761

*** Psi4 exiting successfully. Buy a developer a beer!
