                               Psi4 1.4a3.dev225

  ==> Input File <==

--------------------------------------------------------------------------
#psi4
#
memory 32 gb

molecule  {
0 1
  O       -2.5334200    -0.7491890    -0.0380440
  O       -0.0309920    -1.3916750    -0.5246560
  N        0.8474210     0.2516040     0.7908210
  C       -1.5793960     0.2040340     0.3844480
  C        2.2299320    -0.1523350     0.5631470
  C       -0.1821000    -0.3862620     0.1848690
  C       -1.7305020     1.4971750    -0.4144490
  C        2.7876300     0.3918150    -0.7462470
  H       -1.7371730     0.4054880     1.4537200
  H        2.8183710     0.1913570     1.4185970
  H        2.2480760    -1.2444890     0.5585260
  H        0.6595560     1.1005830     1.3085070
  H       -1.5202540     1.2971370    -1.4686150
  H       -1.0543700     2.2823790    -0.0604110
  H       -2.7592110     1.8535180    -0.3272230
  H        2.1936920     0.0168210    -1.5822170
  H        2.7616940     1.4848860    -0.7566670
  H        3.8242090     0.0700520    -0.8849050
  H       -2.0315651    -1.3845140    -0.4993146
units angstrom
no_reorient  #important for SAPT in psi4, default
symmetry c1  #important for SAPT in psi4, default
}

set PROPERTIES_ORIGIN ["COM"]
properties('MP2/aug-cc-pvtz', properties = ['dipole'])
--------------------------------------------------------------------------

    Molecular point group: c1
  Charge       = 0
  Multiplicity = 1
  Basis Set: AUG-CC-PVTZ
    Blend: AUG-CC-PVTZ
  Basis Set: (AUG-CC-PVTZ AUX)
    Blend: AUG-CC-PVTZ-JKFIT

    Orbital Energies [Eh]
    ---------------------

    Doubly Occupied:

       1A    -20.547297     2A    -20.531998     3A    -15.598904
       4A    -11.358967     5A    -11.299513     6A    -11.274205
       7A    -11.231270     8A    -11.223744     9A     -1.399789
      10A     -1.355833    11A     -1.244456    12A     -1.053308
      13A     -1.013765    14A     -0.902712    15A     -0.849991
      16A     -0.794066    17A     -0.751185    18A     -0.675985
      19A     -0.647862    20A     -0.638105    21A     -0.614755
      22A     -0.597905    23A     -0.583934    24A     -0.565422
      25A     -0.542814    26A     -0.533564    27A     -0.522002
      28A     -0.516602    29A     -0.502673    30A     -0.449328
      31A     -0.433303    32A     -0.403306

  @DF-RHF Final Energy:  -400.08846004720772

   => Energetics <=

    Nuclear Repulsion Energy =            400.6389989296646377
    One-Electron Energy =               -1340.1377902917317897
    Two-Electron Energy =                 539.4103313148593770
    Total Energy =                       -400.0884600472077182
  Basis Set: (AUG-CC-PVTZ AUX)
    Blend: AUG-CC-PVTZ-RI
    Molecular point group: c1

    Geometry (in Angstrom), charge = 0, multiplicity = 1:

       Center              X                  Y                   Z               Mass
    ------------   -----------------  -----------------  -----------------  -----------------
         O           -2.487305997861    -0.698404116113    -0.045630561602    15.994914619570
         O            0.015122002139    -1.340890116113    -0.532242561602    15.994914619570
         N            0.893535002139     0.302388883887     0.783234438398    14.003074004430
         C           -1.533281997861     0.254818883887     0.376861438398    12.000000000000
         C            2.276046002139    -0.101550116113     0.555560438398    12.000000000000
         C           -0.135985997861    -0.335477116113     0.177282438398    12.000000000000
         C           -1.684387997861     1.547959883887    -0.422035561602    12.000000000000
         C            2.833744002139     0.442599883887    -0.753833561602    12.000000000000
         H           -1.691058997861     0.456272883887     1.446133438398     1.007825032230
         H            2.864485002139     0.242141883887     1.411010438398     1.007825032230
         H            2.294190002139    -1.193704116113     0.550939438398     1.007825032230
         H            0.705670002139     1.151367883887     1.300920438398     1.007825032230
         H           -1.474139997861     1.347921883887    -1.476201561602     1.007825032230
         H           -1.008255997861     2.333163883887    -0.067997561602     1.007825032230
         H           -2.713096997861     1.904302883887    -0.334809561602     1.007825032230
         H            2.239806002139     0.067605883887    -1.589803561602     1.007825032230
         H            2.807808002139     1.535670883887    -0.764253561602     1.007825032230
         H            3.870323002139     0.120836883887    -0.892491561602     1.007825032230
         H           -1.985451097861    -1.333729116113    -0.506901161602     1.007825032230

  Basis Set: AUG-CC-PVTZ
    Blend: AUG-CC-PVTZ
  Basis Set: (AUG-CC-PVTZ AUX)
    Blend: AUG-CC-PVTZ-JKFIT
	 Reference Energy          =    -400.0884600472077182 [Eh]
	 Singles Energy            =      -0.0000000000000000 [Eh]
	 Same-Spin Energy          =      -0.4012599965187293 [Eh]
	 Opposite-Spin Energy      =      -1.3062959956298030 [Eh]
	 Correlation Energy        =      -1.7075559921485324 [Eh]
	 Total Energy              =    -401.7960160393562319 [Eh]

	 ================> DF-SCS-MP2 Energies <==================
	-----------------------------------------------------------
	 SCS Same-Spin Scale       =       0.3333333333333333 [-]
	 SCS Opposite-Spin Scale   =       1.2000000000000000 [-]
	 SCS Same-Spin Energy      =      -0.1337533321729098 [Eh]
	 SCS Opposite-Spin Energy  =      -1.5675551947557635 [Eh]
	 SCS Correlation Energy    =      -1.7013085269286734 [Eh]
	 SCS Total Energy          =    -401.7897685741364171 [Eh]
	-----------------------------------------------------------

  Dipole Moment: [D]
     X:     2.8057      Y:     3.1725      Z:     1.6338     Total:     4.5394

*** Psi4 exiting successfully. Buy a developer a beer!
