                               Psi4 1.3.2 release

  ==> Input File <==

--------------------------------------------------------------------------
#psi4
#
memory 32 gb

molecule  {
0 1
  O       -2.4925410    -0.6205970    -0.1535330
  O       -0.0069960    -1.4050930    -0.3804930
  N        0.8845720     0.3685180     0.7343320
  C       -1.5404070     0.3017530     0.3325960
  C        2.2569670    -0.1011270     0.6035390
  C       -0.1735312    -0.3786188     0.2453084
  C       -1.7214715     1.6110596    -0.4259569
  C        2.8658230     0.2522360    -0.7461750
  H       -1.7322500     0.4923850     1.3997900
  H        2.8336360     0.3321260     1.4253690
  H        2.2399750    -1.1846720     0.7384180
  H        0.7096630     1.2770080     1.1428940
  H       -1.3913480     1.4204780    -1.4971700
  H       -0.9867360     2.3841060    -0.0548340
  H       -2.6752710     1.9656290    -0.4028710
  H        2.2847230    -0.2144000    -1.5438430
  H        2.8717410     1.3343490    -0.8997070
  H        3.8959980    -0.1107530    -0.8084670
  H       -1.9544520    -1.3731060    -0.4835650
units angstrom
no_reorient  #important for SAPT in psi4, default
symmetry c1  #important for SAPT in psi4, default
}

set PROPERTIES_ORIGIN ["COM"]
properties('MP2/aug-cc-pvtz', properties = ['dipole'])
--------------------------------------------------------------------------

    Molecular point group: c1
  Charge       = 0
  Multiplicity = 1
  Basis Set: AUG-CC-PVTZ
    Blend: AUG-CC-PVTZ
  Basis Set: (AUG-CC-PVTZ AUX)
    Blend: AUG-CC-PVTZ-JKFIT

    Orbital Energies [Eh]
    ---------------------

    Doubly Occupied:

       1A    -20.548259     2A    -20.542443     3A    -15.593099
       4A    -11.362836     5A    -11.298407     6A    -11.271119
       7A    -11.233143     8A    -11.221101     9A     -1.413754
      10A     -1.351027    11A     -1.236904    12A     -1.048675
      13A     -1.009840    14A     -0.904716    15A     -0.846716
      16A     -0.788425    17A     -0.744792    18A     -0.676518
      19A     -0.651628    20A     -0.644473    21A     -0.611994
      22A     -0.598007    23A     -0.583693    24A     -0.571035
      25A     -0.539896    26A     -0.529342    27A     -0.522501
      28A     -0.513189    29A     -0.501102    30A     -0.446341
      31A     -0.438940    32A     -0.400309

  @DF-RHF Final Energy:  -400.07682160475485

   => Energetics <=

    Nuclear Repulsion Energy =            399.9926225012646341
    One-Electron Energy =               -1338.8504402775051858
    Two-Electron Energy =                 538.7809961714857536
    Total Energy =                       -400.0768216047548549
  Basis Set: (AUG-CC-PVTZ AUX)
    Blend: AUG-CC-PVTZ-RI
    Molecular point group: c1

    Geometry (in Angstrom), charge = 0, multiplicity = 1:

       Center              X                  Y                   Z               Mass
    ------------   -----------------  -----------------  -----------------  -----------------
         O           -2.482281154424    -0.615095659581    -0.160889208205    15.994914619570
         O            0.003263845576    -1.399591659581    -0.387849208205    15.994914619570
         N            0.894831845576     0.374019340419     0.726975791795    14.003074004430
         C           -1.530147154424     0.307254340419     0.325239791795    12.000000000000
         C            2.267226845576    -0.095625659581     0.596182791795    12.000000000000
         C           -0.163271354424    -0.373117459581     0.237952191795    12.000000000000
         C           -1.711211654424     1.616560940419    -0.433313108205    12.000000000000
         C            2.876082845576     0.257737340419    -0.753531208205    12.000000000000
         H           -1.721990154424     0.497886340419     1.392433791795     1.007825032230
         H            2.843895845576     0.337627340419     1.418012791795     1.007825032230
         H            2.250234845576    -1.179170659581     0.731061791795     1.007825032230
         H            0.719922845576     1.282509340419     1.135537791795     1.007825032230
         H           -1.381088154424     1.425979340419    -1.504526208205     1.007825032230
         H           -0.976476154424     2.389607340419    -0.062190208205     1.007825032230
         H           -2.665011154424     1.971130340419    -0.410227208205     1.007825032230
         H            2.294982845576    -0.208898659581    -1.551199208205     1.007825032230
         H            2.882000845576     1.339850340419    -0.907063208205     1.007825032230
         H            3.906257845576    -0.105251659581    -0.815823208205     1.007825032230
         H           -1.944192154424    -1.367604659581    -0.490921208205     1.007825032230

  Basis Set: AUG-CC-PVTZ
    Blend: AUG-CC-PVTZ
  Basis Set: (AUG-CC-PVTZ AUX)
    Blend: AUG-CC-PVTZ-JKFIT
	 Reference Energy          =    -400.0768216047548549 [Eh]
	 Singles Energy            =      -0.0000000000000000 [Eh]
	 Same-Spin Energy          =      -0.4017859400927661 [Eh]
	 Opposite-Spin Energy      =      -1.3075474373994265 [Eh]
	 Correlation Energy        =      -1.7093333774921926 [Eh]
	 Total Energy              =    -401.7861549822470693 [Eh]

	 ================> DF-SCS-MP2 Energies <==================
	-----------------------------------------------------------
	 SCS Same-Spin Scale       =       0.3333333333333333 [-]
	 SCS Opposite-Spin Scale   =       1.2000000000000000 [-]
	 SCS Same-Spin Energy      =      -0.1339286466975887 [Eh]
	 SCS Opposite-Spin Energy  =      -1.5690569248793118 [Eh]
	 SCS Correlation Energy    =      -1.7029855715769004 [Eh]
	 SCS Total Energy          =    -401.7798071763317580 [Eh]
	-----------------------------------------------------------

  Dipole Moment: [D]
     X:     2.7195      Y:     2.9258      Z:     1.4921     Total:     4.2641

*** Psi4 exiting successfully. Buy a developer a beer!
