                               Psi4 1.4a3.dev225

  ==> Input File <==

--------------------------------------------------------------------------
#psi4
#
memory 32 gb

molecule  {
0 1
  O       -2.5334200    -0.7491890    -0.0380440
  O       -0.0309920    -1.3916750    -0.5246560
  N        0.8474210     0.2516040     0.7908210
  C       -1.5793960     0.2040340     0.3844480
  C        2.2299320    -0.1523350     0.5631470
  C       -0.2277651    -0.3669705     0.1913914
  C       -1.7305020     1.4971750    -0.4144490
  C        2.7876300     0.3918150    -0.7462470
  H       -1.7371730     0.4054880     1.4537200
  H        2.8183710     0.1913570     1.4185970
  H        2.2480760    -1.2444890     0.5585260
  H        0.6595560     1.1005830     1.3085070
  H       -1.5202540     1.2971370    -1.4686150
  H       -1.0543700     2.2823790    -0.0604110
  H       -2.7592110     1.8535180    -0.3272230
  H        2.1936920     0.0168210    -1.5822170
  H        2.7616940     1.4848860    -0.7566670
  H        3.8242090     0.0700520    -0.8849050
  H       -2.0046360    -1.4186050    -0.5240660
units angstrom
no_reorient  #important for SAPT in psi4, default
symmetry c1  #important for SAPT in psi4, default
}

set PROPERTIES_ORIGIN ["COM"]
properties('MP2/aug-cc-pvtz', properties = ['dipole'])
--------------------------------------------------------------------------

    Molecular point group: c1
  Charge       = 0
  Multiplicity = 1
  Basis Set: AUG-CC-PVTZ
    Blend: AUG-CC-PVTZ
  Basis Set: (AUG-CC-PVTZ AUX)
    Blend: AUG-CC-PVTZ-JKFIT

    Orbital Energies [Eh]
    ---------------------

    Doubly Occupied:

       1A    -20.552041     2A    -20.532147     3A    -15.598270
       4A    -11.363696     5A    -11.300672     6A    -11.273617
       7A    -11.234294     8A    -11.222453     9A     -1.390117
      10A     -1.343614    11A     -1.235084    12A     -1.058459
      13A     -1.012967    14A     -0.909291    15A     -0.851350
      16A     -0.786035    17A     -0.749698    18A     -0.676001
      19A     -0.645108    20A     -0.636288    21A     -0.613514
      22A     -0.592154    23A     -0.581894    24A     -0.566028
      25A     -0.542718    26A     -0.533224    27A     -0.518286
      28A     -0.511795    29A     -0.499925    30A     -0.449927
      31A     -0.439901    32A     -0.399362

  @DF-RHF Final Energy:  -400.08130046840739

   => Energetics <=

    Nuclear Repulsion Energy =            400.2476156272083472
    One-Electron Energy =               -1339.4179683560942067
    Two-Electron Energy =                 539.0890522604785247
    Total Energy =                       -400.0813004684073348
  Basis Set: (AUG-CC-PVTZ AUX)
    Blend: AUG-CC-PVTZ-RI
    Molecular point group: c1

    Geometry (in Angstrom), charge = 0, multiplicity = 1:

       Center              X                  Y                   Z               Mass
    ------------   -----------------  -----------------  -----------------  -----------------
         O           -2.482857365108    -0.700087938770    -0.046086012445    15.994914619570
         O            0.019570634892    -1.342573938770    -0.532698012445    15.994914619570
         N            0.897983634892     0.300705061230     0.782778987555    14.003074004430
         C           -1.528833365108     0.253135061230     0.376405987555    12.000000000000
         C            2.280494634892    -0.103233938770     0.555104987555    12.000000000000
         C           -0.177202465108    -0.317869438770     0.183349387555    12.000000000000
         C           -1.679939365108     1.546276061230    -0.422491012445    12.000000000000
         C            2.838192634892     0.440916061230    -0.754289012445    12.000000000000
         H           -1.686610365108     0.454589061230     1.445677987555     1.007825032230
         H            2.868933634892     0.240458061230     1.410554987555     1.007825032230
         H            2.298638634892    -1.195387938770     0.550483987555     1.007825032230
         H            0.710118634892     1.149684061230     1.300464987555     1.007825032230
         H           -1.469691365108     1.346238061230    -1.476657012445     1.007825032230
         H           -1.003807365108     2.331480061230    -0.068453012445     1.007825032230
         H           -2.708648365108     1.902619061230    -0.335265012445     1.007825032230
         H            2.244254634892     0.065922061230    -1.590259012445     1.007825032230
         H            2.812256634892     1.533987061230    -0.764709012445     1.007825032230
         H            3.874771634892     0.119153061230    -0.892947012445     1.007825032230
         H           -1.954073365108    -1.369503938770    -0.532108012445     1.007825032230

  Basis Set: AUG-CC-PVTZ
    Blend: AUG-CC-PVTZ
  Basis Set: (AUG-CC-PVTZ AUX)
    Blend: AUG-CC-PVTZ-JKFIT
	 Reference Energy          =    -400.0813004684073917 [Eh]
	 Singles Energy            =      -0.0000000000000000 [Eh]
	 Same-Spin Energy          =      -0.4029433764401812 [Eh]
	 Opposite-Spin Energy      =      -1.3096287321315780 [Eh]
	 Correlation Energy        =      -1.7125721085717593 [Eh]
	 Total Energy              =    -401.7938725769791404 [Eh]

	 ================> DF-SCS-MP2 Energies <==================
	-----------------------------------------------------------
	 SCS Same-Spin Scale       =       0.3333333333333333 [-]
	 SCS Opposite-Spin Scale   =       1.2000000000000000 [-]
	 SCS Same-Spin Energy      =      -0.1343144588133937 [Eh]
	 SCS Opposite-Spin Energy  =      -1.5715544785578937 [Eh]
	 SCS Correlation Energy    =      -1.7058689373712874 [Eh]
	 SCS Total Energy          =    -401.7871694057786840 [Eh]
	-----------------------------------------------------------

  Dipole Moment: [D]
     X:     2.6530      Y:     3.2084      Z:     1.6080     Total:     4.4629

*** Psi4 exiting successfully. Buy a developer a beer!
