                               Psi4 1.4a3.dev225

  ==> Input File <==

--------------------------------------------------------------------------
#psi4
#
memory 32 gb

molecule  {
0 1
  O       -2.5334200    -0.7491890    -0.0380440
  O       -0.0309920    -1.3916750    -0.5246560
  N        0.8474210     0.2516040     0.7908210
  C       -1.5793960     0.2040340     0.3844480
  C        2.2299320    -0.1523350     0.5631470
  C       -0.1760060    -0.4268092     0.1562546
  C       -1.7305020     1.4971750    -0.4144490
  C        2.7876300     0.3918150    -0.7462470
  H       -1.7371730     0.4054880     1.4537200
  H        2.8183710     0.1913570     1.4185970
  H        2.2480760    -1.2444890     0.5585260
  H        0.6595560     1.1005830     1.3085070
  H       -1.5202540     1.2971370    -1.4686150
  H       -1.0543700     2.2823790    -0.0604110
  H       -2.7592110     1.8535180    -0.3272230
  H        2.1936920     0.0168210    -1.5822170
  H        2.7616940     1.4848860    -0.7566670
  H        3.8242090     0.0700520    -0.8849050
  H       -2.0046360    -1.4186050    -0.5240660
units angstrom
no_reorient  #important for SAPT in psi4, default
symmetry c1  #important for SAPT in psi4, default
}

set PROPERTIES_ORIGIN ["COM"]
properties('MP2/aug-cc-pvtz', properties = ['dipole'])
--------------------------------------------------------------------------

    Molecular point group: c1
  Charge       = 0
  Multiplicity = 1
  Basis Set: AUG-CC-PVTZ
    Blend: AUG-CC-PVTZ
  Basis Set: (AUG-CC-PVTZ AUX)
    Blend: AUG-CC-PVTZ-JKFIT

    Orbital Energies [Eh]
    ---------------------

    Doubly Occupied:

       1A    -20.549410     2A    -20.543365     3A    -15.591208
       4A    -11.357803     5A    -11.296851     6A    -11.270626
       7A    -11.229166     8A    -11.222188     9A     -1.425383
      10A     -1.352186    11A     -1.238059    12A     -1.045684
      13A     -1.008594    14A     -0.896534    15A     -0.843316
      16A     -0.790067    17A     -0.746058    18A     -0.677065
      19A     -0.652261    20A     -0.637359    21A     -0.614644
      22A     -0.601173    23A     -0.582019    24A     -0.562688
      25A     -0.541401    26A     -0.532622    27A     -0.529952
      28A     -0.521006    29A     -0.502920    30A     -0.447732
      31A     -0.430621    32A     -0.402307

  @DF-RHF Final Energy:  -400.08718091411288

   => Energetics <=

    Nuclear Repulsion Energy =            400.5802307598665948
    One-Electron Energy =               -1340.0502838404972863
    Two-Electron Energy =                 539.3828721665178136
    Total Energy =                       -400.0871809141128779
  Basis Set: (AUG-CC-PVTZ AUX)
    Blend: AUG-CC-PVTZ-RI
    Molecular point group: c1

    Geometry (in Angstrom), charge = 0, multiplicity = 1:

       Center              X                  Y                   Z               Mass
    ------------   -----------------  -----------------  -----------------  -----------------
         O           -2.488162409680    -0.693954776279    -0.042484669103    15.994914619570
         O            0.014265590320    -1.336440776279    -0.529096669103    15.994914619570
         N            0.892678590320     0.306838223721     0.786380330897    14.003074004430
         C           -1.534138409680     0.259268223721     0.380007330897    12.000000000000
         C            2.275189590320    -0.097100776279     0.558706330897    12.000000000000
         C           -0.130748409680    -0.371574976279     0.151813930897    12.000000000000
         C           -1.685244409680     1.552409223721    -0.418889669103    12.000000000000
         C            2.832887590320     0.447049223721    -0.750687669103    12.000000000000
         H           -1.691915409680     0.460722223721     1.449279330897     1.007825032230
         H            2.863628590320     0.246591223721     1.414156330897     1.007825032230
         H            2.293333590320    -1.189254776279     0.554085330897     1.007825032230
         H            0.704813590320     1.155817223721     1.304066330897     1.007825032230
         H           -1.474996409680     1.352371223721    -1.473055669103     1.007825032230
         H           -1.009112409680     2.337613223721    -0.064851669103     1.007825032230
         H           -2.713953409680     1.908752223721    -0.331663669103     1.007825032230
         H            2.238949590320     0.072055223721    -1.586657669103     1.007825032230
         H            2.806951590320     1.540120223721    -0.761107669103     1.007825032230
         H            3.869466590320     0.125286223721    -0.889345669103     1.007825032230
         H           -1.959378409680    -1.363370776279    -0.528506669103     1.007825032230

  Basis Set: AUG-CC-PVTZ
    Blend: AUG-CC-PVTZ
  Basis Set: (AUG-CC-PVTZ AUX)
    Blend: AUG-CC-PVTZ-JKFIT
	 Reference Energy          =    -400.0871809141128779 [Eh]
	 Singles Energy            =      -0.0000000000000000 [Eh]
	 Same-Spin Energy          =      -0.4009792782908950 [Eh]
	 Opposite-Spin Energy      =      -1.3058768064980515 [Eh]
	 Correlation Energy        =      -1.7068560847889465 [Eh]
	 Total Energy              =    -401.7940369989018450 [Eh]

	 ================> DF-SCS-MP2 Energies <==================
	-----------------------------------------------------------
	 SCS Same-Spin Scale       =       0.3333333333333333 [-]
	 SCS Opposite-Spin Scale   =       1.2000000000000000 [-]
	 SCS Same-Spin Energy      =      -0.1336597594302983 [Eh]
	 SCS Opposite-Spin Energy  =      -1.5670521677976617 [Eh]
	 SCS Correlation Energy    =      -1.7007119272279601 [Eh]
	 SCS Total Energy          =    -401.7878928413408630 [Eh]
	-----------------------------------------------------------

  Dipole Moment: [D]
     X:     2.7502      Y:     2.8648      Z:     1.4378     Total:     4.2235

*** Psi4 exiting successfully. Buy a developer a beer!
