                               Psi4 1.3.2 release

  ==> Input File <==

--------------------------------------------------------------------------
#psi4
#
memory 32 gb

molecule  {
0 1
  O       -2.4925410    -0.6205970    -0.1535330
  O       -0.0069960    -1.4050930    -0.3804930
  N        0.8845720     0.3685180     0.7343320
  C       -1.5404070     0.3017530     0.3325960
  C        2.2483733    -0.1226355     0.5930675
  C       -0.1490540    -0.3186880     0.1981930
  C       -1.6458490     1.6048030    -0.4506110
  C        2.8658230     0.2522360    -0.7461750
  H       -1.7322500     0.4923850     1.3997900
  H        2.8336360     0.3321260     1.4253690
  H        2.2399750    -1.1846720     0.7384180
  H        0.6923337     1.2745082     1.1406526
  H       -1.3913480     1.4204780    -1.4971700
  H       -0.9867360     2.3841060    -0.0548340
  H       -2.6752710     1.9656290    -0.4028710
  H        2.2847230    -0.2144000    -1.5438430
  H        2.8717410     1.3343490    -0.8997070
  H        3.8959980    -0.1107530    -0.8084670
  H       -1.9544520    -1.3731060    -0.4835650
units angstrom
no_reorient  #important for SAPT in psi4, default
symmetry c1  #important for SAPT in psi4, default
}

set PROPERTIES_ORIGIN ["COM"]
properties('MP2/aug-cc-pvtz', properties = ['dipole'])
--------------------------------------------------------------------------

    Molecular point group: c1
  Charge       = 0
  Multiplicity = 1
  Basis Set: AUG-CC-PVTZ
    Blend: AUG-CC-PVTZ
  Basis Set: (AUG-CC-PVTZ AUX)
    Blend: AUG-CC-PVTZ-JKFIT

    Orbital Energies [Eh]
    ---------------------

    Doubly Occupied:

       1A    -20.548565     2A    -20.533242     3A    -15.598841
       4A    -11.358322     5A    -11.298168     6A    -11.274582
       7A    -11.231291     8A    -11.223315     9A     -1.398428
      10A     -1.346687    11A     -1.245945    12A     -1.052951
      13A     -1.013038    14A     -0.902334    15A     -0.849220
      16A     -0.794119    17A     -0.744410    18A     -0.677782
      19A     -0.647696    20A     -0.641419    21A     -0.612750
      22A     -0.598829    23A     -0.577145    24A     -0.563812
      25A     -0.543311    26A     -0.534638    27A     -0.519190
      28A     -0.515164    29A     -0.503016    30A     -0.445764
      31A     -0.435894    32A     -0.403721

  @DF-RHF Final Energy:  -400.08699358309741

   => Energetics <=

    Nuclear Repulsion Energy =            400.7787030786304854
    One-Electron Energy =               -1340.4642218986502940
    Two-Electron Energy =                 539.5985252369223417
    Total Energy =                       -400.0869935830974100
  Basis Set: (AUG-CC-PVTZ AUX)
    Blend: AUG-CC-PVTZ-RI
    Molecular point group: c1

    Geometry (in Angstrom), charge = 0, multiplicity = 1:

       Center              X                  Y                   Z               Mass
    ------------   -----------------  -----------------  -----------------  -----------------
         O           -2.491510882174    -0.618370961805    -0.152440629725    15.994914619570
         O           -0.005965882174    -1.402866961805    -0.379400629725    15.994914619570
         N            0.885602117826     0.370744038195     0.735424370275    14.003074004430
         C           -1.539376882174     0.303979038195     0.333688370275    12.000000000000
         C            2.249403417826    -0.120409461805     0.594159870275    12.000000000000
         C           -0.148023882174    -0.316461961805     0.199285370275    12.000000000000
         C           -1.644818882174     1.607029038195    -0.449518629725    12.000000000000
         C            2.866853117826     0.254462038195    -0.745082629725    12.000000000000
         H           -1.731219882174     0.494611038195     1.400882370275     1.007825032230
         H            2.834666117826     0.334352038195     1.426461370275     1.007825032230
         H            2.241005117826    -1.182445961805     0.739510370275     1.007825032230
         H            0.693363817826     1.276734238195     1.141744970275     1.007825032230
         H           -1.390317882174     1.422704038195    -1.496077629725     1.007825032230
         H           -0.985705882174     2.386332038195    -0.053741629725     1.007825032230
         H           -2.674240882174     1.967855038195    -0.401778629725     1.007825032230
         H            2.285753117826    -0.212173961805    -1.542750629725     1.007825032230
         H            2.872771117826     1.336575038195    -0.898614629725     1.007825032230
         H            3.897028117826    -0.108526961805    -0.807374629725     1.007825032230
         H           -1.953421882174    -1.370879961805    -0.482472629725     1.007825032230

  Basis Set: AUG-CC-PVTZ
    Blend: AUG-CC-PVTZ
  Basis Set: (AUG-CC-PVTZ AUX)
    Blend: AUG-CC-PVTZ-JKFIT
	 Reference Energy          =    -400.0869935830974100 [Eh]
	 Singles Energy            =      -0.0000000000000000 [Eh]
	 Same-Spin Energy          =      -0.4021232638313315 [Eh]
	 Opposite-Spin Energy      =      -1.3077013393726333 [Eh]
	 Correlation Energy        =      -1.7098246032039648 [Eh]
	 Total Energy              =    -401.7968181863013797 [Eh]

	 ================> DF-SCS-MP2 Energies <==================
	-----------------------------------------------------------
	 SCS Same-Spin Scale       =       0.3333333333333333 [-]
	 SCS Opposite-Spin Scale   =       1.2000000000000000 [-]
	 SCS Same-Spin Energy      =      -0.1340410879437772 [Eh]
	 SCS Opposite-Spin Energy  =      -1.5692416072471600 [Eh]
	 SCS Correlation Energy    =      -1.7032826951909372 [Eh]
	 SCS Total Energy          =    -401.7902762782883315 [Eh]
	-----------------------------------------------------------

  Dipole Moment: [D]
     X:     2.8860      Y:     3.1334      Z:     1.5470     Total:     4.5321

*** Psi4 exiting successfully. Buy a developer a beer!
