                               Psi4 1.3.2 release

  ==> Input File <==

--------------------------------------------------------------------------
#psi4
#
memory 32 gb

molecule  {
0 1
  O       -2.5143764    -0.5694355    -0.2022163
  O       -0.0069960    -1.4050930    -0.3804930
  N        0.8845720     0.3685180     0.7343320
  C       -1.5404070     0.3017530     0.3325960
  C        2.2569670    -0.1011270     0.6035390
  C       -0.1490540    -0.3186880     0.1981930
  C       -1.7047475     1.5719642    -0.4932527
  C        2.8658230     0.2522360    -0.7461750
  H       -1.7322500     0.4923850     1.3997900
  H        2.8336360     0.3321260     1.4253690
  H        2.2399750    -1.1846720     0.7384180
  H        0.7096630     1.2770080     1.1428940
  H       -1.3913480     1.4204780    -1.4971700
  H       -0.9867360     2.3841060    -0.0548340
  H       -2.6752710     1.9656290    -0.4028710
  H        2.2847230    -0.2144000    -1.5438430
  H        2.8717410     1.3343490    -0.8997070
  H        3.8959980    -0.1107530    -0.8084670
  H       -1.9544520    -1.3731060    -0.4835650
units angstrom
no_reorient  #important for SAPT in psi4, default
symmetry c1  #important for SAPT in psi4, default
}

set PROPERTIES_ORIGIN ["COM"]
properties('MP2/aug-cc-pvtz', properties = ['dipole'])
--------------------------------------------------------------------------

    Molecular point group: c1
  Charge       = 0
  Multiplicity = 1
  Basis Set: AUG-CC-PVTZ
    Blend: AUG-CC-PVTZ
  Basis Set: (AUG-CC-PVTZ AUX)
    Blend: AUG-CC-PVTZ-JKFIT

    Orbital Energies [Eh]
    ---------------------

    Doubly Occupied:

       1A    -20.550282     2A    -20.535716     3A    -15.599902
       4A    -11.361304     5A    -11.297384     6A    -11.274689
       7A    -11.230180     8A    -11.223704     9A     -1.398285
      10A     -1.343288    11A     -1.246774    12A     -1.050323
      13A     -1.011299    14A     -0.904482    15A     -0.848725
      16A     -0.794940    17A     -0.741063    18A     -0.676280
      19A     -0.647309    20A     -0.643699    21A     -0.613206
      22A     -0.597468    23A     -0.573451    24A     -0.571892
      25A     -0.541770    26A     -0.524915    27A     -0.522319
      28A     -0.511880    29A     -0.502429    30A     -0.442299
      31A     -0.438588    32A     -0.404592

  @DF-RHF Final Energy:  -400.07601033256771

   => Energetics <=

    Nuclear Repulsion Energy =            400.2799167978126889
    One-Electron Energy =               -1339.4629781416692822
    Two-Electron Energy =                 539.1070510112888314
    Total Energy =                       -400.0760103325677619
  Basis Set: (AUG-CC-PVTZ AUX)
    Blend: AUG-CC-PVTZ-RI
    Molecular point group: c1

    Geometry (in Angstrom), charge = 0, multiplicity = 1:

       Center              X                  Y                   Z               Mass
    ------------   -----------------  -----------------  -----------------  -----------------
         O           -2.505356393062    -0.573059184731    -0.191195002246    15.994914619570
         O            0.002024006938    -1.408716684731    -0.369471702246    15.994914619570
         N            0.893592006938     0.364894315269     0.745353297754    14.003074004430
         C           -1.531386993062     0.298129315269     0.343617297754    12.000000000000
         C            2.265987006938    -0.104750684731     0.614560297754    12.000000000000
         C           -0.140033993062    -0.322311684731     0.209214297754    12.000000000000
         C           -1.695727493062     1.568340515269    -0.482231402246    12.000000000000
         C            2.874843006938     0.248612315269    -0.735153702246    12.000000000000
         H           -1.723229993062     0.488761315269     1.410811297754     1.007825032230
         H            2.842656006938     0.328502315269     1.436390297754     1.007825032230
         H            2.248995006938    -1.188295684731     0.749439297754     1.007825032230
         H            0.718683006938     1.273384315269     1.153915297754     1.007825032230
         H           -1.382327993062     1.416854315269    -1.486148702246     1.007825032230
         H           -0.977715993062     2.380482315269    -0.043812702246     1.007825032230
         H           -2.666250993062     1.962005315269    -0.391849702246     1.007825032230
         H            2.293743006938    -0.218023684731    -1.532821702246     1.007825032230
         H            2.880761006938     1.330725315269    -0.888685702246     1.007825032230
         H            3.905018006938    -0.114376684731    -0.797445702246     1.007825032230
         H           -1.945431993062    -1.376729684731    -0.472543702246     1.007825032230

  Basis Set: AUG-CC-PVTZ
    Blend: AUG-CC-PVTZ
  Basis Set: (AUG-CC-PVTZ AUX)
    Blend: AUG-CC-PVTZ-JKFIT
	 Reference Energy          =    -400.0760103325677051 [Eh]
	 Singles Energy            =      -0.0000000000000000 [Eh]
	 Same-Spin Energy          =      -0.4028638269775718 [Eh]
	 Opposite-Spin Energy      =      -1.3094733390050239 [Eh]
	 Correlation Energy        =      -1.7123371659825959 [Eh]
	 Total Energy              =    -401.7883474985503085 [Eh]

	 ================> DF-SCS-MP2 Energies <==================
	-----------------------------------------------------------
	 SCS Same-Spin Scale       =       0.3333333333333333 [-]
	 SCS Opposite-Spin Scale   =       1.2000000000000000 [-]
	 SCS Same-Spin Energy      =      -0.1342879423258573 [Eh]
	 SCS Opposite-Spin Energy  =      -1.5713680068060287 [Eh]
	 SCS Correlation Energy    =      -1.7056559491318861 [Eh]
	 SCS Total Energy          =    -401.7816662816995859 [Eh]
	-----------------------------------------------------------

  Dipole Moment: [D]
     X:     2.9451      Y:     2.9736      Z:     1.6424     Total:     4.4959

*** Psi4 exiting successfully. Buy a developer a beer!
