                               Psi4 1.3.2 release

  ==> Input File <==

--------------------------------------------------------------------------
#psi4
#
memory 32 gb

molecule  {
0 1
  O       -2.5015401    -0.6125873    -0.1509483
  O       -0.0069960    -1.4050930    -0.3804930
  N        0.8845720     0.3685180     0.7343320
  C       -1.5404070     0.3017530     0.3325960
  C        2.2569670    -0.1011270     0.6035390
  C       -0.1436895    -0.3076508     0.2034387
  C       -1.6458490     1.6048030    -0.4506110
  C        2.8658230     0.2522360    -0.7461750
  H       -1.7322500     0.4923850     1.3997900
  H        2.8336360     0.3321260     1.4253690
  H        2.2399750    -1.1846720     0.7384180
  H        0.7096630     1.2770080     1.1428940
  H       -1.3913480     1.4204780    -1.4971700
  H       -0.9867360     2.3841060    -0.0548340
  H       -2.6752710     1.9656290    -0.4028710
  H        2.2847230    -0.2144000    -1.5438430
  H        2.8717410     1.3343490    -0.8997070
  H        3.8959980    -0.1107530    -0.8084670
  H       -1.9544520    -1.3731060    -0.4835650
units angstrom
no_reorient  #important for SAPT in psi4, default
symmetry c1  #important for SAPT in psi4, default
}

set PROPERTIES_ORIGIN ["COM"]
properties('MP2/aug-cc-pvtz', properties = ['dipole'])
--------------------------------------------------------------------------

    Molecular point group: c1
  Charge       = 0
  Multiplicity = 1
  Basis Set: AUG-CC-PVTZ
    Blend: AUG-CC-PVTZ
  Basis Set: (AUG-CC-PVTZ AUX)
    Blend: AUG-CC-PVTZ-JKFIT

    Orbital Energies [Eh]
    ---------------------

    Doubly Occupied:

       1A    -20.549320     2A    -20.530874     3A    -15.601628
       4A    -11.359076     5A    -11.297990     6A    -11.275463
       7A    -11.230760     8A    -11.224180     9A     -1.392611
      10A     -1.343417    11A     -1.248844    12A     -1.053532
      13A     -1.013696    14A     -0.903565    15A     -0.849851
      16A     -0.796717    17A     -0.743048    18A     -0.676337
      19A     -0.648006    20A     -0.639091    21A     -0.614098
      22A     -0.597531    23A     -0.575787    24A     -0.563302
      25A     -0.543543    26A     -0.533987    27A     -0.519955
      28A     -0.512733    29A     -0.502444    30A     -0.444657
      31A     -0.435231    32A     -0.404558

  @DF-RHF Final Energy:  -400.08581263735971

   => Energetics <=

    Nuclear Repulsion Energy =            400.4632085339294463
    One-Electron Energy =               -1339.8463776678390786
    Two-Electron Energy =                 539.2973564965499236
    Total Energy =                       -400.0858126373597088
  Basis Set: (AUG-CC-PVTZ AUX)
    Blend: AUG-CC-PVTZ-RI
    Molecular point group: c1

    Geometry (in Angstrom), charge = 0, multiplicity = 1:

       Center              X                  Y                   Z               Mass
    ------------   -----------------  -----------------  -----------------  -----------------
         O           -2.500860373565    -0.614812805838    -0.151839269498    15.994914619570
         O           -0.006316273565    -1.407318505838    -0.381383969498    15.994914619570
         N            0.885251726435     0.366292494162     0.733441030502    14.003074004430
         C           -1.539727273565     0.299527494162     0.331705030502    12.000000000000
         C            2.257646726435    -0.103352505838     0.602648030502    12.000000000000
         C           -0.143009773565    -0.309876305838     0.202547730502    12.000000000000
         C           -1.645169273565     1.602577494162    -0.451501969498    12.000000000000
         C            2.866502726435     0.250010494162    -0.747065969498    12.000000000000
         H           -1.731570273565     0.490159494162     1.398899030502     1.007825032230
         H            2.834315726435     0.329900494162     1.424478030502     1.007825032230
         H            2.240654726435    -1.186897505838     0.737527030502     1.007825032230
         H            0.710342726435     1.274782494162     1.142003030502     1.007825032230
         H           -1.390668273565     1.418252494162    -1.498060969498     1.007825032230
         H           -0.986056273565     2.381880494162    -0.055724969498     1.007825032230
         H           -2.674591273565     1.963403494162    -0.403761969498     1.007825032230
         H            2.285402726435    -0.216625505838    -1.544733969498     1.007825032230
         H            2.872420726435     1.332123494162    -0.900597969498     1.007825032230
         H            3.896677726435    -0.112978505838    -0.809357969498     1.007825032230
         H           -1.953772273565    -1.375331505838    -0.484455969498     1.007825032230

  Basis Set: AUG-CC-PVTZ
    Blend: AUG-CC-PVTZ
  Basis Set: (AUG-CC-PVTZ AUX)
    Blend: AUG-CC-PVTZ-JKFIT
	 Reference Energy          =    -400.0858126373597088 [Eh]
	 Singles Energy            =      -0.0000000000000000 [Eh]
	 Same-Spin Energy          =      -0.4025245574566294 [Eh]
	 Opposite-Spin Energy      =      -1.3084947143915899 [Eh]
	 Correlation Energy        =      -1.7110192718482193 [Eh]
	 Total Energy              =    -401.7968319092079241 [Eh]

	 ================> DF-SCS-MP2 Energies <==================
	-----------------------------------------------------------
	 SCS Same-Spin Scale       =       0.3333333333333333 [-]
	 SCS Opposite-Spin Scale   =       1.2000000000000000 [-]
	 SCS Same-Spin Energy      =      -0.1341748524855431 [Eh]
	 SCS Opposite-Spin Energy  =      -1.5701936572699078 [Eh]
	 SCS Correlation Energy    =      -1.7043685097554508 [Eh]
	 SCS Total Energy          =    -401.7901811471151632 [Eh]
	-----------------------------------------------------------

  Dipole Moment: [D]
     X:     2.9951      Y:     3.2014      Z:     1.5992     Total:     4.6666

*** Psi4 exiting successfully. Buy a developer a beer!
