                               Psi4 1.3.2 release

  ==> Input File <==

--------------------------------------------------------------------------
#psi4
#
memory 32 gb

molecule  {
0 1
  O       -2.4925410    -0.6205970    -0.1535330
  O       -0.0069960    -1.4050930    -0.3804930
  N        0.8845720     0.3685180     0.7343320
  C       -1.5404070     0.3017530     0.3325960
  C        2.2569670    -0.1011270     0.6035390
  C       -0.1490540    -0.3186880     0.1981930
  C       -1.6320112     1.4337952    -0.3478256
  C        2.8658230     0.2522360    -0.7461750
  H       -1.7322500     0.4923850     1.3997900
  H        2.8336360     0.3321260     1.4253690
  H        2.2399750    -1.1846720     0.7384180
  H        0.7096630     1.2770080     1.1428940
  H       -1.3913480     1.4204780    -1.4971700
  H       -0.9867360     2.3841060    -0.0548340
  H       -2.6752710     1.9656290    -0.4028710
  H        2.2847230    -0.2144000    -1.5438430
  H        2.8717410     1.3343490    -0.8997070
  H        3.8959980    -0.1107530    -0.8084670
  H       -1.9544520    -1.3731060    -0.4835650
units angstrom
no_reorient  #important for SAPT in psi4, default
symmetry c1  #important for SAPT in psi4, default
}

set PROPERTIES_ORIGIN ["COM"]
properties('MP2/aug-cc-pvtz', properties = ['dipole'])
--------------------------------------------------------------------------

    Molecular point group: c1
  Charge       = 0
  Multiplicity = 1
  Basis Set: AUG-CC-PVTZ
    Blend: AUG-CC-PVTZ
  Basis Set: (AUG-CC-PVTZ AUX)
    Blend: AUG-CC-PVTZ-JKFIT

    Orbital Energies [Eh]
    ---------------------

    Doubly Occupied:

       1A    -20.548680     2A    -20.534929     3A    -15.599440
       4A    -11.360748     5A    -11.288144     6A    -11.274363
       7A    -11.242950     8A    -11.223397     9A     -1.401551
      10A     -1.351191    11A     -1.247165    12A     -1.085337
      13A     -1.023377    14A     -0.896294    15A     -0.841842
      16A     -0.793900    17A     -0.753230    18A     -0.685562
      19A     -0.657883    20A     -0.651463    21A     -0.619503
      22A     -0.601793    23A     -0.597298    24A     -0.547077
      25A     -0.537372    26A     -0.521167    27A     -0.512731
      28A     -0.501785    29A     -0.488106    30A     -0.460201
      31A     -0.427243    32A     -0.404377

  @DF-RHF Final Energy:  -400.03695030318494

   => Energetics <=

    Nuclear Repulsion Energy =            404.2413488574856615
    One-Electron Energy =               -1347.1964005063121022
    Two-Electron Energy =                 542.9181013456413893
    Total Energy =                       -400.0369503031849945
  Basis Set: (AUG-CC-PVTZ AUX)
    Blend: AUG-CC-PVTZ-RI
    Molecular point group: c1

    Geometry (in Angstrom), charge = 0, multiplicity = 1:

       Center              X                  Y                   Z               Mass
    ------------   -----------------  -----------------  -----------------  -----------------
         O           -2.493959168841    -0.603069562182    -0.164068180250    15.994914619570
         O           -0.008414168841    -1.387565562182    -0.391028180250    15.994914619570
         N            0.883153831159     0.386045437818     0.723796819750    14.003074004430
         C           -1.541825168841     0.319280437818     0.322060819750    12.000000000000
         C            2.255548831159    -0.083599562182     0.593003819750    12.000000000000
         C           -0.150472168841    -0.301160562182     0.187657819750    12.000000000000
         C           -1.633429368841     1.451322637818    -0.358360780250    12.000000000000
         C            2.864404831159     0.269763437818    -0.756710180250    12.000000000000
         H           -1.733668168841     0.509912437818     1.389254819750     1.007825032230
         H            2.832217831159     0.349653437818     1.414833819750     1.007825032230
         H            2.238556831159    -1.167144562182     0.727882819750     1.007825032230
         H            0.708244831159     1.294535437818     1.132358819750     1.007825032230
         H           -1.392766168841     1.438005437818    -1.507705180250     1.007825032230
         H           -0.988154168841     2.401633437818    -0.065369180250     1.007825032230
         H           -2.676689168841     1.983156437818    -0.413406180250     1.007825032230
         H            2.283304831159    -0.196872562182    -1.554378180250     1.007825032230
         H            2.870322831159     1.351876437818    -0.910242180250     1.007825032230
         H            3.894579831159    -0.093225562182    -0.819002180250     1.007825032230
         H           -1.955870168841    -1.355578562182    -0.494100180250     1.007825032230

  Basis Set: AUG-CC-PVTZ
    Blend: AUG-CC-PVTZ
  Basis Set: (AUG-CC-PVTZ AUX)
    Blend: AUG-CC-PVTZ-JKFIT
	 Reference Energy          =    -400.0369503031849376 [Eh]
	 Singles Energy            =      -0.0000000000000000 [Eh]
	 Same-Spin Energy          =      -0.4051661770287314 [Eh]
	 Opposite-Spin Energy      =      -1.3117813292367866 [Eh]
	 Correlation Energy        =      -1.7169475062655180 [Eh]
	 Total Energy              =    -401.7538978094504500 [Eh]

	 ================> DF-SCS-MP2 Energies <==================
	-----------------------------------------------------------
	 SCS Same-Spin Scale       =       0.3333333333333333 [-]
	 SCS Opposite-Spin Scale   =       1.2000000000000000 [-]
	 SCS Same-Spin Energy      =      -0.1350553923429104 [Eh]
	 SCS Opposite-Spin Energy  =      -1.5741375950841439 [Eh]
	 SCS Correlation Energy    =      -1.7091929874270544 [Eh]
	 SCS Total Energy          =    -401.7461432906119967 [Eh]
	-----------------------------------------------------------

  Dipole Moment: [D]
     X:     2.9558      Y:     3.1837      Z:     1.5415     Total:     4.6096

*** Psi4 exiting successfully. Buy a developer a beer!
