                               Psi4 1.4a3.dev225

  ==> Input File <==

--------------------------------------------------------------------------
#psi4
#
memory 32 gb

molecule  {
0 1
  O       -2.5334200    -0.7491890    -0.0380440
  O       -0.0309920    -1.3916750    -0.5246560
  N        0.8474210     0.2516040     0.7908210
  C       -1.5793960     0.2040340     0.3844480
  C        2.2299320    -0.1523350     0.5631470
  C       -0.1821000    -0.3862620     0.1848690
  C       -1.7305020     1.4971750    -0.4144490
  C        2.7876300     0.3918150    -0.7462470
  H       -1.7371730     0.4054880     1.4537200
  H        2.8183710     0.1913570     1.4185970
  H        2.2480760    -1.2444890     0.5585260
  H        0.6558431     1.1173620     1.3187384
  H       -1.5202540     1.2971370    -1.4686150
  H       -1.0543700     2.2823790    -0.0604110
  H       -2.7592110     1.8535180    -0.3272230
  H        2.1936920     0.0168210    -1.5822170
  H        2.7616940     1.4848860    -0.7566670
  H        3.8242090     0.0700520    -0.8849050
  H       -2.0046360    -1.4186050    -0.5240660
units angstrom
no_reorient  #important for SAPT in psi4, default
symmetry c1  #important for SAPT in psi4, default
}

set PROPERTIES_ORIGIN ["COM"]
properties('MP2/aug-cc-pvtz', properties = ['dipole'])
--------------------------------------------------------------------------

    Molecular point group: c1
  Charge       = 0
  Multiplicity = 1
  Basis Set: AUG-CC-PVTZ
    Blend: AUG-CC-PVTZ
  Basis Set: (AUG-CC-PVTZ AUX)
    Blend: AUG-CC-PVTZ-JKFIT

    Orbital Energies [Eh]
    ---------------------

    Doubly Occupied:

       1A    -20.549441     2A    -20.532932     3A    -15.601019
       4A    -11.359110     5A    -11.298475     6A    -11.274385
       7A    -11.230654     8A    -11.223868     9A     -1.396974
      10A     -1.346638    11A     -1.242619    12A     -1.051568
      13A     -1.012292    14A     -0.902152    15A     -0.848042
      16A     -0.789355    17A     -0.745166    18A     -0.674758
      19A     -0.644971    20A     -0.637329    21A     -0.614342
      22A     -0.597056    23A     -0.581323    24A     -0.564403
      25A     -0.541761    26A     -0.532823    27A     -0.521311
      28A     -0.513038    29A     -0.502685    30A     -0.447210
      31A     -0.433776    32A     -0.403404

  @DF-RHF Final Energy:  -400.08651187471014

   => Energetics <=

    Nuclear Repulsion Energy =            400.2736872488812310
    One-Electron Energy =               -1339.4906406049740326
    Two-Electron Energy =                 539.1304414813826043
    Total Energy =                       -400.0865118747101405
  Basis Set: (AUG-CC-PVTZ AUX)
    Blend: AUG-CC-PVTZ-RI
    Molecular point group: c1

    Geometry (in Angstrom), charge = 0, multiplicity = 1:

       Center              X                  Y                   Z               Mass
    ------------   -----------------  -----------------  -----------------  -----------------
         O           -2.487505844732    -0.698255093059    -0.045505572303    15.994914619570
         O            0.014922155268    -1.340741093059    -0.532117572303    15.994914619570
         N            0.893335155268     0.302537906941     0.783359427697    14.003074004430
         C           -1.533481844732     0.254967906941     0.376986427697    12.000000000000
         C            2.275846155268    -0.101401093059     0.555685427697    12.000000000000
         C           -0.136185844732    -0.335328093059     0.177407427697    12.000000000000
         C           -1.684587844732     1.548108906941    -0.421910572303    12.000000000000
         C            2.833544155268     0.442748906941    -0.753708572303    12.000000000000
         H           -1.691258844732     0.456421906941     1.446258427697     1.007825032230
         H            2.864285155268     0.242290906941     1.411135427697     1.007825032230
         H            2.293990155268    -1.193555093059     0.551064427697     1.007825032230
         H            0.701757255268     1.168295906941     1.311276827697     1.007825032230
         H           -1.474339844732     1.348070906941    -1.476076572303     1.007825032230
         H           -1.008455844732     2.333312906941    -0.067872572303     1.007825032230
         H           -2.713296844732     1.904451906941    -0.334684572303     1.007825032230
         H            2.239606155268     0.067754906941    -1.589678572303     1.007825032230
         H            2.807608155268     1.535819906941    -0.764128572303     1.007825032230
         H            3.870123155268     0.120985906941    -0.892366572303     1.007825032230
         H           -1.958721844732    -1.367671093059    -0.531527572303     1.007825032230

  Basis Set: AUG-CC-PVTZ
    Blend: AUG-CC-PVTZ
  Basis Set: (AUG-CC-PVTZ AUX)
    Blend: AUG-CC-PVTZ-JKFIT
	 Reference Energy          =    -400.0865118747101405 [Eh]
	 Singles Energy            =      -0.0000000000000000 [Eh]
	 Same-Spin Energy          =      -0.4021755833991978 [Eh]
	 Opposite-Spin Energy      =      -1.3081800824298220 [Eh]
	 Correlation Energy        =      -1.7103556658290198 [Eh]
	 Total Energy              =    -401.7968675405391537 [Eh]

	 ================> DF-SCS-MP2 Energies <==================
	-----------------------------------------------------------
	 SCS Same-Spin Scale       =       0.3333333333333333 [-]
	 SCS Opposite-Spin Scale   =       1.2000000000000000 [-]
	 SCS Same-Spin Energy      =      -0.1340585277997326 [Eh]
	 SCS Opposite-Spin Energy  =      -1.5698160989157863 [Eh]
	 SCS Correlation Energy    =      -1.7038746267155189 [Eh]
	 SCS Total Energy          =    -401.7903865014256439 [Eh]
	-----------------------------------------------------------

  Dipole Moment: [D]
     X:     2.8700      Y:     3.1429      Z:     1.6190     Total:     4.5537

*** Psi4 exiting successfully. Buy a developer a beer!
