                               Psi4 1.3.2 release

  ==> Input File <==

--------------------------------------------------------------------------
#psi4
#
memory 32 gb

molecule  {
0 1
  O       -2.4925410    -0.6205970    -0.1535330
  O       -0.0069960    -1.4050930    -0.3804930
  N        0.8845720     0.3685180     0.7343320
  C       -1.5404070     0.3017530     0.3325960
  C        2.2569670    -0.1011270     0.6035390
  C       -0.1490540    -0.3186880     0.1981930
  C       -1.6458490     1.6048030    -0.4506110
  C        2.8658230     0.2522360    -0.7461750
  H       -1.7322500     0.4923850     1.3997900
  H        2.8336360     0.3321260     1.4253690
  H        2.2399750    -1.1846720     0.7384180
  H        0.7269573     1.1871804     1.1024971
  H       -1.3913480     1.4204780    -1.4971700
  H       -0.9867360     2.3841060    -0.0548340
  H       -2.6752710     1.9656290    -0.4028710
  H        2.2847230    -0.2144000    -1.5438430
  H        2.8717410     1.3343490    -0.8997070
  H        3.8959980    -0.1107530    -0.8084670
  H       -1.9544520    -1.3731060    -0.4835650
units angstrom
no_reorient  #important for SAPT in psi4, default
symmetry c1  #important for SAPT in psi4, default
}

set PROPERTIES_ORIGIN ["COM"]
properties('MP2/aug-cc-pvtz', properties = ['dipole'])
--------------------------------------------------------------------------

    Molecular point group: c1
  Charge       = 0
  Multiplicity = 1
  Basis Set: AUG-CC-PVTZ
    Blend: AUG-CC-PVTZ
  Basis Set: (AUG-CC-PVTZ AUX)
    Blend: AUG-CC-PVTZ-JKFIT

    Orbital Energies [Eh]
    ---------------------

    Doubly Occupied:

       1A    -20.548953     2A    -20.533952     3A    -15.588832
       4A    -11.359489     5A    -11.298689     6A    -11.274126
       7A    -11.231318     8A    -11.223602     9A     -1.399500
      10A     -1.347370    11A     -1.259192    12A     -1.053523
      13A     -1.015478    14A     -0.904122    15A     -0.852477
      16A     -0.816949    17A     -0.745720    18A     -0.677470
      19A     -0.651242    20A     -0.642066    21A     -0.614618
      22A     -0.600983    23A     -0.577559    24A     -0.563999
      25A     -0.543574    26A     -0.534307    27A     -0.521941
      28A     -0.515835    29A     -0.502840    30A     -0.446090
      31A     -0.436879    32A     -0.405456

  @DF-RHF Final Energy:  -400.08134734605909

   => Energetics <=

    Nuclear Repulsion Energy =            401.2538124315407231
    One-Electron Energy =               -1341.2940135534520323
    Two-Electron Energy =                 539.9588537758522762
    Total Energy =                       -400.0813473460590330
  Basis Set: (AUG-CC-PVTZ AUX)
    Blend: AUG-CC-PVTZ-RI
    Molecular point group: c1

    Geometry (in Angstrom), charge = 0, multiplicity = 1:

       Center              X                  Y                   Z               Mass
    ------------   -----------------  -----------------  -----------------  -----------------
         O           -2.492689735393    -0.619823749138    -0.153185459694    15.994914619570
         O           -0.007144735393    -1.404319749138    -0.380145459694    15.994914619570
         N            0.884423264607     0.369291250862     0.734679540306    14.003074004430
         C           -1.540555735393     0.302526250862     0.332943540306    12.000000000000
         C            2.256818264607    -0.100353749138     0.603886540306    12.000000000000
         C           -0.149202735393    -0.317914749138     0.198540540306    12.000000000000
         C           -1.645997735393     1.605576250862    -0.450263459694    12.000000000000
         C            2.865674264607     0.253009250862    -0.745827459694    12.000000000000
         H           -1.732398735393     0.493158250862     1.400137540306     1.007825032230
         H            2.833487264607     0.332899250862     1.425716540306     1.007825032230
         H            2.239826264607    -1.183898749138     0.738765540306     1.007825032230
         H            0.726808564607     1.187953650862     1.102844640306     1.007825032230
         H           -1.391496735393     1.421251250862    -1.496822459694     1.007825032230
         H           -0.986884735393     2.384879250862    -0.054486459694     1.007825032230
         H           -2.675419735393     1.966402250862    -0.402523459694     1.007825032230
         H            2.284574264607    -0.213626749138    -1.543495459694     1.007825032230
         H            2.871592264607     1.335122250862    -0.899359459694     1.007825032230
         H            3.895849264607    -0.109979749138    -0.808119459694     1.007825032230
         H           -1.954600735393    -1.372332749138    -0.483217459694     1.007825032230

  Basis Set: AUG-CC-PVTZ
    Blend: AUG-CC-PVTZ
  Basis Set: (AUG-CC-PVTZ AUX)
    Blend: AUG-CC-PVTZ-JKFIT
	 Reference Energy          =    -400.0813473460590899 [Eh]
	 Singles Energy            =      -0.0000000000000000 [Eh]
	 Same-Spin Energy          =      -0.4013756710016819 [Eh]
	 Opposite-Spin Energy      =      -1.3060536306664698 [Eh]
	 Correlation Energy        =      -1.7074293016681517 [Eh]
	 Total Energy              =    -401.7887766477272180 [Eh]

	 ================> DF-SCS-MP2 Energies <==================
	-----------------------------------------------------------
	 SCS Same-Spin Scale       =       0.3333333333333333 [-]
	 SCS Opposite-Spin Scale   =       1.2000000000000000 [-]
	 SCS Same-Spin Energy      =      -0.1337918903338940 [Eh]
	 SCS Opposite-Spin Energy  =      -1.5672643567997637 [Eh]
	 SCS Correlation Energy    =      -1.7010562471336577 [Eh]
	 SCS Total Energy          =    -401.7824035931927256 [Eh]
	-----------------------------------------------------------

  Dipole Moment: [D]
     X:     2.8928      Y:     3.0771      Z:     1.5212     Total:     4.4890

*** Psi4 exiting successfully. Buy a developer a beer!
