                               Psi4 1.3.2 release

  ==> Input File <==

--------------------------------------------------------------------------
#psi4
#
memory 32 gb

molecule  {
0 1
  O       -2.4925410    -0.6205970    -0.1535330
  O       -0.0069960    -1.4050930    -0.3804930
  N        0.8670181     0.3284195     0.6718990
  C       -1.5404070     0.3017530     0.3325960
  C        2.2569670    -0.1011270     0.6035390
  C       -0.1490540    -0.3186880     0.1981930
  C       -1.6458490     1.6048030    -0.4506110
  C        2.8658230     0.2522360    -0.7461750
  H       -1.7322500     0.4923850     1.3997900
  H        2.8798570     0.3050014     1.4052420
  H        2.2399750    -1.1846720     0.7384180
  H        0.7096630     1.2770080     1.1428940
  H       -1.3913480     1.4204780    -1.4971700
  H       -0.9867360     2.3841060    -0.0548340
  H       -2.6752710     1.9656290    -0.4028710
  H        2.2847230    -0.2144000    -1.5438430
  H        2.8717410     1.3343490    -0.8997070
  H        3.8959980    -0.1107530    -0.8084670
  H       -1.9544520    -1.3731060    -0.4835650
units angstrom
no_reorient  #important for SAPT in psi4, default
symmetry c1  #important for SAPT in psi4, default
}

set PROPERTIES_ORIGIN ["COM"]
properties('MP2/aug-cc-pvtz', properties = ['dipole'])
--------------------------------------------------------------------------

    Molecular point group: c1
  Charge       = 0
  Multiplicity = 1
  Basis Set: AUG-CC-PVTZ
    Blend: AUG-CC-PVTZ
  Basis Set: (AUG-CC-PVTZ AUX)
    Blend: AUG-CC-PVTZ-JKFIT

    Orbital Energies [Eh]
    ---------------------

    Doubly Occupied:

       1A    -20.546768     2A    -20.521532     3A    -15.606158
       4A    -11.349574     5A    -11.297077     6A    -11.277241
       7A    -11.230107     8A    -11.224189     9A     -1.398356
      10A     -1.345895    11A     -1.250867    12A     -1.056214
      13A     -1.015197    14A     -0.903980    15A     -0.851524
      16A     -0.787821    17A     -0.745295    18A     -0.679921
      19A     -0.652260    20A     -0.638623    21A     -0.617545
      22A     -0.591677    23A     -0.575887    24A     -0.562609
      25A     -0.543511    26A     -0.534453    27A     -0.520847
      28A     -0.508629    29A     -0.501362    30A     -0.444138
      31A     -0.432141    32A     -0.403591

  @DF-RHF Final Energy:  -400.07972143128751

   => Energetics <=

    Nuclear Repulsion Energy =            401.9033738357068728
    One-Electron Energy =               -1342.7362091216502904
    Two-Electron Energy =                 540.7531138546560214
    Total Energy =                       -400.0797214312874530
  Basis Set: (AUG-CC-PVTZ AUX)
    Blend: AUG-CC-PVTZ-RI
    Molecular point group: c1

    Geometry (in Angstrom), charge = 0, multiplicity = 1:

       Center              X                  Y                   Z               Mass
    ------------   -----------------  -----------------  -----------------  -----------------
         O           -2.490839228060    -0.615567574239    -0.145892729463    15.994914619570
         O           -0.005294228060    -1.400063574239    -0.372852729463    15.994914619570
         N            0.868719871940     0.333448925761     0.679539270537    14.003074004430
         C           -1.538705228060     0.306782425761     0.340236270537    12.000000000000
         C            2.258668771940    -0.096097574239     0.611179270537    12.000000000000
         C           -0.147352228060    -0.313658574239     0.205833270537    12.000000000000
         C           -1.644147228060     1.609832425761    -0.442970729463    12.000000000000
         C            2.867524771940     0.257265425761    -0.738534729463    12.000000000000
         H           -1.730548228060     0.497414425761     1.407430270537     1.007825032230
         H            2.881558771940     0.310030825761     1.412882270537     1.007825032230
         H            2.241676771940    -1.179642574239     0.746058270537     1.007825032230
         H            0.711364771940     1.282037425761     1.150534270537     1.007825032230
         H           -1.389646228060     1.425507425761    -1.489529729463     1.007825032230
         H           -0.985034228060     2.389135425761    -0.047193729463     1.007825032230
         H           -2.673569228060     1.970658425761    -0.395230729463     1.007825032230
         H            2.286424771940    -0.209370574239    -1.536202729463     1.007825032230
         H            2.873442771940     1.339378425761    -0.892066729463     1.007825032230
         H            3.897699771940    -0.105723574239    -0.800826729463     1.007825032230
         H           -1.952750228060    -1.368076574239    -0.475924729463     1.007825032230

  Basis Set: AUG-CC-PVTZ
    Blend: AUG-CC-PVTZ
  Basis Set: (AUG-CC-PVTZ AUX)
    Blend: AUG-CC-PVTZ-JKFIT
	 Reference Energy          =    -400.0797214312875099 [Eh]
	 Singles Energy            =      -0.0000000000000000 [Eh]
	 Same-Spin Energy          =      -0.4024862474544352 [Eh]
	 Opposite-Spin Energy      =      -1.3079396434880608 [Eh]
	 Correlation Energy        =      -1.7104258909424961 [Eh]
	 Total Energy              =    -401.7901473222299842 [Eh]

	 ================> DF-SCS-MP2 Energies <==================
	-----------------------------------------------------------
	 SCS Same-Spin Scale       =       0.3333333333333333 [-]
	 SCS Opposite-Spin Scale   =       1.2000000000000000 [-]
	 SCS Same-Spin Energy      =      -0.1341620824848117 [Eh]
	 SCS Opposite-Spin Energy  =      -1.5695275721856730 [Eh]
	 SCS Correlation Energy    =      -1.7036896546704847 [Eh]
	 SCS Total Energy          =    -401.7834110859579937 [Eh]
	-----------------------------------------------------------

  Dipole Moment: [D]
     X:     3.1200      Y:     3.3086      Z:     1.7520     Total:     4.8735

*** Psi4 exiting successfully. Buy a developer a beer!
