                               Psi4 1.3.2 release

  ==> Input File <==

--------------------------------------------------------------------------
#psi4
#
memory 32 gb

molecule  {
0 1
  O       -2.4925410    -0.6205970    -0.1535330
  O       -0.0069960    -1.4050930    -0.3804930
  N        0.8845720     0.3685180     0.7343320
  C       -1.5404070     0.3017530     0.3325960
  C        2.2528403    -0.1111772     0.5969437
  C       -0.1414939    -0.3267781     0.1941174
  C       -1.6458490     1.6048030    -0.4506110
  C        2.8658230     0.2522360    -0.7461750
  H       -1.7322500     0.4923850     1.3997900
  H        2.8336360     0.3321260     1.4253690
  H        2.2399750    -1.1846720     0.7384180
  H        0.7096630     1.2770080     1.1428940
  H       -1.3913480     1.4204780    -1.4971700
  H       -0.9867360     2.3841060    -0.0548340
  H       -2.6752710     1.9656290    -0.4028710
  H        2.2847230    -0.2144000    -1.5438430
  H        2.8717410     1.3343490    -0.8997070
  H        3.8959980    -0.1107530    -0.8084670
  H       -1.9544520    -1.3731060    -0.4835650
units angstrom
no_reorient  #important for SAPT in psi4, default
symmetry c1  #important for SAPT in psi4, default
}

set PROPERTIES_ORIGIN ["COM"]
properties('MP2/aug-cc-pvtz', properties = ['dipole'])
--------------------------------------------------------------------------

    Molecular point group: c1
  Charge       = 0
  Multiplicity = 1
  Basis Set: AUG-CC-PVTZ
    Blend: AUG-CC-PVTZ
  Basis Set: (AUG-CC-PVTZ AUX)
    Blend: AUG-CC-PVTZ-JKFIT

    Orbital Energies [Eh]
    ---------------------

    Doubly Occupied:

       1A    -20.548144     2A    -20.534849     3A    -15.598039
       4A    -11.358108     5A    -11.297513     6A    -11.273816
       7A    -11.230414     8A    -11.223249     9A     -1.402793
      10A     -1.347594    11A     -1.246733    12A     -1.051291
      13A     -1.012347    14A     -0.901014    15A     -0.847687
      16A     -0.795371    17A     -0.743921    18A     -0.677065
      19A     -0.646927    20A     -0.643183    21A     -0.613199
      22A     -0.599696    23A     -0.577118    24A     -0.563155
      25A     -0.543056    26A     -0.533937    27A     -0.522162
      28A     -0.515536    29A     -0.502969    30A     -0.445300
      31A     -0.434777    32A     -0.404353

  @DF-RHF Final Energy:  -400.08827765478668

   => Energetics <=

    Nuclear Repulsion Energy =            400.7497336478553507
    One-Electron Energy =               -1340.4053898649708572
    Two-Electron Energy =                 539.5673785623288268
    Total Energy =                       -400.0882776547866797
  Basis Set: (AUG-CC-PVTZ AUX)
    Blend: AUG-CC-PVTZ-RI
    Molecular point group: c1

    Geometry (in Angstrom), charge = 0, multiplicity = 1:

       Center              X                  Y                   Z               Mass
    ------------   -----------------  -----------------  -----------------  -----------------
         O           -2.492892770744    -0.618737703653    -0.152439486386    15.994914619570
         O           -0.007347770744    -1.403233703653    -0.379399486386    15.994914619570
         N            0.884220229256     0.370377296347     0.735425513614    14.003074004430
         C           -1.540758770744     0.303612296347     0.333689513614    12.000000000000
         C            2.252488529256    -0.109317903653     0.598037213614    12.000000000000
         C           -0.141845670744    -0.324918803653     0.195210913614    12.000000000000
         C           -1.646200770744     1.606662296347    -0.449517486386    12.000000000000
         C            2.865471229256     0.254095296347    -0.745081486386    12.000000000000
         H           -1.732601770744     0.494244296347     1.400883513614     1.007825032230
         H            2.833284229256     0.333985296347     1.426462513614     1.007825032230
         H            2.239623229256    -1.182812703653     0.739511513614     1.007825032230
         H            0.709311229256     1.278867296347     1.143987513614     1.007825032230
         H           -1.391699770744     1.422337296347    -1.496076486386     1.007825032230
         H           -0.987087770744     2.385965296347    -0.053740486386     1.007825032230
         H           -2.675622770744     1.967488296347    -0.401777486386     1.007825032230
         H            2.284371229256    -0.212540703653    -1.542749486386     1.007825032230
         H            2.871389229256     1.336208296347    -0.898613486386     1.007825032230
         H            3.895646229256    -0.108893703653    -0.807373486386     1.007825032230
         H           -1.954803770744    -1.371246703653    -0.482471486386     1.007825032230

  Basis Set: AUG-CC-PVTZ
    Blend: AUG-CC-PVTZ
  Basis Set: (AUG-CC-PVTZ AUX)
    Blend: AUG-CC-PVTZ-JKFIT
	 Reference Energy          =    -400.0882776547866797 [Eh]
	 Singles Energy            =      -0.0000000000000000 [Eh]
	 Same-Spin Energy          =      -0.4018846702548615 [Eh]
	 Opposite-Spin Energy      =      -1.3072312139557316 [Eh]
	 Correlation Energy        =      -1.7091158842105931 [Eh]
	 Total Energy              =    -401.7973935389972553 [Eh]

	 ================> DF-SCS-MP2 Energies <==================
	-----------------------------------------------------------
	 SCS Same-Spin Scale       =       0.3333333333333333 [-]
	 SCS Opposite-Spin Scale   =       1.2000000000000000 [-]
	 SCS Same-Spin Energy      =      -0.1339615567516205 [Eh]
	 SCS Opposite-Spin Energy  =      -1.5686774567468780 [Eh]
	 SCS Correlation Energy    =      -1.7026390134984986 [Eh]
	 SCS Total Energy          =    -401.7909166682852060 [Eh]
	-----------------------------------------------------------

  Dipole Moment: [D]
     X:     2.9178      Y:     3.0959      Z:     1.5362     Total:     4.5231

*** Psi4 exiting successfully. Buy a developer a beer!
