                               Psi4 1.4a3.dev225

  ==> Input File <==

--------------------------------------------------------------------------
#psi4
#
memory 32 gb

molecule  {
0 1
  O       -2.5334200    -0.7491890    -0.0380440
  O       -0.0309920    -1.3916750    -0.5246560
  N        0.8474210     0.2516040     0.7908210
  C       -1.5793960     0.2040340     0.3844480
  C        2.2299320    -0.1523350     0.5631470
  C       -0.1668956    -0.3768417     0.1938180
  C       -1.7305020     1.4971750    -0.4144490
  C        2.7876300     0.3918150    -0.7462470
  H       -1.7371730     0.4054880     1.4537200
  H        2.8183710     0.1913570     1.4185970
  H        2.2480760    -1.2444890     0.5585260
  H        0.6595560     1.1005830     1.3085070
  H       -1.5202540     1.2971370    -1.4686150
  H       -1.0543700     2.2823790    -0.0604110
  H       -2.7592110     1.8535180    -0.3272230
  H        2.1936920     0.0168210    -1.5822170
  H        2.7616940     1.4848860    -0.7566670
  H        3.8242090     0.0700520    -0.8849050
  H       -2.0046360    -1.4186050    -0.5240660
units angstrom
no_reorient  #important for SAPT in psi4, default
symmetry c1  #important for SAPT in psi4, default
}

set PROPERTIES_ORIGIN ["COM"]
properties('MP2/aug-cc-pvtz', properties = ['dipole'])
--------------------------------------------------------------------------

    Molecular point group: c1
  Charge       = 0
  Multiplicity = 1
  Basis Set: AUG-CC-PVTZ
    Blend: AUG-CC-PVTZ
  Basis Set: (AUG-CC-PVTZ AUX)
    Blend: AUG-CC-PVTZ-JKFIT

    Orbital Energies [Eh]
    ---------------------

    Doubly Occupied:

       1A    -20.548628     2A    -20.529125     3A    -15.602791
       4A    -11.357948     5A    -11.298267     6A    -11.276247
       7A    -11.230000     8A    -11.225234     9A     -1.391571
      10A     -1.344386    11A     -1.250395    12A     -1.052190
      13A     -1.014054    14A     -0.902557    15A     -0.849057
      16A     -0.798662    17A     -0.743633    18A     -0.675179
      19A     -0.644983    20A     -0.636013    21A     -0.615638
      22A     -0.598556    23A     -0.580229    24A     -0.564537
      25A     -0.542523    26A     -0.533050    27A     -0.520008
      28A     -0.510607    29A     -0.503562    30A     -0.445839
      31A     -0.431152    32A     -0.405414

  @DF-RHF Final Energy:  -400.08660578465742

   => Energetics <=

    Nuclear Repulsion Energy =            400.3876192939150656
    One-Electron Energy =               -1339.7043816802593028
    Two-Electron Energy =                 539.2301566016867582
    Total Energy =                       -400.0866057846574222
  Basis Set: (AUG-CC-PVTZ AUX)
    Blend: AUG-CC-PVTZ-RI
    Molecular point group: c1

    Geometry (in Angstrom), charge = 0, multiplicity = 1:

       Center              X                  Y                   Z               Mass
    ------------   -----------------  -----------------  -----------------  -----------------
         O           -2.489096179357    -0.699076190962    -0.046334726606    15.994914619570
         O            0.013331820643    -1.341562190962    -0.532946726606    15.994914619570
         N            0.891744820643     0.301716809038     0.782530273394    14.003074004430
         C           -1.535072179357     0.254146809038     0.376157273394    12.000000000000
         C            2.274255820643    -0.102222190962     0.554856273394    12.000000000000
         C           -0.122571779357    -0.326728890962     0.185527273394    12.000000000000
         C           -1.686178179357     1.547287809038    -0.422739726606    12.000000000000
         C            2.831953820643     0.441927809038    -0.754537726606    12.000000000000
         H           -1.692849179357     0.455600809038     1.445429273394     1.007825032230
         H            2.862694820643     0.241469809038     1.410306273394     1.007825032230
         H            2.292399820643    -1.194376190962     0.550235273394     1.007825032230
         H            0.703879820643     1.150695809038     1.300216273394     1.007825032230
         H           -1.475930179357     1.347249809038    -1.476905726606     1.007825032230
         H           -1.010046179357     2.332491809038    -0.068701726606     1.007825032230
         H           -2.714887179357     1.903630809038    -0.335513726606     1.007825032230
         H            2.238015820643     0.066933809038    -1.590507726606     1.007825032230
         H            2.806017820643     1.534998809038    -0.764957726606     1.007825032230
         H            3.868532820643     0.120164809038    -0.893195726606     1.007825032230
         H           -1.960312179357    -1.368492190962    -0.532356726606     1.007825032230

  Basis Set: AUG-CC-PVTZ
    Blend: AUG-CC-PVTZ
  Basis Set: (AUG-CC-PVTZ AUX)
    Blend: AUG-CC-PVTZ-JKFIT
	 Reference Energy          =    -400.0866057846574222 [Eh]
	 Singles Energy            =      -0.0000000000000000 [Eh]
	 Same-Spin Energy          =      -0.4021659060349285 [Eh]
	 Opposite-Spin Energy      =      -1.3080375028168225 [Eh]
	 Correlation Energy        =      -1.7102034088517510 [Eh]
	 Total Energy              =    -401.7968091935091479 [Eh]

	 ================> DF-SCS-MP2 Energies <==================
	-----------------------------------------------------------
	 SCS Same-Spin Scale       =       0.3333333333333333 [-]
	 SCS Opposite-Spin Scale   =       1.2000000000000000 [-]
	 SCS Same-Spin Energy      =      -0.1340553020116428 [Eh]
	 SCS Opposite-Spin Energy  =      -1.5696450033801870 [Eh]
	 SCS Correlation Energy    =      -1.7037003053918298 [Eh]
	 SCS Total Energy          =    -401.7903060900492278 [Eh]
	-----------------------------------------------------------

  Dipole Moment: [D]
     X:     2.9977      Y:     3.2042      Z:     1.6766     Total:     4.6973

*** Psi4 exiting successfully. Buy a developer a beer!
