                               Psi4 1.4a3.dev225

  ==> Input File <==

--------------------------------------------------------------------------
#psi4
#
memory 32 gb

molecule  {
0 1
  O       -2.5334200    -0.7491890    -0.0380440
  O       -0.0309920    -1.3916750    -0.5246560
  N        0.8474210     0.2516040     0.7908210
  C       -1.5793960     0.2040340     0.3844480
  C        2.2109701    -0.1467947     0.5662697
  C       -0.1821000    -0.3862620     0.1848690
  C       -1.7305020     1.4971750    -0.4144490
  C        2.7876300     0.3918150    -0.7462470
  H       -1.7371730     0.4054880     1.4537200
  H        2.8183710     0.1913570     1.4185970
  H        2.2480760    -1.2444890     0.5585260
  H        0.6595560     1.1005830     1.3085070
  H       -1.5202540     1.2971370    -1.4686150
  H       -1.0543700     2.2823790    -0.0604110
  H       -2.7592110     1.8535180    -0.3272230
  H        2.1936920     0.0168210    -1.5822170
  H        2.7616940     1.4848860    -0.7566670
  H        3.8242090     0.0700520    -0.8849050
  H       -2.0046360    -1.4186050    -0.5240660
units angstrom
no_reorient  #important for SAPT in psi4, default
symmetry c1  #important for SAPT in psi4, default
}

set PROPERTIES_ORIGIN ["COM"]
properties('MP2/aug-cc-pvtz', properties = ['dipole'])
--------------------------------------------------------------------------

    Molecular point group: c1
  Charge       = 0
  Multiplicity = 1
  Basis Set: AUG-CC-PVTZ
    Blend: AUG-CC-PVTZ
  Basis Set: (AUG-CC-PVTZ AUX)
    Blend: AUG-CC-PVTZ-JKFIT

    Orbital Energies [Eh]
    ---------------------

    Doubly Occupied:

       1A    -20.550030     2A    -20.533973     3A    -15.600181
       4A    -11.360054     5A    -11.299191     6A    -11.273779
       7A    -11.231177     8A    -11.223421     9A     -1.398242
      10A     -1.347517    11A     -1.249360    12A     -1.051664
      13A     -1.011378    14A     -0.903780    15A     -0.848170
      16A     -0.795634    17A     -0.746084    18A     -0.677071
      19A     -0.647175    20A     -0.638483    21A     -0.614439
      22A     -0.596952    23A     -0.582031    24A     -0.564982
      25A     -0.542127    26A     -0.533221    27A     -0.520512
      28A     -0.513500    29A     -0.500373    30A     -0.447856
      31A     -0.434872    32A     -0.403208

  @DF-RHF Final Energy:  -400.08719628017542

   => Energetics <=

    Nuclear Repulsion Energy =            400.6753306208758545
    One-Electron Energy =               -1340.2441798709876366
    Two-Electron Energy =                 539.4816529699363628
    Total Energy =                       -400.0871962801753625
  Basis Set: (AUG-CC-PVTZ AUX)
    Blend: AUG-CC-PVTZ-RI
    Molecular point group: c1

    Geometry (in Angstrom), charge = 0, multiplicity = 1:

       Center              X                  Y                   Z               Mass
    ------------   -----------------  -----------------  -----------------  -----------------
         O           -2.485594307331    -0.698678510690    -0.045737560481    15.994914619570
         O            0.016833692669    -1.341164510690    -0.532349560481    15.994914619570
         N            0.895246692669     0.302114489310     0.783127439519    14.003074004430
         C           -1.531570307331     0.254544489310     0.376754439519    12.000000000000
         C            2.258795792669    -0.096284210690     0.558576139519    12.000000000000
         C           -0.134274307331    -0.335751510690     0.177175439519    12.000000000000
         C           -1.682676307331     1.547685489310    -0.422142560481    12.000000000000
         C            2.835455692669     0.442325489310    -0.753940560481    12.000000000000
         H           -1.689347307331     0.455998489310     1.446026439519     1.007825032230
         H            2.866196692669     0.241867489310     1.410903439519     1.007825032230
         H            2.295901692669    -1.193978510690     0.550832439519     1.007825032230
         H            0.707381692669     1.151093489310     1.300813439519     1.007825032230
         H           -1.472428307331     1.347647489310    -1.476308560481     1.007825032230
         H           -1.006544307331     2.332889489310    -0.068104560481     1.007825032230
         H           -2.711385307331     1.904028489310    -0.334916560481     1.007825032230
         H            2.241517692669     0.067331489310    -1.589910560481     1.007825032230
         H            2.809519692669     1.535396489310    -0.764360560481     1.007825032230
         H            3.872034692669     0.120562489310    -0.892598560481     1.007825032230
         H           -1.956810307331    -1.368094510690    -0.531759560481     1.007825032230

  Basis Set: AUG-CC-PVTZ
    Blend: AUG-CC-PVTZ
  Basis Set: (AUG-CC-PVTZ AUX)
    Blend: AUG-CC-PVTZ-JKFIT
	 Reference Energy          =    -400.0871962801754194 [Eh]
	 Singles Energy            =      -0.0000000000000000 [Eh]
	 Same-Spin Energy          =      -0.4021189073768677 [Eh]
	 Opposite-Spin Energy      =      -1.3078325457268203 [Eh]
	 Correlation Energy        =      -1.7099514531036881 [Eh]
	 Total Energy              =    -401.7971477332791324 [Eh]

	 ================> DF-SCS-MP2 Energies <==================
	-----------------------------------------------------------
	 SCS Same-Spin Scale       =       0.3333333333333333 [-]
	 SCS Opposite-Spin Scale   =       1.2000000000000000 [-]
	 SCS Same-Spin Energy      =      -0.1340396357922892 [Eh]
	 SCS Opposite-Spin Energy  =      -1.5693990548721843 [Eh]
	 SCS Correlation Energy    =      -1.7034386906644736 [Eh]
	 SCS Total Energy          =    -401.7906349708399034 [Eh]
	-----------------------------------------------------------

  Dipole Moment: [D]
     X:     2.7995      Y:     3.1308      Z:     1.6183     Total:     4.5009

*** Psi4 exiting successfully. Buy a developer a beer!
