                               Psi4 1.3.2 release

  ==> Input File <==

--------------------------------------------------------------------------
#psi4
#
memory 32 gb

molecule  {
0 1
  O       -2.4925410    -0.6205970    -0.1535330
  O       -0.0069960    -1.4050930    -0.3804930
  N        0.8845720     0.3685180     0.7343320
  C       -1.5404070     0.3017530     0.3325960
  C        2.2569670    -0.1011270     0.6035390
  C       -0.1490540    -0.3186880     0.1981930
  C       -1.6458490     1.6048030    -0.4506110
  C        2.8658230     0.2522360    -0.7461750
  H       -1.7322500     0.4923850     1.3997900
  H        2.8336360     0.3321260     1.4253690
  H        2.2399750    -1.1846720     0.7384180
  H        0.6923687     1.3668356     1.1832909
  H       -1.3913480     1.4204780    -1.4971700
  H       -0.9867360     2.3841060    -0.0548340
  H       -2.6752710     1.9656290    -0.4028710
  H        2.2847230    -0.2144000    -1.5438430
  H        2.8717410     1.3343490    -0.8997070
  H        3.8959980    -0.1107530    -0.8084670
  H       -1.9544520    -1.3731060    -0.4835650
units angstrom
no_reorient  #important for SAPT in psi4, default
symmetry c1  #important for SAPT in psi4, default
}

set PROPERTIES_ORIGIN ["COM"]
properties('MP2/aug-cc-pvtz', properties = ['dipole'])
--------------------------------------------------------------------------

    Molecular point group: c1
  Charge       = 0
  Multiplicity = 1
  Basis Set: AUG-CC-PVTZ
    Blend: AUG-CC-PVTZ
  Basis Set: (AUG-CC-PVTZ AUX)
    Blend: AUG-CC-PVTZ-JKFIT

    Orbital Energies [Eh]
    ---------------------

    Doubly Occupied:

       1A    -20.548141     2A    -20.533006     3A    -15.607230
       4A    -11.358726     5A    -11.297683     6A    -11.273995
       7A    -11.230834     8A    -11.222964     9A     -1.397515
      10A     -1.346048    11A     -1.236096    12A     -1.052062
      13A     -1.010787    14A     -0.901812    15A     -0.847581
      16A     -0.773056    17A     -0.743367    18A     -0.676017
      19A     -0.644495    20A     -0.640891    21A     -0.612163
      22A     -0.593329    23A     -0.576630    24A     -0.562900
      25A     -0.542348    26A     -0.533758    27A     -0.520777
      28A     -0.512937    29A     -0.501277    30A     -0.445285
      31A     -0.435504    32A     -0.401969

  @DF-RHF Final Energy:  -400.07703327877334

   => Energetics <=

    Nuclear Repulsion Energy =            400.0765399390214725
    One-Electron Energy =               -1339.1447726047999822
    Two-Electron Energy =                 538.9911993870051674
    Total Energy =                       -400.0770332787733423
  Basis Set: (AUG-CC-PVTZ AUX)
    Blend: AUG-CC-PVTZ-RI
    Molecular point group: c1

    Geometry (in Angstrom), charge = 0, multiplicity = 1:

       Center              X                  Y                   Z               Mass
    ------------   -----------------  -----------------  -----------------  -----------------
         O           -2.492391994011    -0.621370235193    -0.153880939063    15.994914619570
         O           -0.006846994011    -1.405866235193    -0.380840939063    15.994914619570
         N            0.884721005989     0.367744764807     0.733984060937    14.003074004430
         C           -1.540257994011     0.300979764807     0.332248060937    12.000000000000
         C            2.257116005989    -0.101900235193     0.603191060937    12.000000000000
         C           -0.148904994011    -0.319461235193     0.197845060937    12.000000000000
         C           -1.645699994011     1.604029764807    -0.450958939063    12.000000000000
         C            2.865972005989     0.251462764807    -0.746522939063    12.000000000000
         H           -1.732100994011     0.491611764807     1.399442060937     1.007825032230
         H            2.833785005989     0.331352764807     1.425021060937     1.007825032230
         H            2.240124005989    -1.185445235193     0.738070060937     1.007825032230
         H            0.692517705989     1.366062364807     1.182942960937     1.007825032230
         H           -1.391198994011     1.419704764807    -1.497517939063     1.007825032230
         H           -0.986586994011     2.383332764807    -0.055181939063     1.007825032230
         H           -2.675121994011     1.964855764807    -0.403218939063     1.007825032230
         H            2.284872005989    -0.215173235193    -1.544190939063     1.007825032230
         H            2.871890005989     1.333575764807    -0.900054939063     1.007825032230
         H            3.896147005989    -0.111526235193    -0.808814939063     1.007825032230
         H           -1.954302994011    -1.373879235193    -0.483912939063     1.007825032230

  Basis Set: AUG-CC-PVTZ
    Blend: AUG-CC-PVTZ
  Basis Set: (AUG-CC-PVTZ AUX)
    Blend: AUG-CC-PVTZ-JKFIT
	 Reference Energy          =    -400.0770332787733423 [Eh]
	 Singles Energy            =      -0.0000000000000000 [Eh]
	 Same-Spin Energy          =      -0.4029257389210560 [Eh]
	 Opposite-Spin Energy      =      -1.3097207381119764 [Eh]
	 Correlation Energy        =      -1.7126464770330325 [Eh]
	 Total Energy              =    -401.7896797558063895 [Eh]

	 ================> DF-SCS-MP2 Energies <==================
	-----------------------------------------------------------
	 SCS Same-Spin Scale       =       0.3333333333333333 [-]
	 SCS Opposite-Spin Scale   =       1.2000000000000000 [-]
	 SCS Same-Spin Energy      =      -0.1343085796403520 [Eh]
	 SCS Opposite-Spin Energy  =      -1.5716648857343716 [Eh]
	 SCS Correlation Energy    =      -1.7059734653747236 [Eh]
	 SCS Total Energy          =    -401.7830067441480537 [Eh]
	-----------------------------------------------------------

  Dipole Moment: [D]
     X:     2.9122      Y:     3.2165      Z:     1.5974     Total:     4.6237

*** Psi4 exiting successfully. Buy a developer a beer!
