                               Psi4 1.4a3.dev225

  ==> Input File <==

--------------------------------------------------------------------------
#psi4
#
memory 32 gb

molecule  {
0 1
  O       -2.5334200    -0.7491890    -0.0380440
  O       -0.0309920    -1.3916750    -0.5246560
  N        0.8474210     0.2516040     0.7908210
  C       -1.5793960     0.2040340     0.3844480
  C        2.2299320    -0.1523350     0.5631470
  C       -0.1821000    -0.3862620     0.1848690
  C       -1.7354482     1.5395034    -0.4405993
  C        2.7876300     0.3918150    -0.7462470
  H       -1.7371730     0.4054880     1.4537200
  H        2.8183710     0.1913570     1.4185970
  H        2.2480760    -1.2444890     0.5585260
  H        0.6595560     1.1005830     1.3085070
  H       -1.5202540     1.2971370    -1.4686150
  H       -1.0543700     2.2823790    -0.0604110
  H       -2.7592110     1.8535180    -0.3272230
  H        2.1936920     0.0168210    -1.5822170
  H        2.7616940     1.4848860    -0.7566670
  H        3.8242090     0.0700520    -0.8849050
  H       -2.0046360    -1.4186050    -0.5240660
units angstrom
no_reorient  #important for SAPT in psi4, default
symmetry c1  #important for SAPT in psi4, default
}

set PROPERTIES_ORIGIN ["COM"]
properties('MP2/aug-cc-pvtz', properties = ['dipole'])
--------------------------------------------------------------------------

    Molecular point group: c1
  Charge       = 0
  Multiplicity = 1
  Basis Set: AUG-CC-PVTZ
    Blend: AUG-CC-PVTZ
  Basis Set: (AUG-CC-PVTZ AUX)
    Blend: AUG-CC-PVTZ-JKFIT

    Orbital Energies [Eh]
    ---------------------

    Doubly Occupied:

       1A    -20.549808     2A    -20.532685     3A    -15.599021
       4A    -11.358935     5A    -11.300349     6A    -11.274305
       7A    -11.229398     8A    -11.223892     9A     -1.396637
      10A     -1.346167    11A     -1.244559    12A     -1.047872
      13A     -1.009391    14A     -0.904277    15A     -0.849425
      16A     -0.793677    17A     -0.744053    18A     -0.673940
      19A     -0.644732    20A     -0.635602    21A     -0.614081
      22A     -0.598269    23A     -0.576659    24A     -0.568819
      25A     -0.547307    26A     -0.536330    27A     -0.521630
      28A     -0.513675    29A     -0.502913    30A     -0.444235
      31A     -0.431285    32A     -0.403347

  @DF-RHF Final Energy:  -400.08591213147668

   => Energetics <=

    Nuclear Repulsion Energy =            399.5646527440489422
    One-Electron Energy =               -1338.0665833155940163
    Two-Electron Energy =                 538.4160184400683420
    Total Energy =                       -400.0859121314766753
  Basis Set: (AUG-CC-PVTZ AUX)
    Blend: AUG-CC-PVTZ-RI
    Molecular point group: c1

    Geometry (in Angstrom), charge = 0, multiplicity = 1:

       Center              X                  Y                   Z               Mass
    ------------   -----------------  -----------------  -----------------  -----------------
         O           -2.487030845316    -0.702449103885    -0.042737226824    15.994914619570
         O            0.015397154684    -1.344935103885    -0.529349226824    15.994914619570
         N            0.893810154684     0.298343896115     0.786127773176    14.003074004430
         C           -1.533006845316     0.250773896115     0.379754773176    12.000000000000
         C            2.276321154684    -0.105595103885     0.558453773176    12.000000000000
         C           -0.135710845316    -0.339522103885     0.180175773176    12.000000000000
         C           -1.689059045316     1.586243296115    -0.445292526824    12.000000000000
         C            2.834019154684     0.438554896115    -0.750940226824    12.000000000000
         H           -1.690783845316     0.452227896115     1.449026773176     1.007825032230
         H            2.864760154684     0.238096896115     1.413903773176     1.007825032230
         H            2.294465154684    -1.197749103885     0.553832773176     1.007825032230
         H            0.705945154684     1.147322896115     1.303813773176     1.007825032230
         H           -1.473864845316     1.343876896115    -1.473308226824     1.007825032230
         H           -1.007980845316     2.329118896115    -0.065104226824     1.007825032230
         H           -2.712821845316     1.900257896115    -0.331916226824     1.007825032230
         H            2.240081154684     0.063560896115    -1.586910226824     1.007825032230
         H            2.808083154684     1.531625896115    -0.761360226824     1.007825032230
         H            3.870598154684     0.116791896115    -0.889598226824     1.007825032230
         H           -1.958246845316    -1.371865103885    -0.528759226824     1.007825032230

  Basis Set: AUG-CC-PVTZ
    Blend: AUG-CC-PVTZ
  Basis Set: (AUG-CC-PVTZ AUX)
    Blend: AUG-CC-PVTZ-JKFIT
	 Reference Energy          =    -400.0859121314766753 [Eh]
	 Singles Energy            =      -0.0000000000000000 [Eh]
	 Same-Spin Energy          =      -0.4018104360933701 [Eh]
	 Opposite-Spin Energy      =      -1.3077278528847296 [Eh]
	 Correlation Energy        =      -1.7095382889780997 [Eh]
	 Total Energy              =    -401.7954504204547561 [Eh]

	 ================> DF-SCS-MP2 Energies <==================
	-----------------------------------------------------------
	 SCS Same-Spin Scale       =       0.3333333333333333 [-]
	 SCS Opposite-Spin Scale   =       1.2000000000000000 [-]
	 SCS Same-Spin Energy      =      -0.1339368120311233 [Eh]
	 SCS Opposite-Spin Energy  =      -1.5692734234616754 [Eh]
	 SCS Correlation Energy    =      -1.7032102354927987 [Eh]
	 SCS Total Energy          =    -401.7891223669694796 [Eh]
	-----------------------------------------------------------

  Dipole Moment: [D]
     X:     2.8554      Y:     3.1081      Z:     1.6215     Total:     4.5213

*** Psi4 exiting successfully. Buy a developer a beer!
