                               Psi4 1.3.2 release

  ==> Input File <==

--------------------------------------------------------------------------
#psi4
#
memory 32 gb

molecule  {
0 1
  O       -2.4925410    -0.6205970    -0.1535330
  O       -0.0069960    -1.4050930    -0.3804930
  N        0.8813837     0.3619214     0.7239468
  C       -1.5404070     0.3017530     0.3325960
  C        2.2569670    -0.1011270     0.6035390
  C       -0.1490540    -0.3186880     0.1981930
  C       -1.6458490     1.6048030    -0.4506110
  C        2.8658230     0.2522360    -0.7461750
  H       -1.7322500     0.4923850     1.3997900
  H        2.8414527     0.3276857     1.4221695
  H        2.2399750    -1.1846720     0.7384180
  H        0.7096630     1.2770080     1.1428940
  H       -1.3913480     1.4204780    -1.4971700
  H       -0.9867360     2.3841060    -0.0548340
  H       -2.6752710     1.9656290    -0.4028710
  H        2.2847230    -0.2144000    -1.5438430
  H        2.8717410     1.3343490    -0.8997070
  H        3.8959980    -0.1107530    -0.8084670
  H       -1.9544520    -1.3731060    -0.4835650
units angstrom
no_reorient  #important for SAPT in psi4, default
symmetry c1  #important for SAPT in psi4, default
}

set PROPERTIES_ORIGIN ["COM"]
properties('MP2/aug-cc-pvtz', properties = ['dipole'])
--------------------------------------------------------------------------

    Molecular point group: c1
  Charge       = 0
  Multiplicity = 1
  Basis Set: AUG-CC-PVTZ
    Blend: AUG-CC-PVTZ
  Basis Set: (AUG-CC-PVTZ AUX)
    Blend: AUG-CC-PVTZ-JKFIT

    Orbital Energies [Eh]
    ---------------------

    Doubly Occupied:

       1A    -20.548238     2A    -20.531413     3A    -15.600061
       4A    -11.357483     5A    -11.297981     6A    -11.274498
       7A    -11.230927     8A    -11.223415     9A     -1.398161
      10A     -1.346421    11A     -1.246698    12A     -1.053246
      13A     -1.013144    14A     -0.902949    15A     -0.849330
      16A     -0.793272    17A     -0.744905    18A     -0.677072
      19A     -0.648681    20A     -0.640960    21A     -0.614054
      22A     -0.596807    23A     -0.576904    24A     -0.563356
      25A     -0.543074    26A     -0.534116    27A     -0.521112
      28A     -0.513660    29A     -0.502167    30A     -0.445427
      31A     -0.435577    32A     -0.403613

  @DF-RHF Final Energy:  -400.08762507384938

   => Energetics <=

    Nuclear Repulsion Energy =            400.8377844223570605
    One-Electron Energy =               -1340.5933749072983119
    Two-Electron Energy =                 539.6679654110918136
    Total Energy =                       -400.0876250738493809
  Basis Set: (AUG-CC-PVTZ AUX)
    Blend: AUG-CC-PVTZ-RI
    Molecular point group: c1

    Geometry (in Angstrom), charge = 0, multiplicity = 1:

       Center              X                  Y                   Z               Mass
    ------------   -----------------  -----------------  -----------------  -----------------
         O           -2.492226819129    -0.619769792231    -0.152263549932    15.994914619570
         O           -0.006681819129    -1.404265792231    -0.379223549932    15.994914619570
         N            0.881697880871     0.362748607769     0.725216250068    14.003074004430
         C           -1.540092819129     0.302580207769     0.333865450068    12.000000000000
         C            2.257281180871    -0.100299792231     0.604808450068    12.000000000000
         C           -0.148739819129    -0.317860792231     0.199462450068    12.000000000000
         C           -1.645534819129     1.605630207769    -0.449341549932    12.000000000000
         C            2.866137180871     0.253063207769    -0.744905549932    12.000000000000
         H           -1.731935819129     0.493212207769     1.401059450068     1.007825032230
         H            2.841766880871     0.328512907769     1.423438950068     1.007825032230
         H            2.240289180871    -1.183844792231     0.739687450068     1.007825032230
         H            0.709977180871     1.277835207769     1.144163450068     1.007825032230
         H           -1.391033819129     1.421305207769    -1.495900549932     1.007825032230
         H           -0.986421819129     2.384933207769    -0.053564549932     1.007825032230
         H           -2.674956819129     1.966456207769    -0.401601549932     1.007825032230
         H            2.285037180871    -0.213572792231    -1.542573549932     1.007825032230
         H            2.872055180871     1.335176207769    -0.898437549932     1.007825032230
         H            3.896312180871    -0.109925792231    -0.807197549932     1.007825032230
         H           -1.954137819129    -1.372278792231    -0.482295549932     1.007825032230

  Basis Set: AUG-CC-PVTZ
    Blend: AUG-CC-PVTZ
  Basis Set: (AUG-CC-PVTZ AUX)
    Blend: AUG-CC-PVTZ-JKFIT
	 Reference Energy          =    -400.0876250738493809 [Eh]
	 Singles Energy            =      -0.0000000000000000 [Eh]
	 Same-Spin Energy          =      -0.4021562092792175 [Eh]
	 Opposite-Spin Energy      =      -1.3076671829488431 [Eh]
	 Correlation Energy        =      -1.7098233922280606 [Eh]
	 Total Energy              =    -401.7974484660774692 [Eh]

	 ================> DF-SCS-MP2 Energies <==================
	-----------------------------------------------------------
	 SCS Same-Spin Scale       =       0.3333333333333333 [-]
	 SCS Opposite-Spin Scale   =       1.2000000000000000 [-]
	 SCS Same-Spin Energy      =      -0.1340520697597392 [Eh]
	 SCS Opposite-Spin Energy  =      -1.5692006195386117 [Eh]
	 SCS Correlation Energy    =      -1.7032526892983508 [Eh]
	 SCS Total Energy          =    -401.7908777631477051 [Eh]
	-----------------------------------------------------------

  Dipole Moment: [D]
     X:     2.9401      Y:     3.1763      Z:     1.5942     Total:     4.6124

*** Psi4 exiting successfully. Buy a developer a beer!
