                               Psi4 1.3.2 release

  ==> Input File <==

--------------------------------------------------------------------------
#psi4
#
memory 32 gb

molecule  {
0 1
  O       -2.4925410    -0.6205970    -0.1535330
  O       -0.0069960    -1.4050930    -0.3804930
  N        0.8845720     0.3685180     0.7343320
  C       -1.5404070     0.3017530     0.3325960
  C        2.2795217    -0.0401018     0.6433022
  C       -0.1927417    -0.2690702     0.2234932
  C       -1.6458490     1.6048030    -0.4506110
  C        2.8658230     0.2522360    -0.7461750
  H       -1.7322500     0.4923850     1.3997900
  H        2.8336360     0.3321260     1.4253690
  H        2.2399750    -1.1846720     0.7384180
  H        0.7096630     1.2770080     1.1428940
  H       -1.3913480     1.4204780    -1.4971700
  H       -0.9867360     2.3841060    -0.0548340
  H       -2.6752710     1.9656290    -0.4028710
  H        2.2847230    -0.2144000    -1.5438430
  H        2.8717410     1.3343490    -0.8997070
  H        3.8959980    -0.1107530    -0.8084670
  H       -1.9544520    -1.3731060    -0.4835650
units angstrom
no_reorient  #important for SAPT in psi4, default
symmetry c1  #important for SAPT in psi4, default
}

set PROPERTIES_ORIGIN ["COM"]
properties('MP2/aug-cc-pvtz', properties = ['dipole'])
--------------------------------------------------------------------------

    Molecular point group: c1
  Charge       = 0
  Multiplicity = 1
  Basis Set: AUG-CC-PVTZ
    Blend: AUG-CC-PVTZ
  Basis Set: (AUG-CC-PVTZ AUX)
    Blend: AUG-CC-PVTZ-JKFIT

    Orbital Energies [Eh]
    ---------------------

    Doubly Occupied:

       1A    -20.550910     2A    -20.524795     3A    -15.604587
       4A    -11.364996     5A    -11.301165     6A    -11.276482
       7A    -11.235245     8A    -11.224343     9A     -1.381642
      10A     -1.334762    11A     -1.238780    12A     -1.063110
      13A     -1.015242    14A     -0.913585    15A     -0.859458
      16A     -0.786843    17A     -0.750672    18A     -0.680374
      19A     -0.658079    20A     -0.631167    21A     -0.612098
      22A     -0.586523    23A     -0.574429    24A     -0.565542
      25A     -0.544816    26A     -0.536704    27A     -0.521527
      28A     -0.511498    29A     -0.486650    30A     -0.447438
      31A     -0.437850    32A     -0.397664

  @DF-RHF Final Energy:  -400.06723576824504

   => Energetics <=

    Nuclear Repulsion Energy =            399.9403889832688606
    One-Electron Energy =               -1338.7773001486234534
    Two-Electron Energy =                 538.7696753971096086
    Total Energy =                       -400.0672357682450411
  Basis Set: (AUG-CC-PVTZ AUX)
    Blend: AUG-CC-PVTZ-RI
    Molecular point group: c1

    Geometry (in Angstrom), charge = 0, multiplicity = 1:

       Center              X                  Y                   Z               Mass
    ------------   -----------------  -----------------  -----------------  -----------------
         O           -2.490374839656    -0.631937337084    -0.160201867053    15.994914619570
         O           -0.004829839656    -1.416433337084    -0.387161867053    15.994914619570
         N            0.886738160344     0.357177662916     0.727663132947    14.003074004430
         C           -1.538240839656     0.290412662916     0.325927132947    12.000000000000
         C            2.281687860344    -0.051442137084     0.636633332947    12.000000000000
         C           -0.190575539656    -0.280410537084     0.216824332947    12.000000000000
         C           -1.643682839656     1.593462662916    -0.457279867053    12.000000000000
         C            2.867989160344     0.240895662916    -0.752843867053    12.000000000000
         H           -1.730083839656     0.481044662916     1.393121132947     1.007825032230
         H            2.835802160344     0.320785662916     1.418700132947     1.007825032230
         H            2.242141160344    -1.196012337084     0.731749132947     1.007825032230
         H            0.711829160344     1.265667662916     1.136225132947     1.007825032230
         H           -1.389181839656     1.409137662916    -1.503838867053     1.007825032230
         H           -0.984569839656     2.372765662916    -0.061502867053     1.007825032230
         H           -2.673104839656     1.954288662916    -0.409539867053     1.007825032230
         H            2.286889160344    -0.225740337084    -1.550511867053     1.007825032230
         H            2.873907160344     1.323008662916    -0.906375867053     1.007825032230
         H            3.898164160344    -0.122093337084    -0.815135867053     1.007825032230
         H           -1.952285839656    -1.384446337084    -0.490233867053     1.007825032230

  Basis Set: AUG-CC-PVTZ
    Blend: AUG-CC-PVTZ
  Basis Set: (AUG-CC-PVTZ AUX)
    Blend: AUG-CC-PVTZ-JKFIT
	 Reference Energy          =    -400.0672357682450411 [Eh]
	 Singles Energy            =      -0.0000000000000000 [Eh]
	 Same-Spin Energy          =      -0.4039756337243028 [Eh]
	 Opposite-Spin Energy      =      -1.3114586179137069 [Eh]
	 Correlation Energy        =      -1.7154342516380097 [Eh]
	 Total Energy              =    -401.7826700198830281 [Eh]

	 ================> DF-SCS-MP2 Energies <==================
	-----------------------------------------------------------
	 SCS Same-Spin Scale       =       0.3333333333333333 [-]
	 SCS Opposite-Spin Scale   =       1.2000000000000000 [-]
	 SCS Same-Spin Energy      =      -0.1346585445747676 [Eh]
	 SCS Opposite-Spin Energy  =      -1.5737503414964482 [Eh]
	 SCS Correlation Energy    =      -1.7084088860712159 [Eh]
	 SCS Total Energy          =    -401.7756446543162383 [Eh]
	-----------------------------------------------------------

  Dipole Moment: [D]
     X:     2.8231      Y:     3.4532      Z:     1.6901     Total:     4.7698

*** Psi4 exiting successfully. Buy a developer a beer!
