                               Psi4 1.3.2 release

  ==> Input File <==

--------------------------------------------------------------------------
#psi4
#
memory 32 gb

molecule  {
0 1
  O       -2.4925410    -0.6205970    -0.1535330
  O       -0.0069960    -1.4050930    -0.3804930
  N        0.8845720     0.3685180     0.7343320
  C       -1.5404070     0.3017530     0.3325960
  C        2.2569670    -0.1011270     0.6035390
  C       -0.2400315    -0.2781187     0.2069813
  C       -1.6458490     1.6048030    -0.4506110
  C        2.8658230     0.2522360    -0.7461750
  H       -1.7322500     0.4923850     1.3997900
  H        2.8336360     0.3321260     1.4253690
  H        2.2399750    -1.1846720     0.7384180
  H        0.7096630     1.2770080     1.1428940
  H       -1.3913480     1.4204780    -1.4971700
  H       -0.9867360     2.3841060    -0.0548340
  H       -2.6752710     1.9656290    -0.4028710
  H        2.2847230    -0.2144000    -1.5438430
  H        2.8717410     1.3343490    -0.8997070
  H        3.8959980    -0.1107530    -0.8084670
  H       -1.9544520    -1.3731060    -0.4835650
units angstrom
no_reorient  #important for SAPT in psi4, default
symmetry c1  #important for SAPT in psi4, default
}

set PROPERTIES_ORIGIN ["COM"]
properties('MP2/aug-cc-pvtz', properties = ['dipole'])
--------------------------------------------------------------------------

    Molecular point group: c1
  Charge       = 0
  Multiplicity = 1
  Basis Set: AUG-CC-PVTZ
    Blend: AUG-CC-PVTZ
  Basis Set: (AUG-CC-PVTZ AUX)
    Blend: AUG-CC-PVTZ-JKFIT

    Orbital Energies [Eh]
    ---------------------

    Doubly Occupied:

       1A    -20.553583     2A    -20.531827     3A    -15.596947
       4A    -11.368407     5A    -11.301631     6A    -11.272416
       7A    -11.238425     8A    -11.220252     9A     -1.387727
      10A     -1.336962    11A     -1.226513    12A     -1.068285
      13A     -1.012092    14A     -0.919020    15A     -0.853399
      16A     -0.779216    17A     -0.751988    18A     -0.681099
      19A     -0.649157    20A     -0.636600    21A     -0.611458
      22A     -0.586880    23A     -0.576918    24A     -0.565916
      25A     -0.544957    26A     -0.534326    27A     -0.518215
      28A     -0.510034    29A     -0.495992    30A     -0.450822
      31A     -0.444274    32A     -0.394886

  @DF-RHF Final Energy:  -400.06795482673459

   => Energetics <=

    Nuclear Repulsion Energy =            400.3638390310216550
    One-Electron Energy =               -1339.6231412222246036
    Two-Electron Energy =                 539.1913473644683563
    Total Energy =                       -400.0679548267346490
  Basis Set: (AUG-CC-PVTZ AUX)
    Blend: AUG-CC-PVTZ-RI
    Molecular point group: c1

    Geometry (in Angstrom), charge = 0, multiplicity = 1:

       Center              X                  Y                   Z               Mass
    ------------   -----------------  -----------------  -----------------  -----------------
         O           -2.483216133541    -0.624755139135    -0.154433955443    15.994914619570
         O            0.002328866459    -1.409251139135    -0.381393955443    15.994914619570
         N            0.893896866459     0.364359860865     0.733431044557    14.003074004430
         C           -1.531082133541     0.297594860865     0.331695044557    12.000000000000
         C            2.266291866459    -0.105285139135     0.602638044557    12.000000000000
         C           -0.230706633541    -0.282276839135     0.206080344557    12.000000000000
         C           -1.636524133541     1.600644860865    -0.451511955443    12.000000000000
         C            2.875147866459     0.248077860865    -0.747075955443    12.000000000000
         H           -1.722925133541     0.488226860865     1.398889044557     1.007825032230
         H            2.842960866459     0.327967860865     1.424468044557     1.007825032230
         H            2.249299866459    -1.188830139135     0.737517044557     1.007825032230
         H            0.718987866459     1.272849860865     1.141993044557     1.007825032230
         H           -1.382023133541     1.416319860865    -1.498070955443     1.007825032230
         H           -0.977411133541     2.379947860865    -0.055734955443     1.007825032230
         H           -2.665946133541     1.961470860865    -0.403771955443     1.007825032230
         H            2.294047866459    -0.218558139135    -1.544743955443     1.007825032230
         H            2.881065866459     1.330190860865    -0.900607955443     1.007825032230
         H            3.905322866459    -0.114911139135    -0.809367955443     1.007825032230
         H           -1.945127133541    -1.377264139135    -0.484465955443     1.007825032230

  Basis Set: AUG-CC-PVTZ
    Blend: AUG-CC-PVTZ
  Basis Set: (AUG-CC-PVTZ AUX)
    Blend: AUG-CC-PVTZ-JKFIT
	 Reference Energy          =    -400.0679548267345922 [Eh]
	 Singles Energy            =      -0.0000000000000000 [Eh]
	 Same-Spin Energy          =      -0.4042697552184193 [Eh]
	 Opposite-Spin Energy      =      -1.3118881562857467 [Eh]
	 Correlation Energy        =      -1.7161579115041661 [Eh]
	 Total Energy              =    -401.7841127382387754 [Eh]

	 ================> DF-SCS-MP2 Energies <==================
	-----------------------------------------------------------
	 SCS Same-Spin Scale       =       0.3333333333333333 [-]
	 SCS Opposite-Spin Scale   =       1.2000000000000000 [-]
	 SCS Same-Spin Energy      =      -0.1347565850728064 [Eh]
	 SCS Opposite-Spin Energy  =      -1.5742657875428960 [Eh]
	 SCS Correlation Energy    =      -1.7090223726157026 [Eh]
	 SCS Total Energy          =    -401.7769771993503127 [Eh]
	-----------------------------------------------------------

  Dipole Moment: [D]
     X:     2.4734      Y:     3.3070      Z:     1.5463     Total:     4.4096

*** Psi4 exiting successfully. Buy a developer a beer!
