                               Psi4 1.3.2 release

  ==> Input File <==

--------------------------------------------------------------------------
#psi4
#
memory 32 gb

molecule  {
0 1
  O       -2.4925410    -0.6205970    -0.1535330
  O        0.0036480    -1.4046316    -0.3786453
  N        0.8845720     0.3685180     0.7343320
  C       -1.5350924     0.3121157     0.3391140
  C        2.2569670    -0.1011270     0.6035390
  C       -0.1490540    -0.3186880     0.1981930
  C       -1.6458490     1.6048030    -0.4506110
  C        2.8658230     0.2522360    -0.7461750
  H       -1.7322500     0.4923850     1.3997900
  H        2.8336360     0.3321260     1.4253690
  H        2.2399750    -1.1846720     0.7384180
  H        0.7096630     1.2770080     1.1428940
  H       -1.3913480     1.4204780    -1.4971700
  H       -0.9867360     2.3841060    -0.0548340
  H       -2.6752710     1.9656290    -0.4028710
  H        2.2847230    -0.2144000    -1.5438430
  H        2.8717410     1.3343490    -0.8997070
  H        3.8959980    -0.1107530    -0.8084670
  H       -1.9544520    -1.3731060    -0.4835650
units angstrom
no_reorient  #important for SAPT in psi4, default
symmetry c1  #important for SAPT in psi4, default
}

set PROPERTIES_ORIGIN ["COM"]
properties('MP2/aug-cc-pvtz', properties = ['dipole'])
--------------------------------------------------------------------------

    Molecular point group: c1
  Charge       = 0
  Multiplicity = 1
  Basis Set: AUG-CC-PVTZ
    Blend: AUG-CC-PVTZ
  Basis Set: (AUG-CC-PVTZ AUX)
    Blend: AUG-CC-PVTZ-JKFIT

    Orbital Energies [Eh]
    ---------------------

    Doubly Occupied:

       1A    -20.547866     2A    -20.533430     3A    -15.598323
       4A    -11.359283     5A    -11.298573     6A    -11.273620
       7A    -11.231702     8A    -11.223045     9A     -1.397154
      10A     -1.343084    11A     -1.245314    12A     -1.053995
      13A     -1.013452    14A     -0.903316    15A     -0.849185
      16A     -0.793926    17A     -0.743461    18A     -0.676436
      19A     -0.647440    20A     -0.641574    21A     -0.612867
      22A     -0.597300    23A     -0.576645    24A     -0.563968
      25A     -0.541808    26A     -0.533937    27A     -0.521272
      28A     -0.514354    29A     -0.501715    30A     -0.447489
      31A     -0.436714    32A     -0.403275

  @DF-RHF Final Energy:  -400.08729620319167

   => Energetics <=

    Nuclear Repulsion Energy =            400.5414158832554108
    One-Electron Energy =               -1340.0063820214134012
    Two-Electron Energy =                 539.3776699349662067
    Total Energy =                       -400.0872962031917268
  Basis Set: (AUG-CC-PVTZ AUX)
    Blend: AUG-CC-PVTZ-RI
    Molecular point group: c1

    Geometry (in Angstrom), charge = 0, multiplicity = 1:

       Center              X                  Y                   Z               Mass
    ------------   -----------------  -----------------  -----------------  -----------------
         O           -2.494539729690    -0.621722151056    -0.154453687454    15.994914619570
         O            0.001649270310    -1.405756751056    -0.379565987454    15.994914619570
         N            0.882573270310     0.367392848944     0.733411312546    14.003074004430
         C           -1.537091129690     0.310990548944     0.338193312546    12.000000000000
         C            2.254968270310    -0.102252151056     0.602618312546    12.000000000000
         C           -0.151052729690    -0.319813151056     0.197272312546    12.000000000000
         C           -1.647847729690     1.603677848944    -0.451531687454    12.000000000000
         C            2.863824270310     0.251110848944    -0.747095687454    12.000000000000
         H           -1.734248729690     0.491259848944     1.398869312546     1.007825032230
         H            2.831637270310     0.331000848944     1.424448312546     1.007825032230
         H            2.237976270310    -1.185797151056     0.737497312546     1.007825032230
         H            0.707664270310     1.275882848944     1.141973312546     1.007825032230
         H           -1.393346729690     1.419352848944    -1.498090687454     1.007825032230
         H           -0.988734729690     2.382980848944    -0.055754687454     1.007825032230
         H           -2.677269729690     1.964503848944    -0.403791687454     1.007825032230
         H            2.282724270310    -0.215525151056    -1.544763687454     1.007825032230
         H            2.869742270310     1.333223848944    -0.900627687454     1.007825032230
         H            3.893999270310    -0.111878151056    -0.809387687454     1.007825032230
         H           -1.956450729690    -1.374231151056    -0.484485687454     1.007825032230

  Basis Set: AUG-CC-PVTZ
    Blend: AUG-CC-PVTZ
  Basis Set: (AUG-CC-PVTZ AUX)
    Blend: AUG-CC-PVTZ-JKFIT
	 Reference Energy          =    -400.0872962031916700 [Eh]
	 Singles Energy            =      -0.0000000000000000 [Eh]
	 Same-Spin Energy          =      -0.4021525738196947 [Eh]
	 Opposite-Spin Energy      =      -1.3079467425186158 [Eh]
	 Correlation Energy        =      -1.7100993163383105 [Eh]
	 Total Energy              =    -401.7973955195299709 [Eh]

	 ================> DF-SCS-MP2 Energies <==================
	-----------------------------------------------------------
	 SCS Same-Spin Scale       =       0.3333333333333333 [-]
	 SCS Opposite-Spin Scale   =       1.2000000000000000 [-]
	 SCS Same-Spin Energy      =      -0.1340508579398982 [Eh]
	 SCS Opposite-Spin Energy  =      -1.5695360910223388 [Eh]
	 SCS Correlation Energy    =      -1.7035869489622371 [Eh]
	 SCS Total Energy          =    -401.7908831521539241 [Eh]
	-----------------------------------------------------------

  Dipole Moment: [D]
     X:     2.8881      Y:     3.1823      Z:     1.5688     Total:     4.5748

*** Psi4 exiting successfully. Buy a developer a beer!
