                               Psi4 1.3.2 release

  ==> Input File <==

--------------------------------------------------------------------------
#psi4
#
memory 32 gb

molecule  {
0 1
  O       -2.4680958    -0.6692304    -0.1035173
  O       -0.0069960    -1.4050930    -0.3804930
  N        0.8845720     0.3685180     0.7343320
  C       -1.5404070     0.3017530     0.3325960
  C        2.2569670    -0.1011270     0.6035390
  C       -0.1490540    -0.3186880     0.1981930
  C       -1.5866615     1.6340702    -0.4058225
  C        2.8658230     0.2522360    -0.7461750
  H       -1.7322500     0.4923850     1.3997900
  H        2.8336360     0.3321260     1.4253690
  H        2.2399750    -1.1846720     0.7384180
  H        0.7096630     1.2770080     1.1428940
  H       -1.3913480     1.4204780    -1.4971700
  H       -0.9867360     2.3841060    -0.0548340
  H       -2.6752710     1.9656290    -0.4028710
  H        2.2847230    -0.2144000    -1.5438430
  H        2.8717410     1.3343490    -0.8997070
  H        3.8959980    -0.1107530    -0.8084670
  H       -1.9544520    -1.3731060    -0.4835650
units angstrom
no_reorient  #important for SAPT in psi4, default
symmetry c1  #important for SAPT in psi4, default
}

set PROPERTIES_ORIGIN ["COM"]
properties('MP2/aug-cc-pvtz', properties = ['dipole'])
--------------------------------------------------------------------------

    Molecular point group: c1
  Charge       = 0
  Multiplicity = 1
  Basis Set: AUG-CC-PVTZ
    Blend: AUG-CC-PVTZ
  Basis Set: (AUG-CC-PVTZ AUX)
    Blend: AUG-CC-PVTZ-JKFIT

    Orbital Energies [Eh]
    ---------------------

    Doubly Occupied:

       1A    -20.548106     2A    -20.531307     3A    -15.597742
       4A    -11.356896     5A    -11.300167     6A    -11.273333
       7A    -11.234543     8A    -11.222814     9A     -1.399373
      10A     -1.350526    11A     -1.244900    12A     -1.055895
      13A     -1.014170    14A     -0.902441    15A     -0.851035
      16A     -0.793570    17A     -0.749177    18A     -0.677933
      19A     -0.648290    20A     -0.643468    21A     -0.613127
      22A     -0.601493    23A     -0.586624    24A     -0.562288
      25A     -0.543366    26A     -0.531989    27A     -0.518858
      28A     -0.510727    29A     -0.501261    30A     -0.447896
      31A     -0.432183    32A     -0.402509

  @DF-RHF Final Energy:  -400.08013435134222

   => Energetics <=

    Nuclear Repulsion Energy =            401.0721838336039582
    One-Electron Energy =               -1341.0086212828800853
    Two-Electron Energy =                 539.8563030979339601
    Total Energy =                       -400.0801343513421671
  Basis Set: (AUG-CC-PVTZ AUX)
    Blend: AUG-CC-PVTZ-RI
    Molecular point group: c1

    Geometry (in Angstrom), charge = 0, multiplicity = 1:

       Center              X                  Y                   Z               Mass
    ------------   -----------------  -----------------  -----------------  -----------------
         O           -2.477501698988    -0.665586008812    -0.114941060355    15.994914619570
         O           -0.016401898988    -1.401448608812    -0.391916760355    15.994914619570
         N            0.875166101012     0.372162391188     0.722908239645    14.003074004430
         C           -1.549812898988     0.305397391188     0.321172239645    12.000000000000
         C            2.247561101012    -0.097482608812     0.592115239645    12.000000000000
         C           -0.158459898988    -0.315043608812     0.186769239645    12.000000000000
         C           -1.596067398988     1.637714591188    -0.417246260355    12.000000000000
         C            2.856417101012     0.255880391188    -0.757598760355    12.000000000000
         H           -1.741655898988     0.496029391188     1.388366239645     1.007825032230
         H            2.824230101012     0.335770391188     1.413945239645     1.007825032230
         H            2.230569101012    -1.181027608812     0.726994239645     1.007825032230
         H            0.700257101012     1.280652391188     1.131470239645     1.007825032230
         H           -1.400753898988     1.424122391188    -1.508593760355     1.007825032230
         H           -0.996141898988     2.387750391188    -0.066257760355     1.007825032230
         H           -2.684676898988     1.969273391188    -0.414294760355     1.007825032230
         H            2.275317101012    -0.210755608812    -1.555266760355     1.007825032230
         H            2.862335101012     1.337993391188    -0.911130760355     1.007825032230
         H            3.886592101012    -0.107108608812    -0.819890760355     1.007825032230
         H           -1.963857898988    -1.369461608812    -0.494988760355     1.007825032230

  Basis Set: AUG-CC-PVTZ
    Blend: AUG-CC-PVTZ
  Basis Set: (AUG-CC-PVTZ AUX)
    Blend: AUG-CC-PVTZ-JKFIT
	 Reference Energy          =    -400.0801343513422239 [Eh]
	 Singles Energy            =      -0.0000000000000000 [Eh]
	 Same-Spin Energy          =      -0.4018407477999057 [Eh]
	 Opposite-Spin Energy      =      -1.3070553419276163 [Eh]
	 Correlation Energy        =      -1.7088960897275220 [Eh]
	 Total Energy              =    -401.7890304410697695 [Eh]

	 ================> DF-SCS-MP2 Energies <==================
	-----------------------------------------------------------
	 SCS Same-Spin Scale       =       0.3333333333333333 [-]
	 SCS Opposite-Spin Scale   =       1.2000000000000000 [-]
	 SCS Same-Spin Energy      =      -0.1339469159333019 [Eh]
	 SCS Opposite-Spin Energy  =      -1.5684664103131396 [Eh]
	 SCS Correlation Energy    =      -1.7024133262464414 [Eh]
	 SCS Total Energy          =    -401.7825476775886386 [Eh]
	-----------------------------------------------------------

  Dipole Moment: [D]
     X:     2.8322      Y:     3.2746      Z:     1.4674     Total:     4.5714

*** Psi4 exiting successfully. Buy a developer a beer!
