                               Psi4 1.3.2 release

  ==> Input File <==

--------------------------------------------------------------------------
#psi4
#
memory 32 gb

molecule  {
0 1
  O       -2.4925410    -0.6205970    -0.1535330
  O       -0.0710461    -1.4060767    -0.3907334
  N        0.8384963     0.4182024     0.7548049
  C       -1.5404070     0.3017530     0.3325960
  C        2.2569670    -0.1011270     0.6035390
  C       -0.1490540    -0.3186880     0.1981930
  C       -1.6458490     1.6048030    -0.4506110
  C        2.8658230     0.2522360    -0.7461750
  H       -1.7322500     0.4923850     1.3997900
  H        2.8336360     0.3321260     1.4253690
  H        2.2399750    -1.1846720     0.7384180
  H        0.7096630     1.2770080     1.1428940
  H       -1.3913480     1.4204780    -1.4971700
  H       -0.9867360     2.3841060    -0.0548340
  H       -2.6752710     1.9656290    -0.4028710
  H        2.2847230    -0.2144000    -1.5438430
  H        2.8717410     1.3343490    -0.8997070
  H        3.8959980    -0.1107530    -0.8084670
  H       -1.9544520    -1.3731060    -0.4835650
units angstrom
no_reorient  #important for SAPT in psi4, default
symmetry c1  #important for SAPT in psi4, default
}

set PROPERTIES_ORIGIN ["COM"]
properties('MP2/aug-cc-pvtz', properties = ['dipole'])
--------------------------------------------------------------------------

    Molecular point group: c1
  Charge       = 0
  Multiplicity = 1
  Basis Set: AUG-CC-PVTZ
    Blend: AUG-CC-PVTZ
  Basis Set: (AUG-CC-PVTZ AUX)
    Blend: AUG-CC-PVTZ-JKFIT

    Orbital Energies [Eh]
    ---------------------

    Doubly Occupied:

       1A    -20.541806     2A    -20.537523     3A    -15.598737
       4A    -11.360924     5A    -11.290699     6A    -11.281793
       7A    -11.227683     8A    -11.227575     9A     -1.398570
      10A     -1.340062    11A     -1.248893    12A     -1.050248
      13A     -1.013815    14A     -0.899565    15A     -0.848632
      16A     -0.812807    17A     -0.740687    18A     -0.674044
      19A     -0.642251    20A     -0.639482    21A     -0.616540
      22A     -0.602688    23A     -0.572872    24A     -0.560162
      25A     -0.543355    26A     -0.531898    27A     -0.523442
      28A     -0.511362    29A     -0.504319    30A     -0.441806
      31A     -0.432704    32A     -0.411017

  @DF-RHF Final Energy:  -400.08004489430834

   => Energetics <=

    Nuclear Repulsion Energy =            400.1876819417170168
    One-Electron Energy =               -1339.2795266204680047
    Two-Electron Energy =                 539.0117997844425872
    Total Energy =                       -400.0800448943083438
  Basis Set: (AUG-CC-PVTZ AUX)
    Blend: AUG-CC-PVTZ-RI
    Molecular point group: c1

    Geometry (in Angstrom), charge = 0, multiplicity = 1:

       Center              X                  Y                   Z               Mass
    ------------   -----------------  -----------------  -----------------  -----------------
         O           -2.478279745090    -0.626405038501    -0.154582825977    15.994914619570
         O           -0.056784845090    -1.411884738501    -0.391783225977    15.994914619570
         N            0.852757554910     0.412394361499     0.753755074023    14.003074004430
         C           -1.526145745090     0.295944961499     0.331546174023    12.000000000000
         C            2.271228254910    -0.106935038501     0.602489174023    12.000000000000
         C           -0.134792745090    -0.324496038501     0.197143174023    12.000000000000
         C           -1.631587745090     1.598994961499    -0.451660825977    12.000000000000
         C            2.880084254910     0.246427961499    -0.747224825977    12.000000000000
         H           -1.717988745090     0.486576961499     1.398740174023     1.007825032230
         H            2.847897254910     0.326317961499     1.424319174023     1.007825032230
         H            2.254236254910    -1.190480038501     0.737368174023     1.007825032230
         H            0.723924254910     1.271199961499     1.141844174023     1.007825032230
         H           -1.377086745090     1.414669961499    -1.498219825977     1.007825032230
         H           -0.972474745090     2.378297961499    -0.055883825977     1.007825032230
         H           -2.661009745090     1.959820961499    -0.403920825977     1.007825032230
         H            2.298984254910    -0.220208038501    -1.544892825977     1.007825032230
         H            2.886002254910     1.328540961499    -0.900756825977     1.007825032230
         H            3.910259254910    -0.116561038501    -0.809516825977     1.007825032230
         H           -1.940190745090    -1.378914038501    -0.484614825977     1.007825032230

  Basis Set: AUG-CC-PVTZ
    Blend: AUG-CC-PVTZ
  Basis Set: (AUG-CC-PVTZ AUX)
    Blend: AUG-CC-PVTZ-JKFIT
	 Reference Energy          =    -400.0800448943083438 [Eh]
	 Singles Energy            =      -0.0000000000000000 [Eh]
	 Same-Spin Energy          =      -0.4017763443647336 [Eh]
	 Opposite-Spin Energy      =      -1.3075710793041941 [Eh]
	 Correlation Energy        =      -1.7093474236689277 [Eh]
	 Total Energy              =    -401.7893923179772742 [Eh]

	 ================> DF-SCS-MP2 Energies <==================
	-----------------------------------------------------------
	 SCS Same-Spin Scale       =       0.3333333333333333 [-]
	 SCS Opposite-Spin Scale   =       1.2000000000000000 [-]
	 SCS Same-Spin Energy      =      -0.1339254481215779 [Eh]
	 SCS Opposite-Spin Energy  =      -1.5690852951650329 [Eh]
	 SCS Correlation Energy    =      -1.7030107432866108 [Eh]
	 SCS Total Energy          =    -401.7830556375949413 [Eh]
	-----------------------------------------------------------

  Dipole Moment: [D]
     X:     3.3021      Y:     3.0536      Z:     1.5389     Total:     4.7536

*** Psi4 exiting successfully. Buy a developer a beer!
