                               Psi4 1.3.2 release

  ==> Input File <==

--------------------------------------------------------------------------
#psi4
#
memory 32 gb

molecule  {
0 1
  O       -2.4925410    -0.6205970    -0.1535330
  O       -0.0069960    -1.4050930    -0.3804930
  N        0.8845720     0.3685180     0.7343320
  C       -1.4872501     0.2543585     0.3127856
  C        2.2569670    -0.1011270     0.6035390
  C       -0.1490540    -0.3186880     0.1981930
  C       -1.6458490     1.6048030    -0.4506110
  C        2.8658230     0.2522360    -0.7461750
  H       -1.7322500     0.4923850     1.3997900
  H        2.8336360     0.3321260     1.4253690
  H        2.2399750    -1.1846720     0.7384180
  H        0.7096630     1.2770080     1.1428940
  H       -1.3913480     1.4204780    -1.4971700
  H       -0.9867360     2.3841060    -0.0548340
  H       -2.6752710     1.9656290    -0.4028710
  H        2.2847230    -0.2144000    -1.5438430
  H        2.8717410     1.3343490    -0.8997070
  H        3.8959980    -0.1107530    -0.8084670
  H       -1.9122492    -1.3474509    -0.4692474
units angstrom
no_reorient  #important for SAPT in psi4, default
symmetry c1  #important for SAPT in psi4, default
}

set PROPERTIES_ORIGIN ["COM"]
properties('MP2/aug-cc-pvtz', properties = ['dipole'])
--------------------------------------------------------------------------

    Molecular point group: c1
  Charge       = 0
  Multiplicity = 1
  Basis Set: AUG-CC-PVTZ
    Blend: AUG-CC-PVTZ
  Basis Set: (AUG-CC-PVTZ AUX)
    Blend: AUG-CC-PVTZ-JKFIT

    Orbital Energies [Eh]
    ---------------------

    Doubly Occupied:

       1A    -20.551213     2A    -20.535277     3A    -15.600153
       4A    -11.359541     5A    -11.298422     6A    -11.275249
       7A    -11.233606     8A    -11.224022     9A     -1.405110
      10A     -1.349877    11A     -1.248202    12A     -1.055340
      13A     -1.009476    14A     -0.911277    15A     -0.851817
      16A     -0.794766    17A     -0.748580    18A     -0.677093
      19A     -0.645734    20A     -0.642419    21A     -0.614804
      22A     -0.598935    23A     -0.570465    24A     -0.561610
      25A     -0.548178    26A     -0.532145    27A     -0.524800
      28A     -0.519856    29A     -0.503273    30A     -0.446208
      31A     -0.437175    32A     -0.404445

  @DF-RHF Final Energy:  -400.07992410345872

   => Energetics <=

    Nuclear Repulsion Energy =            401.6666147204472850
    One-Electron Energy =               -1342.1349494128494371
    Two-Electron Energy =                 540.3884105889433158
    Total Energy =                       -400.0799241034587794
  Basis Set: (AUG-CC-PVTZ AUX)
    Blend: AUG-CC-PVTZ-RI
    Molecular point group: c1

    Geometry (in Angstrom), charge = 0, multiplicity = 1:

       Center              X                  Y                   Z               Mass
    ------------   -----------------  -----------------  -----------------  -----------------
         O           -2.498352461680    -0.615960138014    -0.151625981131    15.994914619570
         O           -0.012807461680    -1.400456138014    -0.378585981131    15.994914619570
         N            0.878760538320     0.373154861986     0.736239018869    14.003074004430
         C           -1.493061561680     0.258995361986     0.314692618869    12.000000000000
         C            2.251155538320    -0.096490138014     0.605446018869    12.000000000000
         C           -0.154865461680    -0.314051138014     0.200100018869    12.000000000000
         C           -1.651660461680     1.609439861986    -0.448703981131    12.000000000000
         C            2.860011538320     0.256872861986    -0.744267981131    12.000000000000
         H           -1.738061461680     0.497021861986     1.401697018869     1.007825032230
         H            2.827824538320     0.336762861986     1.427276018869     1.007825032230
         H            2.234163538320    -1.180035138014     0.740325018869     1.007825032230
         H            0.703851538320     1.281644861986     1.144801018869     1.007825032230
         H           -1.397159461680     1.425114861986    -1.495262981131     1.007825032230
         H           -0.992547461680     2.388742861986    -0.052926981131     1.007825032230
         H           -2.681082461680     1.970265861986    -0.400963981131     1.007825032230
         H            2.278911538320    -0.209763138014    -1.541935981131     1.007825032230
         H            2.865929538320     1.338985861986    -0.897799981131     1.007825032230
         H            3.890186538320    -0.106116138014    -0.806559981131     1.007825032230
         H           -1.918060661680    -1.342814038014    -0.467340381131     1.007825032230

  Basis Set: AUG-CC-PVTZ
    Blend: AUG-CC-PVTZ
  Basis Set: (AUG-CC-PVTZ AUX)
    Blend: AUG-CC-PVTZ-JKFIT
	 Reference Energy          =    -400.0799241034587226 [Eh]
	 Singles Energy            =      -0.0000000000000000 [Eh]
	 Same-Spin Energy          =      -0.4028474763462333 [Eh]
	 Opposite-Spin Energy      =      -1.3088958871907312 [Eh]
	 Correlation Energy        =      -1.7117433635369645 [Eh]
	 Total Energy              =    -401.7916674669957047 [Eh]

	 ================> DF-SCS-MP2 Energies <==================
	-----------------------------------------------------------
	 SCS Same-Spin Scale       =       0.3333333333333333 [-]
	 SCS Opposite-Spin Scale   =       1.2000000000000000 [-]
	 SCS Same-Spin Energy      =      -0.1342824921154111 [Eh]
	 SCS Opposite-Spin Energy  =      -1.5706750646288774 [Eh]
	 SCS Correlation Energy    =      -1.7049575567442885 [Eh]
	 SCS Total Energy          =    -401.7848816602029842 [Eh]
	-----------------------------------------------------------

  Dipole Moment: [D]
     X:     2.9540      Y:     3.1545      Z:     1.5625     Total:     4.5954

*** Psi4 exiting successfully. Buy a developer a beer!
