                               Psi4 1.3.2 release

  ==> Input File <==

--------------------------------------------------------------------------
#psi4
#
memory 32 gb

molecule  {
0 1
  O       -2.4925410    -0.6205970    -0.1535330
  O       -0.0069960    -1.4050930    -0.3804930
  N        0.8845720     0.3685180     0.7343320
  C       -1.5404070     0.3017530     0.3325960
  C        2.2569670    -0.1011270     0.6035390
  C       -0.1915909    -0.2650046     0.2160633
  C       -1.6458490     1.6048030    -0.4506110
  C        2.8658230     0.2522360    -0.7461750
  H       -1.7322500     0.4923850     1.3997900
  H        2.8336360     0.3321260     1.4253690
  H        2.2399750    -1.1846720     0.7384180
  H        0.6585748     1.2713449     1.1301843
  H       -1.3913480     1.4204780    -1.4971700
  H       -0.9867360     2.3841060    -0.0548340
  H       -2.6752710     1.9656290    -0.4028710
  H        2.2847230    -0.2144000    -1.5438430
  H        2.8717410     1.3343490    -0.8997070
  H        3.8959980    -0.1107530    -0.8084670
  H       -1.9544520    -1.3731060    -0.4835650
units angstrom
no_reorient  #important for SAPT in psi4, default
symmetry c1  #important for SAPT in psi4, default
}

set PROPERTIES_ORIGIN ["COM"]
properties('MP2/aug-cc-pvtz', properties = ['dipole'])
--------------------------------------------------------------------------

    Molecular point group: c1
  Charge       = 0
  Multiplicity = 1
  Basis Set: AUG-CC-PVTZ
    Blend: AUG-CC-PVTZ
  Basis Set: (AUG-CC-PVTZ AUX)
    Blend: AUG-CC-PVTZ-JKFIT

    Orbital Energies [Eh]
    ---------------------

    Doubly Occupied:

       1A    -20.550927     2A    -20.524089     3A    -15.604023
       4A    -11.362579     5A    -11.301079     6A    -11.277254
       7A    -11.235725     8A    -11.223539     9A     -1.381738
      10A     -1.335075    11A     -1.238625    12A     -1.063932
      13A     -1.017116    14A     -0.912459    15A     -0.856953
      16A     -0.786530    17A     -0.749135    18A     -0.680195
      19A     -0.653144    20A     -0.632733    21A     -0.613493
      22A     -0.590418    23A     -0.574028    24A     -0.566842
      25A     -0.545073    26A     -0.535633    27A     -0.512945
      28A     -0.511905    29A     -0.498288    30A     -0.447634
      31A     -0.437255    32A     -0.399262

  @DF-RHF Final Energy:  -400.07433774852456

   => Energetics <=

    Nuclear Repulsion Energy =            400.4830944657350074
    One-Electron Energy =               -1339.8756109254345574
    Two-Electron Energy =                 539.3181787111750509
    Total Energy =                       -400.0743377485244991
  Basis Set: (AUG-CC-PVTZ AUX)
    Blend: AUG-CC-PVTZ-RI
    Molecular point group: c1

    Geometry (in Angstrom), charge = 0, multiplicity = 1:

       Center              X                  Y                   Z               Mass
    ------------   -----------------  -----------------  -----------------  -----------------
         O           -2.487741277504    -0.626050519295    -0.155255408170    15.994914619570
         O           -0.002196277504    -1.410546519295    -0.382215408170    15.994914619570
         N            0.889371722496     0.363064480705     0.732609591830    14.003074004430
         C           -1.535607277504     0.296299480705     0.330873591830    12.000000000000
         C            2.261766722496    -0.106580519295     0.601816591830    12.000000000000
         C           -0.186791177504    -0.270458119295     0.214340891830    12.000000000000
         C           -1.641049277504     1.599349480705    -0.452333408170    12.000000000000
         C            2.870622722496     0.246782480705    -0.747897408170    12.000000000000
         H           -1.727450277504     0.486931480705     1.398067591830     1.007825032230
         H            2.838435722496     0.326672480705     1.423646591830     1.007825032230
         H            2.244774722496    -1.190125519295     0.736695591830     1.007825032230
         H            0.663374522496     1.265891380705     1.128461891830     1.007825032230
         H           -1.386548277504     1.415024480705    -1.498892408170     1.007825032230
         H           -0.981936277504     2.378652480705    -0.056556408170     1.007825032230
         H           -2.670471277504     1.960175480705    -0.404593408170     1.007825032230
         H            2.289522722496    -0.219853519295    -1.545565408170     1.007825032230
         H            2.876540722496     1.328895480705    -0.901429408170     1.007825032230
         H            3.900797722496    -0.116206519295    -0.810189408170     1.007825032230
         H           -1.949652277504    -1.378559519295    -0.485287408170     1.007825032230

  Basis Set: AUG-CC-PVTZ
    Blend: AUG-CC-PVTZ
  Basis Set: (AUG-CC-PVTZ AUX)
    Blend: AUG-CC-PVTZ-JKFIT
	 Reference Energy          =    -400.0743377485245560 [Eh]
	 Singles Energy            =      -0.0000000000000000 [Eh]
	 Same-Spin Energy          =      -0.4038830437967103 [Eh]
	 Opposite-Spin Energy      =      -1.3110239320097468 [Eh]
	 Correlation Energy        =      -1.7149069758064570 [Eh]
	 Total Energy              =    -401.7892447243310130 [Eh]

	 ================> DF-SCS-MP2 Energies <==================
	-----------------------------------------------------------
	 SCS Same-Spin Scale       =       0.3333333333333333 [-]
	 SCS Opposite-Spin Scale   =       1.2000000000000000 [-]
	 SCS Same-Spin Energy      =      -0.1346276812655701 [Eh]
	 SCS Opposite-Spin Energy  =      -1.5732287184116960 [Eh]
	 SCS Correlation Energy    =      -1.7078563996772660 [Eh]
	 SCS Total Energy          =    -401.7821941482018246 [Eh]
	-----------------------------------------------------------

  Dipole Moment: [D]
     X:     2.7913      Y:     3.4116      Z:     1.6388     Total:     4.7027

*** Psi4 exiting successfully. Buy a developer a beer!
