                               Psi4 1.3.2 release

  ==> Input File <==

--------------------------------------------------------------------------
#psi4
#
memory 32 gb

molecule  {
0 1
  O       -2.4925410    -0.6205970    -0.1535330
  O       -0.0069960    -1.4050930    -0.3804930
  N        0.8845720     0.3685180     0.7343320
  C       -1.5404070     0.3017530     0.3325960
  C        2.2569670    -0.1011270     0.6035390
  C        0.0329010    -0.3998265     0.1806164
  C       -1.6458490     1.6048030    -0.4506110
  C        2.8658230     0.2522360    -0.7461750
  H       -1.7322500     0.4923850     1.3997900
  H        2.8336360     0.3321260     1.4253690
  H        2.2399750    -1.1846720     0.7384180
  H        0.7096630     1.2770080     1.1428940
  H       -1.3913480     1.4204780    -1.4971700
  H       -0.9867360     2.3841060    -0.0548340
  H       -2.6752710     1.9656290    -0.4028710
  H        2.2847230    -0.2144000    -1.5438430
  H        2.8717410     1.3343490    -0.8997070
  H        3.8959980    -0.1107530    -0.8084670
  H       -1.9544520    -1.3731060    -0.4835650
units angstrom
no_reorient  #important for SAPT in psi4, default
symmetry c1  #important for SAPT in psi4, default
}

set PROPERTIES_ORIGIN ["COM"]
properties('MP2/aug-cc-pvtz', properties = ['dipole'])
--------------------------------------------------------------------------

    Molecular point group: c1
  Charge       = 0
  Multiplicity = 1
  Basis Set: AUG-CC-PVTZ
    Blend: AUG-CC-PVTZ
  Basis Set: (AUG-CC-PVTZ AUX)
    Blend: AUG-CC-PVTZ-JKFIT

    Orbital Energies [Eh]
    ---------------------

    Doubly Occupied:

       1A    -20.541991     2A    -20.538260     3A    -15.605741
       4A    -11.350713     5A    -11.278691     6A    -11.278617
       7A    -11.230189     8A    -11.217107     9A     -1.446629
      10A     -1.339595    11A     -1.288197    12A     -1.044665
      13A     -1.001490    14A     -0.893678    15A     -0.833262
      16A     -0.822304    17A     -0.727837    18A     -0.687332
      19A     -0.658521    20A     -0.639346    21A     -0.620021
      22A     -0.619461    23A     -0.570580    24A     -0.554118
      25A     -0.551973    26A     -0.538484    27A     -0.524420
      28A     -0.523114    29A     -0.511737    30A     -0.436452
      31A     -0.418815    32A     -0.381097

  @DF-RHF Final Energy:  -400.05026480403421

   => Energetics <=

    Nuclear Repulsion Energy =            401.3772659595470031
    One-Electron Energy =               -1341.5061880903820111
    Two-Electron Energy =                 540.0786573268007942
    Total Energy =                       -400.0502648040342137
  Basis Set: (AUG-CC-PVTZ AUX)
    Blend: AUG-CC-PVTZ-RI
    Molecular point group: c1

    Geometry (in Angstrom), charge = 0, multiplicity = 1:

       Center              X                  Y                   Z               Mass
    ------------   -----------------  -----------------  -----------------  -----------------
         O           -2.511190327023    -0.612280708477    -0.151731687249    15.994914619570
         O           -0.025645327023    -1.396776708477    -0.378691687249    15.994914619570
         N            0.865922672977     0.376834291523     0.736133312751    14.003074004430
         C           -1.559056327023     0.310069291523     0.334397312751    12.000000000000
         C            2.238317672977    -0.092810708477     0.605340312751    12.000000000000
         C            0.014251672977    -0.391510208477     0.182417712751    12.000000000000
         C           -1.664498327023     1.613119291523    -0.448809687249    12.000000000000
         C            2.847173672977     0.260552291523    -0.744373687249    12.000000000000
         H           -1.750899327023     0.500701291523     1.401591312751     1.007825032230
         H            2.814986672977     0.340442291523     1.427170312751     1.007825032230
         H            2.221325672977    -1.176355708477     0.740219312751     1.007825032230
         H            0.691013672977     1.285324291523     1.144695312751     1.007825032230
         H           -1.409997327023     1.428794291523    -1.495368687249     1.007825032230
         H           -1.005385327023     2.392422291523    -0.053032687249     1.007825032230
         H           -2.693920327023     1.973945291523    -0.401069687249     1.007825032230
         H            2.266073672977    -0.206083708477    -1.542041687249     1.007825032230
         H            2.853091672977     1.342665291523    -0.897905687249     1.007825032230
         H            3.877348672977    -0.102436708477    -0.806665687249     1.007825032230
         H           -1.973101327023    -1.364789708477    -0.481763687249     1.007825032230

  Basis Set: AUG-CC-PVTZ
    Blend: AUG-CC-PVTZ
  Basis Set: (AUG-CC-PVTZ AUX)
    Blend: AUG-CC-PVTZ-JKFIT
	 Reference Energy          =    -400.0502648040342137 [Eh]
	 Singles Energy            =      -0.0000000000000000 [Eh]
	 Same-Spin Energy          =      -0.4015638028827742 [Eh]
	 Opposite-Spin Energy      =      -1.3060941437341773 [Eh]
	 Correlation Energy        =      -1.7076579466169515 [Eh]
	 Total Energy              =    -401.7579227506511756 [Eh]

	 ================> DF-SCS-MP2 Energies <==================
	-----------------------------------------------------------
	 SCS Same-Spin Scale       =       0.3333333333333333 [-]
	 SCS Opposite-Spin Scale   =       1.2000000000000000 [-]
	 SCS Same-Spin Energy      =      -0.1338546009609247 [Eh]
	 SCS Opposite-Spin Energy  =      -1.5673129724810126 [Eh]
	 SCS Correlation Energy    =      -1.7011675734419374 [Eh]
	 SCS Total Energy          =    -401.7514323774761351 [Eh]
	-----------------------------------------------------------

  Dipole Moment: [D]
     X:     3.8847      Y:     2.7251      Z:     1.5444     Total:     4.9903

*** Psi4 exiting successfully. Buy a developer a beer!
