                               Psi4 1.3.2 release

  ==> Input File <==

--------------------------------------------------------------------------
#psi4
#
memory 32 gb

molecule  {
0 1
  O       -2.4925410    -0.6205970    -0.1535330
  O       -0.0069960    -1.4050930    -0.3804930
  N        0.8845720     0.3685180     0.7343320
  C       -1.5404070     0.3017530     0.3325960
  C        2.2569670    -0.1011270     0.6035390
  C       -0.1490540    -0.3186880     0.1981930
  C       -1.6527679     1.6903069    -0.5020037
  C        2.8658230     0.2522360    -0.7461750
  H       -1.7322500     0.4923850     1.3997900
  H        2.8336360     0.3321260     1.4253690
  H        2.2399750    -1.1846720     0.7384180
  H        0.7096630     1.2770080     1.1428940
  H       -1.3913480     1.4204780    -1.4971700
  H       -0.9867360     2.3841060    -0.0548340
  H       -2.6752710     1.9656290    -0.4028710
  H        2.2847230    -0.2144000    -1.5438430
  H        2.8717410     1.3343490    -0.8997070
  H        3.8959980    -0.1107530    -0.8084670
  H       -1.9544520    -1.3731060    -0.4835650
units angstrom
no_reorient  #important for SAPT in psi4, default
symmetry c1  #important for SAPT in psi4, default
}

set PROPERTIES_ORIGIN ["COM"]
properties('MP2/aug-cc-pvtz', properties = ['dipole'])
--------------------------------------------------------------------------

    Molecular point group: c1
  Charge       = 0
  Multiplicity = 1
  Basis Set: AUG-CC-PVTZ
    Blend: AUG-CC-PVTZ
  Basis Set: (AUG-CC-PVTZ AUX)
    Blend: AUG-CC-PVTZ-JKFIT

    Orbital Energies [Eh]
    ---------------------

    Doubly Occupied:

       1A    -20.549063     2A    -20.532749     3A    -15.598488
       4A    -11.358583     5A    -11.301521     6A    -11.273847
       7A    -11.229245     8A    -11.223197     9A     -1.397372
      10A     -1.345457    11A     -1.245274    12A     -1.046024
      13A     -1.006261    14A     -0.906606    15A     -0.850737
      16A     -0.793912    17A     -0.742116    18A     -0.674768
      19A     -0.646997    20A     -0.637895    21A     -0.612714
      22A     -0.599186    23A     -0.578101    24A     -0.562933
      25A     -0.555107    26A     -0.538692    27A     -0.519985
      28A     -0.514688    29A     -0.502116    30A     -0.439438
      31A     -0.430639    32A     -0.402512

  @DF-RHF Final Energy:  -400.08072489795194

   => Energetics <=

    Nuclear Repulsion Energy =            398.9927201715993874
    One-Electron Energy =               -1336.9144415740040586
    Two-Electron Energy =                 537.8409965044527326
    Total Energy =                       -400.0807248979519954
  Basis Set: (AUG-CC-PVTZ AUX)
    Blend: AUG-CC-PVTZ-RI
    Molecular point group: c1

    Geometry (in Angstrom), charge = 0, multiplicity = 1:

       Center              X                  Y                   Z               Mass
    ------------   -----------------  -----------------  -----------------  -----------------
         O           -2.491831712632    -0.629360707158    -0.148265708943    15.994914619570
         O           -0.006286712632    -1.413856707158    -0.375225708943    15.994914619570
         N            0.885281287368     0.359754292842     0.739599291057    14.003074004430
         C           -1.539697712632     0.292989292842     0.337863291057    12.000000000000
         C            2.257676287368    -0.109890707158     0.608806291057    12.000000000000
         C           -0.148344712632    -0.327451707158     0.203460291057    12.000000000000
         C           -1.652058612632     1.681543192842    -0.496736408943    12.000000000000
         C            2.866532287368     0.243472292842    -0.740907708943    12.000000000000
         H           -1.731540712632     0.483621292842     1.405057291057     1.007825032230
         H            2.834345287368     0.323362292842     1.430636291057     1.007825032230
         H            2.240684287368    -1.193435707158     0.743685291057     1.007825032230
         H            0.710372287368     1.268244292842     1.148161291057     1.007825032230
         H           -1.390638712632     1.411714292842    -1.491902708943     1.007825032230
         H           -0.986026712632     2.375342292842    -0.049566708943     1.007825032230
         H           -2.674561712632     1.956865292842    -0.397603708943     1.007825032230
         H            2.285432287368    -0.223163707158    -1.538575708943     1.007825032230
         H            2.872450287368     1.325585292842    -0.894439708943     1.007825032230
         H            3.896707287368    -0.119516707158    -0.803199708943     1.007825032230
         H           -1.953742712632    -1.381869707158    -0.478297708943     1.007825032230

  Basis Set: AUG-CC-PVTZ
    Blend: AUG-CC-PVTZ
  Basis Set: (AUG-CC-PVTZ AUX)
    Blend: AUG-CC-PVTZ-JKFIT
	 Reference Energy          =    -400.0807248979519386 [Eh]
	 Singles Energy            =      -0.0000000000000000 [Eh]
	 Same-Spin Energy          =      -0.4018528220290604 [Eh]
	 Opposite-Spin Energy      =      -1.3078059975816259 [Eh]
	 Correlation Energy        =      -1.7096588196106863 [Eh]
	 Total Energy              =    -401.7903837175626336 [Eh]

	 ================> DF-SCS-MP2 Energies <==================
	-----------------------------------------------------------
	 SCS Same-Spin Scale       =       0.3333333333333333 [-]
	 SCS Opposite-Spin Scale   =       1.2000000000000000 [-]
	 SCS Same-Spin Energy      =      -0.1339509406763535 [Eh]
	 SCS Opposite-Spin Energy  =      -1.5693671970979510 [Eh]
	 SCS Correlation Energy    =      -1.7033181377743045 [Eh]
	 SCS Total Energy          =    -401.7840430357262562 [Eh]
	-----------------------------------------------------------

  Dipole Moment: [D]
     X:     2.8798      Y:     3.1028      Z:     1.5831     Total:     4.5196

*** Psi4 exiting successfully. Buy a developer a beer!
