                               Psi4 1.3.2 release

  ==> Input File <==

--------------------------------------------------------------------------
#psi4
#
memory 32 gb

molecule  {
0 1
  O       -2.4765302    -0.6533085    -0.1203288
  O       -0.0069960    -1.4050930    -0.3804930
  N        0.8845720     0.3685180     0.7343320
  C       -1.5404070     0.3017530     0.3325960
  C        2.2569670    -0.1011270     0.6035390
  C       -0.1490540    -0.3186880     0.1981930
  C       -1.6064128     1.6247165    -0.4209831
  C        2.8658230     0.2522360    -0.7461750
  H       -1.7322500     0.4923850     1.3997900
  H        2.8336360     0.3321260     1.4253690
  H        2.2399750    -1.1846720     0.7384180
  H        0.7096630     1.2770080     1.1428940
  H       -1.3913480     1.4204780    -1.4971700
  H       -0.9867360     2.3841060    -0.0548340
  H       -2.6752710     1.9656290    -0.4028710
  H        2.2847230    -0.2144000    -1.5438430
  H        2.8717410     1.3343490    -0.8997070
  H        3.8959980    -0.1107530    -0.8084670
  H       -1.9544520    -1.3731060    -0.4835650
units angstrom
no_reorient  #important for SAPT in psi4, default
symmetry c1  #important for SAPT in psi4, default
}

set PROPERTIES_ORIGIN ["COM"]
properties('MP2/aug-cc-pvtz', properties = ['dipole'])
--------------------------------------------------------------------------

    Molecular point group: c1
  Charge       = 0
  Multiplicity = 1
  Basis Set: AUG-CC-PVTZ
    Blend: AUG-CC-PVTZ
  Basis Set: (AUG-CC-PVTZ AUX)
    Blend: AUG-CC-PVTZ-JKFIT

    Orbital Energies [Eh]
    ---------------------

    Doubly Occupied:

       1A    -20.548111     2A    -20.531978     3A    -15.598100
       4A    -11.357593     5A    -11.299379     6A    -11.273560
       7A    -11.233140     8A    -11.222973     9A     -1.398908
      10A     -1.349218    11A     -1.245192    12A     -1.054772
      13A     -1.013718    14A     -0.902360    15A     -0.850202
      16A     -0.793700    17A     -0.747741    18A     -0.677456
      19A     -0.648259    20A     -0.642110    21A     -0.613240
      22A     -0.599492    23A     -0.583253    24A     -0.562429
      25A     -0.543985    26A     -0.533293    27A     -0.519782
      28A     -0.512403    29A     -0.501627    30A     -0.447329
      31A     -0.433577    32A     -0.402861

  @DF-RHF Final Energy:  -400.08498566690145

   => Energetics <=

    Nuclear Repulsion Energy =            400.9127928023099798
    One-Electron Energy =               -1340.7120722656261478
    Two-Electron Energy =                 539.7142937964147222
    Total Energy =                       -400.0849856669015026
  Basis Set: (AUG-CC-PVTZ AUX)
    Blend: AUG-CC-PVTZ-RI
    Molecular point group: c1

    Geometry (in Angstrom), charge = 0, multiplicity = 1:

       Center              X                  Y                   Z               Mass
    ------------   -----------------  -----------------  -----------------  -----------------
         O           -2.482759413367    -0.650880595604    -0.127901948465    15.994914619570
         O           -0.013225213367    -1.402665095604    -0.388066148465    15.994914619570
         N            0.878342786633     0.370945904396     0.726758851535    14.003074004430
         C           -1.546636213367     0.304180904396     0.325022851535    12.000000000000
         C            2.250737786633    -0.098699095604     0.595965851535    12.000000000000
         C           -0.155283213367    -0.316260095604     0.190619851535    12.000000000000
         C           -1.612642013367     1.627144404396    -0.428556248465    12.000000000000
         C            2.859593786633     0.254663904396    -0.753748148465    12.000000000000
         H           -1.738479213367     0.494812904396     1.392216851535     1.007825032230
         H            2.827406786633     0.334553904396     1.417795851535     1.007825032230
         H            2.233745786633    -1.182244095604     0.730844851535     1.007825032230
         H            0.703433786633     1.279435904396     1.135320851535     1.007825032230
         H           -1.397577213367     1.422905904396    -1.504743148465     1.007825032230
         H           -0.992965213367     2.386533904396    -0.062407148465     1.007825032230
         H           -2.681500213367     1.968056904396    -0.410444148465     1.007825032230
         H            2.278493786633    -0.211972095604    -1.551416148465     1.007825032230
         H            2.865511786633     1.336776904396    -0.907280148465     1.007825032230
         H            3.889768786633    -0.108325095604    -0.816040148465     1.007825032230
         H           -1.960681213367    -1.370678095604    -0.491138148465     1.007825032230

  Basis Set: AUG-CC-PVTZ
    Blend: AUG-CC-PVTZ
  Basis Set: (AUG-CC-PVTZ AUX)
    Blend: AUG-CC-PVTZ-JKFIT
	 Reference Energy          =    -400.0849856669014457 [Eh]
	 Singles Energy            =      -0.0000000000000000 [Eh]
	 Same-Spin Energy          =      -0.4018810135528134 [Eh]
	 Opposite-Spin Energy      =      -1.3071359765226531 [Eh]
	 Correlation Energy        =      -1.7090169900754666 [Eh]
	 Total Energy              =    -401.7940026569768861 [Eh]

	 ================> DF-SCS-MP2 Energies <==================
	-----------------------------------------------------------
	 SCS Same-Spin Scale       =       0.3333333333333333 [-]
	 SCS Opposite-Spin Scale   =       1.2000000000000000 [-]
	 SCS Same-Spin Energy      =      -0.1339603378509378 [Eh]
	 SCS Opposite-Spin Energy  =      -1.5685631718271837 [Eh]
	 SCS Correlation Energy    =      -1.7025235096781215 [Eh]
	 SCS Total Energy          =    -401.7875091765795901 [Eh]
	-----------------------------------------------------------

  Dipole Moment: [D]
     X:     2.8586      Y:     3.2377      Z:     1.4993     Total:     4.5719

*** Psi4 exiting successfully. Buy a developer a beer!
