                               Psi4 1.3.2 release

  ==> Input File <==

--------------------------------------------------------------------------
#psi4
#
memory 32 gb

molecule  {
0 1
  O       -2.4925410    -0.6205970    -0.1535330
  O       -0.0069960    -1.4050930    -0.3804930
  N        0.8845720     0.3685180     0.7343320
  C       -1.5404070     0.3017530     0.3325960
  C        2.2569670    -0.1011270     0.6035390
  C       -0.1603510    -0.3216970     0.1189843
  C       -1.6458490     1.6048030    -0.4506110
  C        2.8658230     0.2522360    -0.7461750
  H       -1.7838784     0.5134447     1.3851907
  H        2.8336360     0.3321260     1.4253690
  H        2.2399750    -1.1846720     0.7384180
  H        0.7096630     1.2770080     1.1428940
  H       -1.3913480     1.4204780    -1.4971700
  H       -0.9867360     2.3841060    -0.0548340
  H       -2.6752710     1.9656290    -0.4028710
  H        2.2847230    -0.2144000    -1.5438430
  H        2.8717410     1.3343490    -0.8997070
  H        3.8959980    -0.1107530    -0.8084670
  H       -1.9544520    -1.3731060    -0.4835650
units angstrom
no_reorient  #important for SAPT in psi4, default
symmetry c1  #important for SAPT in psi4, default
}

set PROPERTIES_ORIGIN ["COM"]
properties('MP2/aug-cc-pvtz', properties = ['dipole'])
--------------------------------------------------------------------------

    Molecular point group: c1
  Charge       = 0
  Multiplicity = 1
  Basis Set: AUG-CC-PVTZ
    Blend: AUG-CC-PVTZ
  Basis Set: (AUG-CC-PVTZ AUX)
    Blend: AUG-CC-PVTZ-JKFIT

    Orbital Energies [Eh]
    ---------------------

    Doubly Occupied:

       1A    -20.549300     2A    -20.544516     3A    -15.590445
       4A    -11.361513     5A    -11.297968     6A    -11.269730
       7A    -11.230100     8A    -11.221214     9A     -1.420078
      10A     -1.352563    11A     -1.233843    12A     -1.050295
      13A     -1.008875    14A     -0.898419    15A     -0.844834
      16A     -0.785868    17A     -0.750679    18A     -0.677897
      19A     -0.651202    20A     -0.643014    21A     -0.613162
      22A     -0.598561    23A     -0.577822    24A     -0.562727
      25A     -0.541921    26A     -0.534261    27A     -0.526936
      28A     -0.521264    29A     -0.501493    30A     -0.446540
      31A     -0.438378    32A     -0.399870

  @DF-RHF Final Energy:  -400.08379638101582

   => Energetics <=

    Nuclear Repulsion Energy =            400.7838747420759091
    One-Electron Energy =               -1340.4447658513033730
    Two-Electron Energy =                 539.5770947282115912
    Total Energy =                       -400.0837963810158726
  Basis Set: (AUG-CC-PVTZ AUX)
    Blend: AUG-CC-PVTZ-RI
    Molecular point group: c1

    Geometry (in Angstrom), charge = 0, multiplicity = 1:

       Center              X                  Y                   Z               Mass
    ------------   -----------------  -----------------  -----------------  -----------------
         O           -2.490938558326    -0.620469868515    -0.145289038458    15.994914619570
         O           -0.005393558326    -1.404965868515    -0.372249038458    15.994914619570
         N            0.886174441674     0.368645131485     0.742575961542    14.003074004430
         C           -1.538804558326     0.301880131485     0.340839961542    12.000000000000
         C            2.258569441674    -0.100999868515     0.611782961542    12.000000000000
         C           -0.158748558326    -0.321569868515     0.127228261542    12.000000000000
         C           -1.644246558326     1.604930131485    -0.442367038458    12.000000000000
         C            2.867425441674     0.252363131485    -0.737931038458    12.000000000000
         H           -1.782275958326     0.513571831485     1.393434661542     1.007825032230
         H            2.835238441674     0.332253131485     1.433612961542     1.007825032230
         H            2.241577441674    -1.184544868515     0.746661961542     1.007825032230
         H            0.711265441674     1.277135131485     1.151137961542     1.007825032230
         H           -1.389745558326     1.420605131485    -1.488926038458     1.007825032230
         H           -0.985133558326     2.384233131485    -0.046590038458     1.007825032230
         H           -2.673668558326     1.965756131485    -0.394627038458     1.007825032230
         H            2.286325441674    -0.214272868515    -1.535599038458     1.007825032230
         H            2.873343441674     1.334476131485    -0.891463038458     1.007825032230
         H            3.897600441674    -0.110625868515    -0.800223038458     1.007825032230
         H           -1.952849558326    -1.372978868515    -0.475321038458     1.007825032230

  Basis Set: AUG-CC-PVTZ
    Blend: AUG-CC-PVTZ
  Basis Set: (AUG-CC-PVTZ AUX)
    Blend: AUG-CC-PVTZ-JKFIT
	 Reference Energy          =    -400.0837963810158158 [Eh]
	 Singles Energy            =      -0.0000000000000000 [Eh]
	 Same-Spin Energy          =      -0.4016853679926650 [Eh]
	 Opposite-Spin Energy      =      -1.3070936649485860 [Eh]
	 Correlation Energy        =      -1.7087790329412509 [Eh]
	 Total Energy              =    -401.7925754139570813 [Eh]

	 ================> DF-SCS-MP2 Energies <==================
	-----------------------------------------------------------
	 SCS Same-Spin Scale       =       0.3333333333333333 [-]
	 SCS Opposite-Spin Scale   =       1.2000000000000000 [-]
	 SCS Same-Spin Energy      =      -0.1338951226642217 [Eh]
	 SCS Opposite-Spin Energy  =      -1.5685123979383031 [Eh]
	 SCS Correlation Energy    =      -1.7024075206025246 [Eh]
	 SCS Total Energy          =    -401.7862039016183644 [Eh]
	-----------------------------------------------------------

  Dipole Moment: [D]
     X:     2.6735      Y:     2.9235      Z:     1.3805     Total:     4.1952

*** Psi4 exiting successfully. Buy a developer a beer!
