                               Psi4 1.3.2 release

  ==> Input File <==

--------------------------------------------------------------------------
#psi4
#
memory 32 gb

molecule  {
0 1
  O       -2.4558263    -0.6519275    -0.1634998
  O       -0.0069960    -1.4050930    -0.3804930
  N        0.8845720     0.3685180     0.7343320
  C       -1.5404070     0.3017530     0.3325960
  C        2.2569670    -0.1011270     0.6035390
  C       -0.1715673    -0.3623559     0.1773166
  C       -1.6458490     1.6048030    -0.4506110
  C        2.8658230     0.2522360    -0.7461750
  H       -1.7322500     0.4923850     1.3997900
  H        2.8336360     0.3321260     1.4253690
  H        2.2399750    -1.1846720     0.7384180
  H        0.7096630     1.2770080     1.1428940
  H       -1.3913480     1.4204780    -1.4971700
  H       -0.9867360     2.3841060    -0.0548340
  H       -2.6752710     1.9656290    -0.4028710
  H        2.2847230    -0.2144000    -1.5438430
  H        2.8717410     1.3343490    -0.8997070
  H        3.8959980    -0.1107530    -0.8084670
  H       -1.9544520    -1.3731060    -0.4835650
units angstrom
no_reorient  #important for SAPT in psi4, default
symmetry c1  #important for SAPT in psi4, default
}

set PROPERTIES_ORIGIN ["COM"]
properties('MP2/aug-cc-pvtz', properties = ['dipole'])
--------------------------------------------------------------------------

    Molecular point group: c1
  Charge       = 0
  Multiplicity = 1
  Basis Set: AUG-CC-PVTZ
    Blend: AUG-CC-PVTZ
  Basis Set: (AUG-CC-PVTZ AUX)
    Blend: AUG-CC-PVTZ-JKFIT

    Orbital Energies [Eh]
    ---------------------

    Doubly Occupied:

       1A    -20.545154     2A    -20.543315     3A    -15.587194
       4A    -11.358420     5A    -11.299483     6A    -11.268180
       7A    -11.232544     8A    -11.219666     9A     -1.425471
      10A     -1.360732    11A     -1.230929    12A     -1.050957
      13A     -1.008331    14A     -0.900439    15A     -0.845983
      16A     -0.784605    17A     -0.752100    18A     -0.682569
      19A     -0.652225    20A     -0.644624    21A     -0.612509
      22A     -0.597797    23A     -0.582090    24A     -0.563437
      25A     -0.542741    26A     -0.534736    27A     -0.527924
      28A     -0.520084    29A     -0.500239    30A     -0.449707
      31A     -0.437083    32A     -0.397823

  @DF-RHF Final Energy:  -400.08685152732824

   => Energetics <=

    Nuclear Repulsion Energy =            401.3513239857005601
    One-Electron Energy =               -1341.5581683024336144
    Two-Electron Energy =                 540.1199927894048187
    Total Energy =                       -400.0868515273282355
  Basis Set: (AUG-CC-PVTZ AUX)
    Blend: AUG-CC-PVTZ-RI
    Molecular point group: c1

    Geometry (in Angstrom), charge = 0, multiplicity = 1:

       Center              X                  Y                   Z               Mass
    ------------   -----------------  -----------------  -----------------  -----------------
         O           -2.458534497962    -0.643171492714    -0.159998645677    15.994914619570
         O           -0.009704197962    -1.396336992714    -0.376991845677    15.994914619570
         N            0.881863802038     0.377274007286     0.737833154323    14.003074004430
         C           -1.543115197962     0.310509007286     0.336097154323    12.000000000000
         C            2.254258802038    -0.092370992714     0.607040154323    12.000000000000
         C           -0.174275497962    -0.353599892714     0.180817754323    12.000000000000
         C           -1.648557197962     1.613559007286    -0.447109845677    12.000000000000
         C            2.863114802038     0.260992007286    -0.742673845677    12.000000000000
         H           -1.734958197962     0.501141007286     1.403291154323     1.007825032230
         H            2.830927802038     0.340882007286     1.428870154323     1.007825032230
         H            2.237266802038    -1.175915992714     0.741919154323     1.007825032230
         H            0.706954802038     1.285764007286     1.146395154323     1.007825032230
         H           -1.394056197962     1.429234007286    -1.493668845677     1.007825032230
         H           -0.989444197962     2.392862007286    -0.051332845677     1.007825032230
         H           -2.677979197962     1.974385007286    -0.399369845677     1.007825032230
         H            2.282014802038    -0.205643992714    -1.540341845677     1.007825032230
         H            2.869032802038     1.343105007286    -0.896205845677     1.007825032230
         H            3.893289802038    -0.101996992714    -0.804965845677     1.007825032230
         H           -1.957160197962    -1.364349992714    -0.480063845677     1.007825032230

  Basis Set: AUG-CC-PVTZ
    Blend: AUG-CC-PVTZ
  Basis Set: (AUG-CC-PVTZ AUX)
    Blend: AUG-CC-PVTZ-JKFIT
	 Reference Energy          =    -400.0868515273282355 [Eh]
	 Singles Energy            =      -0.0000000000000000 [Eh]
	 Same-Spin Energy          =      -0.4005739559990361 [Eh]
	 Opposite-Spin Energy      =      -1.3046619288823087 [Eh]
	 Correlation Energy        =      -1.7052358848813447 [Eh]
	 Total Energy              =    -401.7920874122095825 [Eh]

	 ================> DF-SCS-MP2 Energies <==================
	-----------------------------------------------------------
	 SCS Same-Spin Scale       =       0.3333333333333333 [-]
	 SCS Opposite-Spin Scale   =       1.2000000000000000 [-]
	 SCS Same-Spin Energy      =      -0.1335246519996787 [Eh]
	 SCS Opposite-Spin Energy  =      -1.5655943146587703 [Eh]
	 SCS Correlation Energy    =      -1.6991189666584490 [Eh]
	 SCS Total Energy          =    -401.7859704939866674 [Eh]
	-----------------------------------------------------------

  Dipole Moment: [D]
     X:     2.5164      Y:     2.9312      Z:     1.3984     Total:     4.1085

*** Psi4 exiting successfully. Buy a developer a beer!
