                               Psi4 1.4a3.dev225

  ==> Input File <==

--------------------------------------------------------------------------
#psi4
#
memory 32 gb

molecule  {
0 1
  O       -2.5334200    -0.7491890    -0.0380440
  O       -0.0309920    -1.3916750    -0.5246560
  N        0.8474210     0.2516040     0.7908210
  C       -1.5793960     0.2040340     0.3844480
  C        2.2299320    -0.1523350     0.5631470
  C       -0.1796624    -0.4024809     0.1734232
  C       -1.7305020     1.4971750    -0.4144490
  C        2.7876300     0.3918150    -0.7462470
  H       -1.7371730     0.4054880     1.4537200
  H        2.8183710     0.1913570     1.4185970
  H        2.2480760    -1.2444890     0.5585260
  H        0.6595560     1.1005830     1.3085070
  H       -1.5202540     1.2971370    -1.4686150
  H       -1.0543700     2.2823790    -0.0604110
  H       -2.7592110     1.8535180    -0.3272230
  H        2.1936920     0.0168210    -1.5822170
  H        2.7616940     1.4848860    -0.7566670
  H        3.8242090     0.0700520    -0.8849050
  H       -2.0046360    -1.4186050    -0.5240660
units angstrom
no_reorient  #important for SAPT in psi4, default
symmetry c1  #important for SAPT in psi4, default
}

set PROPERTIES_ORIGIN ["COM"]
properties('MP2/aug-cc-pvtz', properties = ['dipole'])
--------------------------------------------------------------------------

    Molecular point group: c1
  Charge       = 0
  Multiplicity = 1
  Basis Set: AUG-CC-PVTZ
    Blend: AUG-CC-PVTZ
  Basis Set: (AUG-CC-PVTZ AUX)
    Blend: AUG-CC-PVTZ-JKFIT

    Orbital Energies [Eh]
    ---------------------

    Doubly Occupied:

       1A    -20.549480     2A    -20.537159     3A    -15.596018
       4A    -11.358689     5A    -11.297926     6A    -11.272882
       7A    -11.230106     8A    -11.223227     9A     -1.407175
      10A     -1.349393    11A     -1.242534    12A     -1.049295
      13A     -1.011066    14A     -0.900078    15A     -0.846333
      16A     -0.792274    17A     -0.745556    18A     -0.675082
      19A     -0.647581    20A     -0.638248    21A     -0.614267
      22A     -0.599374    23A     -0.581886    24A     -0.563800
      25A     -0.541358    26A     -0.532414    27A     -0.525109
      28A     -0.516163    29A     -0.503003    30A     -0.447623
      31A     -0.433103    32A     -0.403414

  @DF-RHF Final Energy:  -400.08850344316272

   => Energetics <=

    Nuclear Repulsion Energy =            400.4590261766366552
    One-Electron Energy =               -1339.8318207043832899
    Two-Electron Energy =                 539.2842910845839697
    Total Energy =                       -400.0885034431627219
  Basis Set: (AUG-CC-PVTZ AUX)
    Blend: AUG-CC-PVTZ-RI
    Molecular point group: c1

    Geometry (in Angstrom), charge = 0, multiplicity = 1:

       Center              X                  Y                   Z               Mass
    ------------   -----------------  -----------------  -----------------  -----------------
         O           -2.487787647272    -0.696448303328    -0.044244363307    15.994914619570
         O            0.014640352728    -1.338934303328    -0.530856363307    15.994914619570
         N            0.893053352728     0.304344696672     0.784620636693    14.003074004430
         C           -1.533763647272     0.256774696672     0.378247636693    12.000000000000
         C            2.275564352728    -0.099594303328     0.556946636693    12.000000000000
         C           -0.134030047272    -0.349740203328     0.167222836693    12.000000000000
         C           -1.684869647272     1.549915696672    -0.420649363307    12.000000000000
         C            2.833262352728     0.444555696672    -0.752447363307    12.000000000000
         H           -1.691540647272     0.458228696672     1.447519636693     1.007825032230
         H            2.864003352728     0.244097696672     1.412396636693     1.007825032230
         H            2.293708352728    -1.191748303328     0.552325636693     1.007825032230
         H            0.705188352728     1.153323696672     1.302306636693     1.007825032230
         H           -1.474621647272     1.349877696672    -1.474815363307     1.007825032230
         H           -1.008737647272     2.335119696672    -0.066611363307     1.007825032230
         H           -2.713578647272     1.906258696672    -0.333423363307     1.007825032230
         H            2.239324352728     0.069561696672    -1.588417363307     1.007825032230
         H            2.807326352728     1.537626696672    -0.762867363307     1.007825032230
         H            3.869841352728     0.122792696672    -0.891105363307     1.007825032230
         H           -1.959003647272    -1.365864303328    -0.530266363307     1.007825032230

  Basis Set: AUG-CC-PVTZ
    Blend: AUG-CC-PVTZ
  Basis Set: (AUG-CC-PVTZ AUX)
    Blend: AUG-CC-PVTZ-JKFIT
	 Reference Energy          =    -400.0885034431627219 [Eh]
	 Singles Energy            =      -0.0000000000000000 [Eh]
	 Same-Spin Energy          =      -0.4015977630833405 [Eh]
	 Opposite-Spin Energy      =      -1.3070186885359716 [Eh]
	 Correlation Energy        =      -1.7086164516193121 [Eh]
	 Total Energy              =    -401.7971198947820426 [Eh]

	 ================> DF-SCS-MP2 Energies <==================
	-----------------------------------------------------------
	 SCS Same-Spin Scale       =       0.3333333333333333 [-]
	 SCS Opposite-Spin Scale   =       1.2000000000000000 [-]
	 SCS Same-Spin Energy      =      -0.1338659210277802 [Eh]
	 SCS Opposite-Spin Energy  =      -1.5684224262431659 [Eh]
	 SCS Correlation Energy    =      -1.7022883472709460 [Eh]
	 SCS Total Energy          =    -401.7907917904336728 [Eh]
	-----------------------------------------------------------

  Dipole Moment: [D]
     X:     2.8211      Y:     3.0262      Z:     1.5425     Total:     4.4154

*** Psi4 exiting successfully. Buy a developer a beer!
