                               Psi4 1.3.2 release

  ==> Input File <==

--------------------------------------------------------------------------
#psi4
#
memory 32 gb

molecule  {
0 1
  O       -2.4925410    -0.6205970    -0.1535330
  O       -0.0069960    -1.4050930    -0.3804930
  N        0.9137316     0.3343729     0.7198039
  C       -1.5605922     0.2598738     0.3063615
  C        2.2569670    -0.1011270     0.6035390
  C       -0.1490540    -0.3186880     0.1981930
  C       -1.6458490     1.6048030    -0.4506110
  C        2.8658230     0.2522360    -0.7461750
  H       -1.7322500     0.4923850     1.3997900
  H        2.8336360     0.3321260     1.4253690
  H        2.2399750    -1.1846720     0.7384180
  H        0.7096630     1.2770080     1.1428940
  H       -1.3913480     1.4204780    -1.4971700
  H       -0.9867360     2.3841060    -0.0548340
  H       -2.6752710     1.9656290    -0.4028710
  H        2.2847230    -0.2144000    -1.5438430
  H        2.8717410     1.3343490    -0.8997070
  H        3.8959980    -0.1107530    -0.8084670
  H       -1.9544520    -1.3731060    -0.4835650
units angstrom
no_reorient  #important for SAPT in psi4, default
symmetry c1  #important for SAPT in psi4, default
}

set PROPERTIES_ORIGIN ["COM"]
properties('MP2/aug-cc-pvtz', properties = ['dipole'])
--------------------------------------------------------------------------

    Molecular point group: c1
  Charge       = 0
  Multiplicity = 1
  Basis Set: AUG-CC-PVTZ
    Blend: AUG-CC-PVTZ
  Basis Set: (AUG-CC-PVTZ AUX)
    Blend: AUG-CC-PVTZ-JKFIT

    Orbital Energies [Eh]
    ---------------------

    Doubly Occupied:

       1A    -20.555801     2A    -20.530667     3A    -15.600798
       4A    -11.357669     5A    -11.302320     6A    -11.270516
       7A    -11.230970     8A    -11.221405     9A     -1.406762
      10A     -1.363846    11A     -1.247281    12A     -1.049897
      13A     -1.009064    14A     -0.903707    15A     -0.850860
      16A     -0.782027    17A     -0.755042    18A     -0.680452
      19A     -0.654908    20A     -0.641289    21A     -0.616712
      22A     -0.593162    23A     -0.583889    24A     -0.564003
      25A     -0.547399    26A     -0.535385    27A     -0.520616
      28A     -0.516023    29A     -0.500237    30A     -0.439346
      31A     -0.434898    32A     -0.399019

  @DF-RHF Final Energy:  -400.08129631819736

   => Energetics <=

    Nuclear Repulsion Energy =            401.3712930819753524
    One-Electron Energy =               -1341.5732401139403009
    Two-Electron Energy =                 540.1206507137675317
    Total Energy =                       -400.0812963181973601
  Basis Set: (AUG-CC-PVTZ AUX)
    Blend: AUG-CC-PVTZ-RI
    Molecular point group: c1

    Geometry (in Angstrom), charge = 0, multiplicity = 1:

       Center              X                  Y                   Z               Mass
    ------------   -----------------  -----------------  -----------------  -----------------
         O           -2.493959579135    -0.612220708277    -0.149106682632    15.994914619570
         O           -0.008414579135    -1.396716708277    -0.376066682632    15.994914619570
         N            0.912313020865     0.342749191723     0.724230217368    14.003074004430
         C           -1.562010779135     0.268250091723     0.310787817368    12.000000000000
         C            2.255548420865    -0.092750708277     0.607965317368    12.000000000000
         C           -0.150472579135    -0.310311708277     0.202619317368    12.000000000000
         C           -1.647267579135     1.613179291723    -0.446184682632    12.000000000000
         C            2.864404420865     0.260612291723    -0.741748682632    12.000000000000
         H           -1.733668579135     0.500761291723     1.404216317368     1.007825032230
         H            2.832217420865     0.340502291723     1.429795317368     1.007825032230
         H            2.238556420865    -1.176295708277     0.742844317368     1.007825032230
         H            0.708244420865     1.285384291723     1.147320317368     1.007825032230
         H           -1.392766579135     1.428854291723    -1.492743682632     1.007825032230
         H           -0.988154579135     2.392482291723    -0.050407682632     1.007825032230
         H           -2.676689579135     1.974005291723    -0.398444682632     1.007825032230
         H            2.283304420865    -0.206023708277    -1.539416682632     1.007825032230
         H            2.870322420865     1.342725291723    -0.895280682632     1.007825032230
         H            3.894579420865    -0.102376708277    -0.804040682632     1.007825032230
         H           -1.955870579135    -1.364729708277    -0.479138682632     1.007825032230

  Basis Set: AUG-CC-PVTZ
    Blend: AUG-CC-PVTZ
  Basis Set: (AUG-CC-PVTZ AUX)
    Blend: AUG-CC-PVTZ-JKFIT
	 Reference Energy          =    -400.0812963181973601 [Eh]
	 Singles Energy            =      -0.0000000000000000 [Eh]
	 Same-Spin Energy          =      -0.4026476460720511 [Eh]
	 Opposite-Spin Energy      =      -1.3076792644822941 [Eh]
	 Correlation Energy        =      -1.7103269105543450 [Eh]
	 Total Energy              =    -401.7916232287516891 [Eh]

	 ================> DF-SCS-MP2 Energies <==================
	-----------------------------------------------------------
	 SCS Same-Spin Scale       =       0.3333333333333333 [-]
	 SCS Opposite-Spin Scale   =       1.2000000000000000 [-]
	 SCS Same-Spin Energy      =      -0.1342158820240170 [Eh]
	 SCS Opposite-Spin Energy  =      -1.5692151173787530 [Eh]
	 SCS Correlation Energy    =      -1.7034309994027699 [Eh]
	 SCS Total Energy          =    -401.7847273176001295 [Eh]
	-----------------------------------------------------------

  Dipole Moment: [D]
     X:     2.6929      Y:     3.0545      Z:     1.5269     Total:     4.3489

*** Psi4 exiting successfully. Buy a developer a beer!
