                               Psi4 1.3.2 release

  ==> Input File <==

--------------------------------------------------------------------------
#psi4
#
memory 32 gb

molecule  {
0 1
  O       -2.4925410    -0.6205970    -0.1535330
  O       -0.0069960    -1.4050930    -0.3804930
  N        0.8845720     0.3685180     0.7343320
  C       -1.5404070     0.3017530     0.3325960
  C        2.2569670    -0.1011270     0.6035390
  C       -0.1777341    -0.2830994     0.2099462
  C       -1.6458490     1.6048030    -0.4506110
  C        2.8658230     0.2522360    -0.7461750
  H       -1.7322500     0.4923850     1.3997900
  H        2.8336360     0.3321260     1.4253690
  H        2.2399750    -1.1846720     0.7384180
  H        0.6755422     1.2735085     1.1345432
  H       -1.3913480     1.4204780    -1.4971700
  H       -0.9867360     2.3841060    -0.0548340
  H       -2.6752710     1.9656290    -0.4028710
  H        2.2847230    -0.2144000    -1.5438430
  H        2.8717410     1.3343490    -0.8997070
  H        3.8959980    -0.1107530    -0.8084670
  H       -1.9544520    -1.3731060    -0.4835650
units angstrom
no_reorient  #important for SAPT in psi4, default
symmetry c1  #important for SAPT in psi4, default
}

set PROPERTIES_ORIGIN ["COM"]
properties('MP2/aug-cc-pvtz', properties = ['dipole'])
--------------------------------------------------------------------------

    Molecular point group: c1
  Charge       = 0
  Multiplicity = 1
  Basis Set: AUG-CC-PVTZ
    Blend: AUG-CC-PVTZ
  Basis Set: (AUG-CC-PVTZ AUX)
    Blend: AUG-CC-PVTZ-JKFIT

    Orbital Energies [Eh]
    ---------------------

    Doubly Occupied:

       1A    -20.550145     2A    -20.527232     3A    -15.602208
       4A    -11.361391     5A    -11.300296     6A    -11.276138
       7A    -11.234177     8A    -11.223424     9A     -1.385386
      10A     -1.339938    11A     -1.241510    12A     -1.059995
      13A     -1.015660    14A     -0.909108    15A     -0.854370
      16A     -0.789029    17A     -0.747730    18A     -0.678650
      19A     -0.651323    20A     -0.635170    21A     -0.613324
      22A     -0.592437    23A     -0.575988    24A     -0.565760
      25A     -0.544253    26A     -0.535188    27A     -0.514804
      28A     -0.512709    29A     -0.499876    30A     -0.447116
      31A     -0.438031    32A     -0.400855

  @DF-RHF Final Energy:  -400.08060718011933

   => Energetics <=

    Nuclear Repulsion Energy =            400.5216356030713314
    One-Electron Energy =               -1339.9580385425297209
    Two-Electron Energy =                 539.3557957593390029
    Total Energy =                       -400.0806071801193866
  Basis Set: (AUG-CC-PVTZ AUX)
    Blend: AUG-CC-PVTZ-RI
    Molecular point group: c1

    Geometry (in Angstrom), charge = 0, multiplicity = 1:

       Center              X                  Y                   Z               Mass
    ------------   -----------------  -----------------  -----------------  -----------------
         O           -2.489307585757    -0.624214518740    -0.154665958276    15.994914619570
         O           -0.003762585757    -1.408710518740    -0.381625958276    15.994914619570
         N            0.887805414243     0.364900481260     0.733199041724    14.003074004430
         C           -1.537173585757     0.298135481260     0.331463041724    12.000000000000
         C            2.260200414243    -0.104744518740     0.602406041724    12.000000000000
         C           -0.174500685757    -0.286716918740     0.208813241724    12.000000000000
         C           -1.642615585757     1.601185481260    -0.451743958276    12.000000000000
         C            2.869056414243     0.248618481260    -0.747307958276    12.000000000000
         H           -1.729016585757     0.488767481260     1.398657041724     1.007825032230
         H            2.836869414243     0.328508481260     1.424236041724     1.007825032230
         H            2.243208414243    -1.188289518740     0.737285041724     1.007825032230
         H            0.678775614243     1.269890981260     1.133410241724     1.007825032230
         H           -1.388114585757     1.416860481260    -1.498302958276     1.007825032230
         H           -0.983502585757     2.380488481260    -0.055966958276     1.007825032230
         H           -2.672037585757     1.962011481260    -0.404003958276     1.007825032230
         H            2.287956414243    -0.218017518740    -1.544975958276     1.007825032230
         H            2.874974414243     1.330731481260    -0.900839958276     1.007825032230
         H            3.899231414243    -0.114370518740    -0.809599958276     1.007825032230
         H           -1.951218585757    -1.376723518740    -0.484697958276     1.007825032230

  Basis Set: AUG-CC-PVTZ
    Blend: AUG-CC-PVTZ
  Basis Set: (AUG-CC-PVTZ AUX)
    Blend: AUG-CC-PVTZ-JKFIT
	 Reference Energy          =    -400.0806071801193298 [Eh]
	 Singles Energy            =      -0.0000000000000000 [Eh]
	 Same-Spin Energy          =      -0.4032362208414901 [Eh]
	 Opposite-Spin Energy      =      -1.3098077387219138 [Eh]
	 Correlation Energy        =      -1.7130439595634039 [Eh]
	 Total Energy              =    -401.7936511396827086 [Eh]

	 ================> DF-SCS-MP2 Energies <==================
	-----------------------------------------------------------
	 SCS Same-Spin Scale       =       0.3333333333333333 [-]
	 SCS Opposite-Spin Scale   =       1.2000000000000000 [-]
	 SCS Same-Spin Energy      =      -0.1344120736138300 [Eh]
	 SCS Opposite-Spin Energy  =      -1.5717692864662964 [Eh]
	 SCS Correlation Energy    =      -1.7061813600801266 [Eh]
	 SCS Total Energy          =    -401.7867885401994386 [Eh]
	-----------------------------------------------------------

  Dipole Moment: [D]
     X:     2.8247      Y:     3.3258      Z:     1.6132     Total:     4.6521

*** Psi4 exiting successfully. Buy a developer a beer!
