                               Psi4 1.3.2 release

  ==> Input File <==

--------------------------------------------------------------------------
#psi4
#
memory 32 gb

molecule  {
0 1
  O       -2.4925410    -0.6205970    -0.1535330
  O       -0.0069960    -1.4050930    -0.3804930
  N        0.8845720     0.3685180     0.7343320
  C       -1.5404070     0.3017530     0.3325960
  C        2.2569670    -0.1011270     0.6035390
  C       -0.1567924    -0.3388621     0.2138636
  C       -1.6710989     1.6072864    -0.4426283
  C        2.8658230     0.2522360    -0.7461750
  H       -1.7322500     0.4923850     1.3997900
  H        2.8336360     0.3321260     1.4253690
  H        2.2399750    -1.1846720     0.7384180
  H        0.7096630     1.2770080     1.1428940
  H       -1.3913480     1.4204780    -1.4971700
  H       -0.9867360     2.3841060    -0.0548340
  H       -2.6752710     1.9656290    -0.4028710
  H        2.2847230    -0.2144000    -1.5438430
  H        2.8717410     1.3343490    -0.8997070
  H        3.8959980    -0.1107530    -0.8084670
  H       -1.9544520    -1.3731060    -0.4835650
units angstrom
no_reorient  #important for SAPT in psi4, default
symmetry c1  #important for SAPT in psi4, default
}

set PROPERTIES_ORIGIN ["COM"]
properties('MP2/aug-cc-pvtz', properties = ['dipole'])
--------------------------------------------------------------------------

    Molecular point group: c1
  Charge       = 0
  Multiplicity = 1
  Basis Set: AUG-CC-PVTZ
    Blend: AUG-CC-PVTZ
  Basis Set: (AUG-CC-PVTZ AUX)
    Blend: AUG-CC-PVTZ-JKFIT

    Orbital Energies [Eh]
    ---------------------

    Doubly Occupied:

       1A    -20.548389     2A    -20.536311     3A    -15.596883
       4A    -11.360061     5A    -11.298049     6A    -11.273051
       7A    -11.231510     8A    -11.222547     9A     -1.403338
      10A     -1.348173    11A     -1.243183    12A     -1.051278
      13A     -1.011719    14A     -0.903161    15A     -0.848285
      16A     -0.792246    17A     -0.744805    18A     -0.676389
      19A     -0.647462    20A     -0.643930    21A     -0.612463
      22A     -0.597684    23A     -0.576613    24A     -0.568973
      25A     -0.541467    26A     -0.529925    27A     -0.523966
      28A     -0.515526    29A     -0.502074    30A     -0.445167
      31A     -0.438178    32A     -0.402691

  @DF-RHF Final Energy:  -400.08709316374427

   => Energetics <=

    Nuclear Repulsion Energy =            400.4249248632766012
    One-Electron Energy =               -1339.7530434928903560
    Two-Electron Energy =                 539.2410254658694839
    Total Energy =                       -400.0870931637442709
  Basis Set: (AUG-CC-PVTZ AUX)
    Blend: AUG-CC-PVTZ-RI
    Molecular point group: c1

    Geometry (in Angstrom), charge = 0, multiplicity = 1:

       Center              X                  Y                   Z               Mass
    ------------   -----------------  -----------------  -----------------  -----------------
         O           -2.489159731686    -0.618783785367    -0.155957542360    15.994914619570
         O           -0.003614731686    -1.403279785367    -0.382917542360    15.994914619570
         N            0.887953268314     0.370331214633     0.731907457640    14.003074004430
         C           -1.537025731686     0.303566214633     0.330171457640    12.000000000000
         C            2.260348268314    -0.099313785367     0.601114457640    12.000000000000
         C           -0.153411131686    -0.337048885367     0.211439057640    12.000000000000
         C           -1.667717631686     1.609099614633    -0.445052842360    12.000000000000
         C            2.869204268314     0.254049214633    -0.748599542360    12.000000000000
         H           -1.728868731686     0.494198214633     1.397365457640     1.007825032230
         H            2.837017268314     0.333939214633     1.422944457640     1.007825032230
         H            2.243356268314    -1.182858785367     0.735993457640     1.007825032230
         H            0.713044268314     1.278821214633     1.140469457640     1.007825032230
         H           -1.387966731686     1.422291214633    -1.499594542360     1.007825032230
         H           -0.983354731686     2.385919214633    -0.057258542360     1.007825032230
         H           -2.671889731686     1.967442214633    -0.405295542360     1.007825032230
         H            2.288104268314    -0.212586785367    -1.546267542360     1.007825032230
         H            2.875122268314     1.336162214633    -0.902131542360     1.007825032230
         H            3.899379268314    -0.108939785367    -0.810891542360     1.007825032230
         H           -1.951070731686    -1.371292785367    -0.485989542360     1.007825032230

  Basis Set: AUG-CC-PVTZ
    Blend: AUG-CC-PVTZ
  Basis Set: (AUG-CC-PVTZ AUX)
    Blend: AUG-CC-PVTZ-JKFIT
	 Reference Energy          =    -400.0870931637442709 [Eh]
	 Singles Energy            =      -0.0000000000000000 [Eh]
	 Same-Spin Energy          =      -0.4019193998537675 [Eh]
	 Opposite-Spin Energy      =      -1.3074169102420266 [Eh]
	 Correlation Energy        =      -1.7093363100957939 [Eh]
	 Total Energy              =    -401.7964294738400781 [Eh]

	 ================> DF-SCS-MP2 Energies <==================
	-----------------------------------------------------------
	 SCS Same-Spin Scale       =       0.3333333333333333 [-]
	 SCS Opposite-Spin Scale   =       1.2000000000000000 [-]
	 SCS Same-Spin Energy      =      -0.1339731332845892 [Eh]
	 SCS Opposite-Spin Energy  =      -1.5689002922904318 [Eh]
	 SCS Correlation Energy    =      -1.7028734255750209 [Eh]
	 SCS Total Energy          =    -401.7899665893193060 [Eh]
	-----------------------------------------------------------

  Dipole Moment: [D]
     X:     2.8420      Y:     3.0779      Z:     1.5362     Total:     4.4621

*** Psi4 exiting successfully. Buy a developer a beer!
