                               Psi4 1.4a3.dev225

  ==> Input File <==

--------------------------------------------------------------------------
#psi4
#
memory 32 gb

molecule  {
0 1
  O       -2.5334200    -0.7491890    -0.0380440
  O       -0.0309920    -1.3916750    -0.5246560
  N        0.8474210     0.2516040     0.7908210
  C       -1.5793960     0.2040340     0.3844480
  C        2.2299320    -0.1523350     0.5631470
  C       -0.1821000    -0.3862620     0.1848690
  C       -1.7305020     1.4971750    -0.4144490
  C        2.7876300     0.3918150    -0.7462470
  H       -1.7400431     0.4091526     1.4731708
  H        2.8183710     0.1913570     1.4185970
  H        2.2480760    -1.2444890     0.5585260
  H        0.6595560     1.1005830     1.3085070
  H       -1.5202540     1.2971370    -1.4686150
  H       -1.0543700     2.2823790    -0.0604110
  H       -2.7592110     1.8535180    -0.3272230
  H        2.1936920     0.0168210    -1.5822170
  H        2.7616940     1.4848860    -0.7566670
  H        3.8242090     0.0700520    -0.8849050
  H       -2.0046360    -1.4186050    -0.5240660
units angstrom
no_reorient  #important for SAPT in psi4, default
symmetry c1  #important for SAPT in psi4, default
}

set PROPERTIES_ORIGIN ["COM"]
properties('MP2/aug-cc-pvtz', properties = ['dipole'])
--------------------------------------------------------------------------

    Molecular point group: c1
  Charge       = 0
  Multiplicity = 1
  Basis Set: AUG-CC-PVTZ
    Blend: AUG-CC-PVTZ
  Basis Set: (AUG-CC-PVTZ AUX)
    Blend: AUG-CC-PVTZ-JKFIT

    Orbital Energies [Eh]
    ---------------------

    Doubly Occupied:

       1A    -20.549927     2A    -20.533164     3A    -15.599143
       4A    -11.359381     5A    -11.301023     6A    -11.274375
       7A    -11.230930     8A    -11.223929     9A     -1.397297
      10A     -1.346989    11A     -1.244794    12A     -1.051303
      13A     -1.012546    14A     -0.902125    15A     -0.847600
      16A     -0.793479    17A     -0.744721    18A     -0.674330
      19A     -0.645285    20A     -0.636777    21A     -0.614530
      22A     -0.597921    23A     -0.581530    24A     -0.564626
      25A     -0.541908    26A     -0.532315    27A     -0.521592
      28A     -0.513006    29A     -0.502864    30A     -0.446664
      31A     -0.434051    32A     -0.403681

  @DF-RHF Final Energy:  -400.08702523938416

   => Energetics <=

    Nuclear Repulsion Energy =            400.2840441785352255
    One-Electron Energy =               -1339.4945337722479053
    Two-Electron Energy =                 539.1234643543285756
    Total Energy =                       -400.0870252393841611
  Basis Set: (AUG-CC-PVTZ AUX)
    Blend: AUG-CC-PVTZ-RI
    Molecular point group: c1

    Geometry (in Angstrom), charge = 0, multiplicity = 1:

       Center              X                  Y                   Z               Mass
    ------------   -----------------  -----------------  -----------------  -----------------
         O           -2.487513099620    -0.698142203275    -0.045584933621    15.994914619570
         O            0.014914900380    -1.340628203275    -0.532196933621    15.994914619570
         N            0.893327900380     0.302650796725     0.783280066379    14.003074004430
         C           -1.533489099620     0.255080796725     0.376907066379    12.000000000000
         C            2.275838900380    -0.101288203275     0.555606066379    12.000000000000
         C           -0.136193099620    -0.335215203275     0.177328066379    12.000000000000
         C           -1.684595099620     1.548221796725    -0.421989933621    12.000000000000
         C            2.833536900380     0.442861796725    -0.753787933621    12.000000000000
         H           -1.694136199620     0.460199396725     1.465629866379     1.007825032230
         H            2.864277900380     0.242403796725     1.411056066379     1.007825032230
         H            2.293982900380    -1.193442203275     0.550985066379     1.007825032230
         H            0.705462900380     1.151629796725     1.300966066379     1.007825032230
         H           -1.474347099620     1.348183796725    -1.476155933621     1.007825032230
         H           -1.008463099620     2.333425796725    -0.067951933621     1.007825032230
         H           -2.713304099620     1.904564796725    -0.334763933621     1.007825032230
         H            2.239598900380     0.067867796725    -1.589757933621     1.007825032230
         H            2.807600900380     1.535932796725    -0.764207933621     1.007825032230
         H            3.870115900380     0.121098796725    -0.892445933621     1.007825032230
         H           -1.958729099620    -1.367558203275    -0.531606933621     1.007825032230

  Basis Set: AUG-CC-PVTZ
    Blend: AUG-CC-PVTZ
  Basis Set: (AUG-CC-PVTZ AUX)
    Blend: AUG-CC-PVTZ-JKFIT
	 Reference Energy          =    -400.0870252393841611 [Eh]
	 Singles Energy            =      -0.0000000000000000 [Eh]
	 Same-Spin Energy          =      -0.4020491322908306 [Eh]
	 Opposite-Spin Energy      =      -1.3079651500890623 [Eh]
	 Correlation Energy        =      -1.7100142823798929 [Eh]
	 Total Energy              =    -401.7970395217640771 [Eh]

	 ================> DF-SCS-MP2 Energies <==================
	-----------------------------------------------------------
	 SCS Same-Spin Scale       =       0.3333333333333333 [-]
	 SCS Opposite-Spin Scale   =       1.2000000000000000 [-]
	 SCS Same-Spin Energy      =      -0.1340163774302769 [Eh]
	 SCS Opposite-Spin Energy  =      -1.5695581801068748 [Eh]
	 SCS Correlation Energy    =      -1.7035745575371517 [Eh]
	 SCS Total Energy          =    -401.7905997969212990 [Eh]
	-----------------------------------------------------------

  Dipole Moment: [D]
     X:     2.8650      Y:     3.1248      Z:     1.5967     Total:     4.5302

*** Psi4 exiting successfully. Buy a developer a beer!
