                               Psi4 1.3.2 release

  ==> Input File <==

--------------------------------------------------------------------------
#psi4
#
memory 32 gb

molecule  {
0 1
  O       -2.4925410    -0.6205970    -0.1535330
  O       -0.0069960    -1.4050930    -0.3804930
  N        0.8845720     0.3685180     0.7343320
  C       -1.5404070     0.3017530     0.3325960
  C        2.2569670    -0.1011270     0.6035390
  C        0.0038419    -0.2170352     0.2774997
  C       -1.6458490     1.6048030    -0.4506110
  C        2.8658230     0.2522360    -0.7461750
  H       -1.7322500     0.4923850     1.3997900
  H        2.8336360     0.3321260     1.4253690
  H        2.2399750    -1.1846720     0.7384180
  H        0.7096630     1.2770080     1.1428940
  H       -1.3913480     1.4204780    -1.4971700
  H       -0.9867360     2.3841060    -0.0548340
  H       -2.6752710     1.9656290    -0.4028710
  H        2.2847230    -0.2144000    -1.5438430
  H        2.8717410     1.3343490    -0.8997070
  H        3.8959980    -0.1107530    -0.8084670
  H       -1.9544520    -1.3731060    -0.4835650
units angstrom
no_reorient  #important for SAPT in psi4, default
symmetry c1  #important for SAPT in psi4, default
}

set PROPERTIES_ORIGIN ["COM"]
properties('MP2/aug-cc-pvtz', properties = ['dipole'])
--------------------------------------------------------------------------

    Molecular point group: c1
  Charge       = 0
  Multiplicity = 1
  Basis Set: AUG-CC-PVTZ
    Blend: AUG-CC-PVTZ
  Basis Set: (AUG-CC-PVTZ AUX)
    Blend: AUG-CC-PVTZ-JKFIT

    Orbital Energies [Eh]
    ---------------------

    Doubly Occupied:

       1A    -20.540534     2A    -20.493890     3A    -15.630183
       4A    -11.340300     5A    -11.297281     6A    -11.292200
       7A    -11.236257     8A    -11.224977     9A     -1.395610
      10A     -1.344924    11A     -1.244201    12A     -1.069910
      13A     -1.016741    14A     -0.917440    15A     -0.847957
      16A     -0.843867    17A     -0.734207    18A     -0.685522
      19A     -0.652066    20A     -0.637245    21A     -0.628943
      22A     -0.588803    23A     -0.567192    24A     -0.558608
      25A     -0.554730    26A     -0.532451    27A     -0.524980
      28A     -0.513537    29A     -0.472653    30A     -0.435018
      31A     -0.402193    32A     -0.395186

  @DF-RHF Final Energy:  -400.01392811221257

   => Energetics <=

    Nuclear Repulsion Energy =            401.0835300212402217
    One-Electron Energy =               -1340.9557068017411439
    Two-Electron Energy =                 539.8582486682884110
    Total Energy =                       -400.0139281122125112
  Basis Set: (AUG-CC-PVTZ AUX)
    Blend: AUG-CC-PVTZ-RI
    Molecular point group: c1

    Geometry (in Angstrom), charge = 0, multiplicity = 1:

       Center              X                  Y                   Z               Mass
    ------------   -----------------  -----------------  -----------------  -----------------
         O           -2.508211917029    -0.631015887296    -0.161661732881    15.994914619570
         O           -0.022666917029    -1.415511887296    -0.388621732881    15.994914619570
         N            0.868901082971     0.358099112704     0.726203267119    14.003074004430
         C           -1.556077917029     0.291334112704     0.324467267119    12.000000000000
         C            2.241296082971    -0.111545887296     0.595410267119    12.000000000000
         C           -0.011829017029    -0.227454087296     0.269370967119    12.000000000000
         C           -1.661519917029     1.594384112704    -0.458739732881    12.000000000000
         C            2.850152082971     0.241817112704    -0.754303732881    12.000000000000
         H           -1.747920917029     0.481966112704     1.391661267119     1.007825032230
         H            2.817965082971     0.321707112704     1.417240267119     1.007825032230
         H            2.224304082971    -1.195090887296     0.730289267119     1.007825032230
         H            0.693992082971     1.266589112704     1.134765267119     1.007825032230
         H           -1.407018917029     1.410059112704    -1.505298732881     1.007825032230
         H           -1.002406917029     2.373687112704    -0.062962732881     1.007825032230
         H           -2.690941917029     1.955210112704    -0.410999732881     1.007825032230
         H            2.269052082971    -0.224818887296    -1.551971732881     1.007825032230
         H            2.856070082971     1.323930112704    -0.907835732881     1.007825032230
         H            3.880327082971    -0.121171887296    -0.816595732881     1.007825032230
         H           -1.970122917029    -1.383524887296    -0.491693732881     1.007825032230

  Basis Set: AUG-CC-PVTZ
    Blend: AUG-CC-PVTZ
  Basis Set: (AUG-CC-PVTZ AUX)
    Blend: AUG-CC-PVTZ-JKFIT
	 Reference Energy          =    -400.0139281122125681 [Eh]
	 Singles Energy            =      -0.0000000000000000 [Eh]
	 Same-Spin Energy          =      -0.4037473452018574 [Eh]
	 Opposite-Spin Energy      =      -1.3104491020985369 [Eh]
	 Correlation Energy        =      -1.7141964473003943 [Eh]
	 Total Energy              =    -401.7281245595129349 [Eh]

	 ================> DF-SCS-MP2 Energies <==================
	-----------------------------------------------------------
	 SCS Same-Spin Scale       =       0.3333333333333333 [-]
	 SCS Opposite-Spin Scale   =       1.2000000000000000 [-]
	 SCS Same-Spin Energy      =      -0.1345824484006191 [Eh]
	 SCS Opposite-Spin Energy  =      -1.5725389225182442 [Eh]
	 SCS Correlation Energy    =      -1.7071213709188633 [Eh]
	 SCS Total Energy          =    -401.7210494831314236 [Eh]
	-----------------------------------------------------------

  Dipole Moment: [D]
     X:     4.0580      Y:     3.9783      Z:     2.1235     Total:     6.0666

*** Psi4 exiting successfully. Buy a developer a beer!
