                               Psi4 1.3.2 release

  ==> Input File <==

--------------------------------------------------------------------------
#psi4
#
memory 32 gb

molecule  {
0 1
  O       -2.4925410    -0.6205970    -0.1535330
  O       -0.0069960    -1.4050930    -0.3804930
  N        0.8845720     0.3685180     0.7343320
  C       -1.5404070     0.3017530     0.3325960
  C        2.2728979    -0.0576874     0.6245983
  C       -0.1490540    -0.3186880     0.1981930
  C       -1.6458490     1.6048030    -0.4506110
  C        2.8658230     0.2522360    -0.7461750
  H       -1.7322500     0.4923850     1.3997900
  H        2.8336360     0.3321260     1.4253690
  H        2.2399750    -1.1846720     0.7384180
  H        0.7444761     1.2811768     1.1470028
  H       -1.3913480     1.4204780    -1.4971700
  H       -0.9867360     2.3841060    -0.0548340
  H       -2.6752710     1.9656290    -0.4028710
  H        2.2847230    -0.2144000    -1.5438430
  H        2.8717410     1.3343490    -0.8997070
  H        3.8959980    -0.1107530    -0.8084670
  H       -1.9544520    -1.3731060    -0.4835650
units angstrom
no_reorient  #important for SAPT in psi4, default
symmetry c1  #important for SAPT in psi4, default
}

set PROPERTIES_ORIGIN ["COM"]
properties('MP2/aug-cc-pvtz', properties = ['dipole'])
--------------------------------------------------------------------------

    Molecular point group: c1
  Charge       = 0
  Multiplicity = 1
  Basis Set: AUG-CC-PVTZ
    Blend: AUG-CC-PVTZ
  Basis Set: (AUG-CC-PVTZ AUX)
    Blend: AUG-CC-PVTZ-JKFIT

    Orbital Energies [Eh]
    ---------------------

    Doubly Occupied:

       1A    -20.548575     2A    -20.533831     3A    -15.599029
       4A    -11.360582     5A    -11.298315     6A    -11.273510
       7A    -11.230787     8A    -11.223606     9A     -1.398282
      10A     -1.346593    11A     -1.245784    12A     -1.052532
      13A     -1.012293    14A     -0.903982    15A     -0.849956
      16A     -0.793704    17A     -0.745968    18A     -0.675932
      19A     -0.651449    20A     -0.640638    21A     -0.613299
      22A     -0.594738    23A     -0.577067    24A     -0.563029
      25A     -0.542594    26A     -0.534271    27A     -0.526777
      28A     -0.514417    29A     -0.495071    30A     -0.445606
      31A     -0.436772    32A     -0.402752

  @DF-RHF Final Energy:  -400.08414902678197

   => Energetics <=

    Nuclear Repulsion Energy =            400.3270552517789724
    One-Electron Energy =               -1339.5589305536154825
    Two-Electron Energy =                 539.1477262750544241
    Total Energy =                       -400.0841490267820291
  Basis Set: (AUG-CC-PVTZ AUX)
    Blend: AUG-CC-PVTZ-RI
    Molecular point group: c1

    Geometry (in Angstrom), charge = 0, multiplicity = 1:

       Center              X                  Y                   Z               Mass
    ------------   -----------------  -----------------  -----------------  -----------------
         O           -2.494473374844    -0.625085215648    -0.155727039422    15.994914619570
         O           -0.008928374844    -1.409581215648    -0.382687039422    15.994914619570
         N            0.882639625156     0.364029784352     0.732137960578    14.003074004430
         C           -1.542339374844     0.297264784352     0.330401960578    12.000000000000
         C            2.270965525156    -0.062175615648     0.622404260578    12.000000000000
         C           -0.150986374844    -0.323176215648     0.195998960578    12.000000000000
         C           -1.647781374844     1.600314784352    -0.452805039422    12.000000000000
         C            2.863890625156     0.247747784352    -0.748369039422    12.000000000000
         H           -1.734182374844     0.487896784352     1.397595960578     1.007825032230
         H            2.831703625156     0.327637784352     1.423174960578     1.007825032230
         H            2.238042625156    -1.189160215648     0.736223960578     1.007825032230
         H            0.742543725156     1.276688584352     1.144808760578     1.007825032230
         H           -1.393280374844     1.415989784352    -1.499364039422     1.007825032230
         H           -0.988668374844     2.379617784352    -0.057028039422     1.007825032230
         H           -2.677203374844     1.961140784352    -0.405065039422     1.007825032230
         H            2.282790625156    -0.218888215648    -1.546037039422     1.007825032230
         H            2.869808625156     1.329860784352    -0.901901039422     1.007825032230
         H            3.894065625156    -0.115241215648    -0.810661039422     1.007825032230
         H           -1.956384374844    -1.377594215648    -0.485759039422     1.007825032230

  Basis Set: AUG-CC-PVTZ
    Blend: AUG-CC-PVTZ
  Basis Set: (AUG-CC-PVTZ AUX)
    Blend: AUG-CC-PVTZ-JKFIT
	 Reference Energy          =    -400.0841490267819722 [Eh]
	 Singles Energy            =      -0.0000000000000000 [Eh]
	 Same-Spin Energy          =      -0.4022166230740898 [Eh]
	 Opposite-Spin Energy      =      -1.3079626697824487 [Eh]
	 Correlation Energy        =      -1.7101792928565385 [Eh]
	 Total Energy              =    -401.7943283196385096 [Eh]

	 ================> DF-SCS-MP2 Energies <==================
	-----------------------------------------------------------
	 SCS Same-Spin Scale       =       0.3333333333333333 [-]
	 SCS Opposite-Spin Scale   =       1.2000000000000000 [-]
	 SCS Same-Spin Energy      =      -0.1340722076913632 [Eh]
	 SCS Opposite-Spin Energy  =      -1.5695552037389384 [Eh]
	 SCS Correlation Energy    =      -1.7036274114303016 [Eh]
	 SCS Total Energy          =    -401.7877764382122905 [Eh]
	-----------------------------------------------------------

  Dipole Moment: [D]
     X:     2.9274      Y:     3.1795      Z:     1.5799     Total:     4.6016

*** Psi4 exiting successfully. Buy a developer a beer!
