                               Psi4 1.3.2 release

  ==> Input File <==

--------------------------------------------------------------------------
#psi4
#
memory 32 gb

molecule  {
0 1
  O       -2.4925410    -0.6205970    -0.1535330
  O       -0.0069960    -1.4050930    -0.3804930
  N        0.8845720     0.3685180     0.7343320
  C       -1.4729731     0.3670774     0.3670256
  C        2.2569670    -0.1011270     0.6035390
  C       -0.1490540    -0.3186880     0.1981930
  C       -1.6458490     1.6048030    -0.4506110
  C        2.8658230     0.2522360    -0.7461750
  H       -1.7322500     0.4923850     1.3997900
  H        2.8336360     0.3321260     1.4253690
  H        2.2399750    -1.1846720     0.7384180
  H        0.7096630     1.2770080     1.1428940
  H       -1.3913480     1.4204780    -1.4971700
  H       -0.9867360     2.3841060    -0.0548340
  H       -2.6752710     1.9656290    -0.4028710
  H        2.2847230    -0.2144000    -1.5438430
  H        2.8717410     1.3343490    -0.8997070
  H        3.8959980    -0.1107530    -0.8084670
  H       -1.9544520    -1.3731060    -0.4835650
units angstrom
no_reorient  #important for SAPT in psi4, default
symmetry c1  #important for SAPT in psi4, default
}

set PROPERTIES_ORIGIN ["COM"]
properties('MP2/aug-cc-pvtz', properties = ['dipole'])
--------------------------------------------------------------------------

    Molecular point group: c1
  Charge       = 0
  Multiplicity = 1
  Basis Set: AUG-CC-PVTZ
    Blend: AUG-CC-PVTZ
  Basis Set: (AUG-CC-PVTZ AUX)
    Blend: AUG-CC-PVTZ-JKFIT

    Orbital Energies [Eh]
    ---------------------

    Doubly Occupied:

       1A    -20.538822     2A    -20.535774     3A    -15.599670
       4A    -11.362092     5A    -11.298315     6A    -11.274334
       7A    -11.234342     8A    -11.224007     9A     -1.395206
      10A     -1.314538    11A     -1.248750    12A     -1.063376
      13A     -1.017259    14A     -0.910102    15A     -0.850499
      16A     -0.796160    17A     -0.737513    18A     -0.674842
      19A     -0.644346    20A     -0.641514    21A     -0.612763
      22A     -0.598578    23A     -0.576420    24A     -0.564206
      25A     -0.538328    26A     -0.529617    27A     -0.522182
      28A     -0.506701    29A     -0.499858    30A     -0.449327
      31A     -0.442659    32A     -0.404856

  @DF-RHF Final Energy:  -400.07626506179946

   => Energetics <=

    Nuclear Repulsion Energy =            400.4201334613027257
    One-Electron Energy =               -1339.7788813654919977
    Two-Electron Energy =                 539.2824828423898680
    Total Energy =                       -400.0762650617994041
  Basis Set: (AUG-CC-PVTZ AUX)
    Blend: AUG-CC-PVTZ-RI
    Molecular point group: c1

    Geometry (in Angstrom), charge = 0, multiplicity = 1:

       Center              X                  Y                   Z               Mass
    ------------   -----------------  -----------------  -----------------  -----------------
         O           -2.499452496574    -0.627292411014    -0.157062058316    15.994914619570
         O           -0.013907496574    -1.411788411014    -0.384022058316    15.994914619570
         N            0.877660503426     0.361822588986     0.730802941684    14.003074004430
         C           -1.479884596574     0.360381988986     0.363496541684    12.000000000000
         C            2.250055503426    -0.107822411014     0.600009941684    12.000000000000
         C           -0.155965496574    -0.325383411014     0.194663941684    12.000000000000
         C           -1.652760496574     1.598107588986    -0.454140058316    12.000000000000
         C            2.858911503426     0.245540588986    -0.749704058316    12.000000000000
         H           -1.739161496574     0.485689588986     1.396260941684     1.007825032230
         H            2.826724503426     0.325430588986     1.421839941684     1.007825032230
         H            2.233063503426    -1.191367411014     0.734888941684     1.007825032230
         H            0.702751503426     1.270312588986     1.139364941684     1.007825032230
         H           -1.398259496574     1.413782588986    -1.500699058316     1.007825032230
         H           -0.993647496574     2.377410588986    -0.058363058316     1.007825032230
         H           -2.682182496574     1.958933588986    -0.406400058316     1.007825032230
         H            2.277811503426    -0.221095411014    -1.547372058316     1.007825032230
         H            2.864829503426     1.327653588986    -0.903236058316     1.007825032230
         H            3.889086503426    -0.117448411014    -0.811996058316     1.007825032230
         H           -1.961363496574    -1.379801411014    -0.487094058316     1.007825032230

  Basis Set: AUG-CC-PVTZ
    Blend: AUG-CC-PVTZ
  Basis Set: (AUG-CC-PVTZ AUX)
    Blend: AUG-CC-PVTZ-JKFIT
	 Reference Energy          =    -400.0762650617994609 [Eh]
	 Singles Energy            =      -0.0000000000000000 [Eh]
	 Same-Spin Energy          =      -0.4029224159570080 [Eh]
	 Opposite-Spin Energy      =      -1.3105034315777957 [Eh]
	 Correlation Energy        =      -1.7134258475348036 [Eh]
	 Total Energy              =    -401.7896909093342401 [Eh]

	 ================> DF-SCS-MP2 Energies <==================
	-----------------------------------------------------------
	 SCS Same-Spin Scale       =       0.3333333333333333 [-]
	 SCS Opposite-Spin Scale   =       1.2000000000000000 [-]
	 SCS Same-Spin Energy      =      -0.1343074719856693 [Eh]
	 SCS Opposite-Spin Energy  =      -1.5726041178933547 [Eh]
	 SCS Correlation Energy    =      -1.7069115898790241 [Eh]
	 SCS Total Energy          =    -401.7831766516785024 [Eh]
	-----------------------------------------------------------

  Dipole Moment: [D]
     X:     3.0816      Y:     3.3697      Z:     1.6283     Total:     4.8479

*** Psi4 exiting successfully. Buy a developer a beer!
