                               Psi4 1.3.2 release

  ==> Input File <==

--------------------------------------------------------------------------
#psi4
#
memory 32 gb

molecule  {
0 1
  O       -2.4925410    -0.6205970    -0.1535330
  O       -0.0069960    -1.4050930    -0.3804930
  N        0.8845720     0.3685180     0.7343320
  C       -1.5404070     0.3017530     0.3325960
  C        2.2569670    -0.1011270     0.6035390
  C       -0.1490540    -0.3186880     0.1981930
  C       -1.6458490     1.6048030    -0.4506110
  C        2.8658230     0.2522360    -0.7461750
  H       -1.7322500     0.4923850     1.3997900
  H        2.8336360     0.3321260     1.4253690
  H        2.2399750    -1.1846720     0.7384180
  H        0.6750745     1.4566632     1.2236877
  H       -1.3913480     1.4204780    -1.4971700
  H       -0.9867360     2.3841060    -0.0548340
  H       -2.6752710     1.9656290    -0.4028710
  H        2.2847230    -0.2144000    -1.5438430
  H        2.8717410     1.3343490    -0.8997070
  H        3.8959980    -0.1107530    -0.8084670
  H       -1.9544520    -1.3731060    -0.4835650
units angstrom
no_reorient  #important for SAPT in psi4, default
symmetry c1  #important for SAPT in psi4, default
}

set PROPERTIES_ORIGIN ["COM"]
properties('MP2/aug-cc-pvtz', properties = ['dipole'])
--------------------------------------------------------------------------

    Molecular point group: c1
  Charge       = 0
  Multiplicity = 1
  Basis Set: AUG-CC-PVTZ
    Blend: AUG-CC-PVTZ
  Basis Set: (AUG-CC-PVTZ AUX)
    Blend: AUG-CC-PVTZ-JKFIT

    Orbital Energies [Eh]
    ---------------------

    Doubly Occupied:

       1A    -20.547757     2A    -20.532795     3A    -15.614052
       4A    -11.358568     5A    -11.297182     6A    -11.274071
       7A    -11.230517     8A    -11.222674     9A     -1.396956
      10A     -1.345594    11A     -1.229100    12A     -1.051413
      13A     -1.009311    14A     -0.901068    15A     -0.846673
      16A     -0.757628    17A     -0.739898    18A     -0.675368
      19A     -0.641320    20A     -0.640161    21A     -0.611167
      22A     -0.587752    23A     -0.576185    24A     -0.562119
      25A     -0.541553    26A     -0.533480    27A     -0.520321
      28A     -0.510977    29A     -0.500028    30A     -0.444874
      31A     -0.434914    32A     -0.400697

  @DF-RHF Final Energy:  -400.05727229473098

   => Energetics <=

    Nuclear Repulsion Energy =            399.5868168428882541
    One-Electron Energy =               -1338.2158324805452594
    Two-Electron Energy =                 538.5717433429259700
    Total Energy =                       -400.0572722947309785
  Basis Set: (AUG-CC-PVTZ AUX)
    Blend: AUG-CC-PVTZ-RI
    Molecular point group: c1

    Geometry (in Angstrom), charge = 0, multiplicity = 1:

       Center              X                  Y                   Z               Mass
    ------------   -----------------  -----------------  -----------------  -----------------
         O           -2.492243124180    -0.622143478221    -0.154228677886    15.994914619570
         O           -0.006698124180    -1.406639478221    -0.381188677886    15.994914619570
         N            0.884869875820     0.366971521779     0.733636322114    14.003074004430
         C           -1.540109124180     0.300206521779     0.331900322114    12.000000000000
         C            2.257264875820    -0.102673478221     0.602843322114    12.000000000000
         C           -0.148756124180    -0.320234478221     0.197497322114    12.000000000000
         C           -1.645551124180     1.603256521779    -0.451306677886    12.000000000000
         C            2.866120875820     0.250689521779    -0.746870677886    12.000000000000
         H           -1.731952124180     0.490838521779     1.399094322114     1.007825032230
         H            2.833933875820     0.330579521779     1.424673322114     1.007825032230
         H            2.240272875820    -1.186218478221     0.737722322114     1.007825032230
         H            0.675372375820     1.455116721779     1.222992022114     1.007825032230
         H           -1.391050124180     1.418931521779    -1.497865677886     1.007825032230
         H           -0.986438124180     2.382559521779    -0.055529677886     1.007825032230
         H           -2.674973124180     1.964082521779    -0.403566677886     1.007825032230
         H            2.285020875820    -0.215946478221    -1.544538677886     1.007825032230
         H            2.872038875820     1.332802521779    -0.900402677886     1.007825032230
         H            3.896295875820    -0.112299478221    -0.809162677886     1.007825032230
         H           -1.954154124180    -1.374652478221    -0.484260677886     1.007825032230

  Basis Set: AUG-CC-PVTZ
    Blend: AUG-CC-PVTZ
  Basis Set: (AUG-CC-PVTZ AUX)
    Blend: AUG-CC-PVTZ-JKFIT
	 Reference Energy          =    -400.0572722947309785 [Eh]
	 Singles Energy            =      -0.0000000000000000 [Eh]
	 Same-Spin Energy          =      -0.4037635961383292 [Eh]
	 Opposite-Spin Energy      =      -1.3120674264569203 [Eh]
	 Correlation Energy        =      -1.7158310225952496 [Eh]
	 Total Energy              =    -401.7731033173262176 [Eh]

	 ================> DF-SCS-MP2 Energies <==================
	-----------------------------------------------------------
	 SCS Same-Spin Scale       =       0.3333333333333333 [-]
	 SCS Opposite-Spin Scale   =       1.2000000000000000 [-]
	 SCS Same-Spin Energy      =      -0.1345878653794431 [Eh]
	 SCS Opposite-Spin Energy  =      -1.5744809117483043 [Eh]
	 SCS Correlation Energy    =      -1.7090687771277473 [Eh]
	 SCS Total Energy          =    -401.7663410718587329 [Eh]
	-----------------------------------------------------------

  Dipole Moment: [D]
     X:     2.9213      Y:     3.2795      Z:     1.6314     Total:     4.6851

*** Psi4 exiting successfully. Buy a developer a beer!
