                               Psi4 1.3.2 release

  ==> Input File <==

--------------------------------------------------------------------------
#psi4
#
memory 32 gb

molecule  {
0 1
  O       -2.4925410    -0.6205970    -0.1535330
  O       -0.0069960    -1.4050930    -0.3804930
  N        0.8845720     0.3685180     0.7343320
  C       -1.5404070     0.3017530     0.3325960
  C        2.2569670    -0.1011270     0.6035390
  C       -0.1036840    -0.3704878     0.1817922
  C       -1.6458490     1.6048030    -0.4506110
  C        2.8658230     0.2522360    -0.7461750
  H       -1.7322500     0.4923850     1.3997900
  H        2.8336360     0.3321260     1.4253690
  H        2.2399750    -1.1846720     0.7384180
  H        0.7612306     1.2801810     1.1544839
  H       -1.3913480     1.4204780    -1.4971700
  H       -0.9867360     2.3841060    -0.0548340
  H       -2.6752710     1.9656290    -0.4028710
  H        2.2847230    -0.2144000    -1.5438430
  H        2.8717410     1.3343490    -0.8997070
  H        3.8959980    -0.1107530    -0.8084670
  H       -1.9544520    -1.3731060    -0.4835650
units angstrom
no_reorient  #important for SAPT in psi4, default
symmetry c1  #important for SAPT in psi4, default
}

set PROPERTIES_ORIGIN ["COM"]
properties('MP2/aug-cc-pvtz', properties = ['dipole'])
--------------------------------------------------------------------------

    Molecular point group: c1
  Charge       = 0
  Multiplicity = 1
  Basis Set: AUG-CC-PVTZ
    Blend: AUG-CC-PVTZ
  Basis Set: (AUG-CC-PVTZ AUX)
    Blend: AUG-CC-PVTZ-JKFIT

    Orbital Energies [Eh]
    ---------------------

    Doubly Occupied:

       1A    -20.545965     2A    -20.542591     3A    -15.594602
       4A    -11.356047     5A    -11.293307     6A    -11.271263
       7A    -11.226381     8A    -11.223370     9A     -1.429970
      10A     -1.349123    11A     -1.250058    12A     -1.043528
      13A     -1.008403    14A     -0.894487    15A     -0.841063
      16A     -0.801795    17A     -0.740850    18A     -0.679693
      19A     -0.652303    20A     -0.642146    21A     -0.614790
      22A     -0.604684    23A     -0.575653    24A     -0.560155
      25A     -0.544525    26A     -0.531572    27A     -0.531276
      28A     -0.521080    29A     -0.504375    30A     -0.442712
      31A     -0.424593    32A     -0.406619

  @DF-RHF Final Energy:  -400.08450502915872

   => Energetics <=

    Nuclear Repulsion Energy =            400.8497707359653077
    One-Electron Energy =               -1340.5705919868237288
    Two-Electron Energy =                 539.6363162216996443
    Total Energy =                       -400.0845050291587768
  Basis Set: (AUG-CC-PVTZ AUX)
    Blend: AUG-CC-PVTZ-RI
    Molecular point group: c1

    Geometry (in Angstrom), charge = 0, multiplicity = 1:

       Center              X                  Y                   Z               Mass
    ------------   -----------------  -----------------  -----------------  -----------------
         O           -2.497634956957    -0.615315089483    -0.151951967539    15.994914619570
         O           -0.012089956957    -1.399811089483    -0.378911967539    15.994914619570
         N            0.879478043043     0.373799910517     0.735913032461    14.003074004430
         C           -1.545500956957     0.307034910517     0.334177032461    12.000000000000
         C            2.251873043043    -0.095845089483     0.605120032461    12.000000000000
         C           -0.108777956957    -0.365205889483     0.183373232461    12.000000000000
         C           -1.650942956957     1.610084910517    -0.449029967539    12.000000000000
         C            2.860729043043     0.257517910517    -0.744593967539    12.000000000000
         H           -1.737343956957     0.497666910517     1.401371032461     1.007825032230
         H            2.828542043043     0.337407910517     1.426950032461     1.007825032230
         H            2.234881043043    -1.179390089483     0.739999032461     1.007825032230
         H            0.756136643043     1.285462910517     1.156064932461     1.007825032230
         H           -1.396441956957     1.425759910517    -1.495588967539     1.007825032230
         H           -0.991829956957     2.389387910517    -0.053252967539     1.007825032230
         H           -2.680364956957     1.970910910517    -0.401289967539     1.007825032230
         H            2.279629043043    -0.209118089483    -1.542261967539     1.007825032230
         H            2.866647043043     1.339630910517    -0.898125967539     1.007825032230
         H            3.890904043043    -0.105471089483    -0.806885967539     1.007825032230
         H           -1.959545956957    -1.367824089483    -0.481983967539     1.007825032230

  Basis Set: AUG-CC-PVTZ
    Blend: AUG-CC-PVTZ
  Basis Set: (AUG-CC-PVTZ AUX)
    Blend: AUG-CC-PVTZ-JKFIT
	 Reference Energy          =    -400.0845050291587199 [Eh]
	 Singles Energy            =      -0.0000000000000000 [Eh]
	 Same-Spin Energy          =      -0.4009115068543379 [Eh]
	 Opposite-Spin Energy      =      -1.3053796230572776 [Eh]
	 Correlation Energy        =      -1.7062911299116155 [Eh]
	 Total Energy              =    -401.7907961590703394 [Eh]

	 ================> DF-SCS-MP2 Energies <==================
	-----------------------------------------------------------
	 SCS Same-Spin Scale       =       0.3333333333333333 [-]
	 SCS Opposite-Spin Scale   =       1.2000000000000000 [-]
	 SCS Same-Spin Energy      =      -0.1336371689514460 [Eh]
	 SCS Opposite-Spin Energy  =      -1.5664555476687332 [Eh]
	 SCS Correlation Energy    =      -1.7000927166201791 [Eh]
	 SCS Total Energy          =    -401.7845977457789104 [Eh]
	-----------------------------------------------------------

  Dipole Moment: [D]
     X:     3.0593      Y:     2.8630      Z:     1.4763     Total:     4.4424

*** Psi4 exiting successfully. Buy a developer a beer!
