                               Psi4 1.3.2 release

  ==> Input File <==

--------------------------------------------------------------------------
#psi4
#
memory 32 gb

molecule  {
0 1
  O       -2.4743259    -0.6364051    -0.1585912
  O       -0.0069960    -1.4050930    -0.3804930
  N        0.8845720     0.3685180     0.7343320
  C       -1.5404070     0.3017530     0.3325960
  C        2.2569670    -0.1011270     0.6035390
  C       -0.1601004    -0.3406198     0.1877327
  C       -1.6458490     1.6048030    -0.4506110
  C        2.8658230     0.2522360    -0.7461750
  H       -1.7322500     0.4923850     1.3997900
  H        2.8336360     0.3321260     1.4253690
  H        2.2399750    -1.1846720     0.7384180
  H        0.7096630     1.2770080     1.1428940
  H       -1.3913480     1.4204780    -1.4971700
  H       -0.9867360     2.3841060    -0.0548340
  H       -2.6752710     1.9656290    -0.4028710
  H        2.2847230    -0.2144000    -1.5438430
  H        2.8717410     1.3343490    -0.8997070
  H        3.8959980    -0.1107530    -0.8084670
  H       -1.9544520    -1.3731060    -0.4835650
units angstrom
no_reorient  #important for SAPT in psi4, default
symmetry c1  #important for SAPT in psi4, default
}

set PROPERTIES_ORIGIN ["COM"]
properties('MP2/aug-cc-pvtz', properties = ['dipole'])
--------------------------------------------------------------------------

    Molecular point group: c1
  Charge       = 0
  Multiplicity = 1
  Basis Set: AUG-CC-PVTZ
    Blend: AUG-CC-PVTZ
  Basis Set: (AUG-CC-PVTZ AUX)
    Blend: AUG-CC-PVTZ-JKFIT

    Orbital Energies [Eh]
    ---------------------

    Doubly Occupied:

       1A    -20.546899     2A    -20.538390     3A    -15.593092
       4A    -11.358799     5A    -11.298729     6A    -11.271107
       7A    -11.231804     8A    -11.221475     9A     -1.411134
      10A     -1.353482    11A     -1.238762    12A     -1.051605
      13A     -1.010707    14A     -0.901423    15A     -0.847569
      16A     -0.789090    17A     -0.748501    18A     -0.678842
      19A     -0.647899    20A     -0.645625    21A     -0.612372
      22A     -0.597866    23A     -0.579728    24A     -0.563607
      25A     -0.542441    26A     -0.534190    27A     -0.524664
      28A     -0.517623    29A     -0.501309    30A     -0.447720
      31A     -0.437201    32A     -0.401011

  @DF-RHF Final Energy:  -400.08918211279911

   => Energetics <=

    Nuclear Repulsion Energy =            400.9740085655521398
    One-Electron Energy =               -1340.8370434767571169
    Two-Electron Energy =                 539.7738527984058692
    Total Energy =                       -400.0891821127991079
  Basis Set: (AUG-CC-PVTZ AUX)
    Blend: AUG-CC-PVTZ-RI
    Molecular point group: c1

    Geometry (in Angstrom), charge = 0, multiplicity = 1:

       Center              X                  Y                   Z               Mass
    ------------   -----------------  -----------------  -----------------  -----------------
         O           -2.475682047198    -0.631997547652    -0.156828238480    15.994914619570
         O           -0.008352147198    -1.400685447652    -0.378730038480    15.994914619570
         N            0.883215852802     0.372925552348     0.736094961520    14.003074004430
         C           -1.541763147198     0.306160552348     0.334358961520    12.000000000000
         C            2.255610852802    -0.096719447652     0.605301961520    12.000000000000
         C           -0.161456547198    -0.336212247652     0.189495661520    12.000000000000
         C           -1.647205147198     1.609210552348    -0.448848038480    12.000000000000
         C            2.864466852802     0.256643552348    -0.744412038480    12.000000000000
         H           -1.733606147198     0.496792552348     1.401552961520     1.007825032230
         H            2.832279852802     0.336533552348     1.427131961520     1.007825032230
         H            2.238618852802    -1.180264447652     0.740180961520     1.007825032230
         H            0.708306852802     1.281415552348     1.144656961520     1.007825032230
         H           -1.392704147198     1.424885552348    -1.495407038480     1.007825032230
         H           -0.988092147198     2.388513552348    -0.053071038480     1.007825032230
         H           -2.676627147198     1.970036552348    -0.401108038480     1.007825032230
         H            2.283366852802    -0.209992447652    -1.542080038480     1.007825032230
         H            2.870384852802     1.338756552348    -0.897944038480     1.007825032230
         H            3.894641852802    -0.106345447652    -0.806704038480     1.007825032230
         H           -1.955808147198    -1.368698447652    -0.481802038480     1.007825032230

  Basis Set: AUG-CC-PVTZ
    Blend: AUG-CC-PVTZ
  Basis Set: (AUG-CC-PVTZ AUX)
    Blend: AUG-CC-PVTZ-JKFIT
	 Reference Energy          =    -400.0891821127991079 [Eh]
	 Singles Energy            =      -0.0000000000000000 [Eh]
	 Same-Spin Energy          =      -0.4013257998883485 [Eh]
	 Opposite-Spin Energy      =      -1.3061284027148237 [Eh]
	 Correlation Energy        =      -1.7074542026031723 [Eh]
	 Total Energy              =    -401.7966363154022815 [Eh]

	 ================> DF-SCS-MP2 Energies <==================
	-----------------------------------------------------------
	 SCS Same-Spin Scale       =       0.3333333333333333 [-]
	 SCS Opposite-Spin Scale   =       1.2000000000000000 [-]
	 SCS Same-Spin Energy      =      -0.1337752666294495 [Eh]
	 SCS Opposite-Spin Energy  =      -1.5673540832577884 [Eh]
	 SCS Correlation Energy    =      -1.7011293498872377 [Eh]
	 SCS Total Energy          =    -401.7903114626863612 [Eh]
	-----------------------------------------------------------

  Dipole Moment: [D]
     X:     2.7130      Y:     3.0408      Z:     1.4805     Total:     4.3358

*** Psi4 exiting successfully. Buy a developer a beer!
