                               Psi4 1.3.2 release

  ==> Input File <==

--------------------------------------------------------------------------
#psi4
#
memory 32 gb

molecule  {
0 1
  O       -2.4925410    -0.6205970    -0.1535330
  O       -0.0069960    -1.4050930    -0.3804930
  N        0.8845720     0.3685180     0.7343320
  C       -1.5404070     0.3017530     0.3325960
  C        2.2569670    -0.1011270     0.6035390
  C       -0.3019499    -0.4203408     0.1188863
  C       -1.6458490     1.6048030    -0.4506110
  C        2.8658230     0.2522360    -0.7461750
  H       -1.7322500     0.4923850     1.3997900
  H        2.8336360     0.3321260     1.4253690
  H        2.2399750    -1.1846720     0.7384180
  H        0.7096630     1.2770080     1.1428940
  H       -1.3913480     1.4204780    -1.4971700
  H       -0.9867360     2.3841060    -0.0548340
  H       -2.6752710     1.9656290    -0.4028710
  H        2.2847230    -0.2144000    -1.5438430
  H        2.8717410     1.3343490    -0.8997070
  H        3.8959980    -0.1107530    -0.8084670
  H       -1.9544520    -1.3731060    -0.4835650
units angstrom
no_reorient  #important for SAPT in psi4, default
symmetry c1  #important for SAPT in psi4, default
}

set PROPERTIES_ORIGIN ["COM"]
properties('MP2/aug-cc-pvtz', properties = ['dipole'])
--------------------------------------------------------------------------

    Molecular point group: c1
  Charge       = 0
  Multiplicity = 1
  Basis Set: AUG-CC-PVTZ
    Blend: AUG-CC-PVTZ
  Basis Set: (AUG-CC-PVTZ AUX)
    Blend: AUG-CC-PVTZ-JKFIT

    Orbital Energies [Eh]
    ---------------------

    Doubly Occupied:

       1A    -20.570968     2A    -20.559496     3A    -15.558107
       4A    -11.370183     5A    -11.305707     6A    -11.255128
       7A    -11.238932     8A    -11.210326     9A     -1.473584
      10A     -1.372510    11A     -1.185742    12A     -1.058280
      13A     -0.991619    14A     -0.915288    15A     -0.832369
      16A     -0.775609    17A     -0.749424    18A     -0.692693
      19A     -0.674055    20A     -0.630902    21A     -0.619162
      22A     -0.591169    23A     -0.581861    24A     -0.561990
      25A     -0.547248    26A     -0.543074    27A     -0.537701
      28A     -0.519926    29A     -0.493427    30A     -0.458091
      31A     -0.439417    32A     -0.373577

  @DF-RHF Final Energy:  -400.04576276829175

   => Energetics <=

    Nuclear Repulsion Energy =            400.9052212084400821
    One-Electron Energy =               -1340.5268332970131269
    Two-Electron Energy =                 539.5758493202813497
    Total Energy =                       -400.0457627682917519
  Basis Set: (AUG-CC-PVTZ AUX)
    Blend: AUG-CC-PVTZ-RI
    Molecular point group: c1

    Geometry (in Angstrom), charge = 0, multiplicity = 1:

       Center              X                  Y                   Z               Mass
    ------------   -----------------  -----------------  -----------------  -----------------
         O           -2.476869812375    -0.610178097035    -0.145404665876    15.994914619570
         O            0.008675187625    -1.394674097035    -0.372364665876    15.994914619570
         N            0.900243187625     0.378936902965     0.742460334124    14.003074004430
         C           -1.524735812375     0.312171902965     0.340724334124    12.000000000000
         C            2.272638187625    -0.090708097035     0.611667334124    12.000000000000
         C           -0.286278712375    -0.409921897035     0.127014634124    12.000000000000
         C           -1.630177812375     1.615221902965    -0.442482665876    12.000000000000
         C            2.881494187625     0.262654902965    -0.738046665876    12.000000000000
         H           -1.716578812375     0.502803902965     1.407918334124     1.007825032230
         H            2.849307187625     0.342544902965     1.433497334124     1.007825032230
         H            2.255646187625    -1.174253097035     0.746546334124     1.007825032230
         H            0.725334187625     1.287426902965     1.151022334124     1.007825032230
         H           -1.375676812375     1.430896902965    -1.489041665876     1.007825032230
         H           -0.971064812375     2.394524902965    -0.046705665876     1.007825032230
         H           -2.659599812375     1.976047902965    -0.394742665876     1.007825032230
         H            2.300394187625    -0.203981097035    -1.535714665876     1.007825032230
         H            2.887412187625     1.344767902965    -0.891578665876     1.007825032230
         H            3.911669187625    -0.100334097035    -0.800338665876     1.007825032230
         H           -1.938780812375    -1.362687097035    -0.475436665876     1.007825032230

  Basis Set: AUG-CC-PVTZ
    Blend: AUG-CC-PVTZ
  Basis Set: (AUG-CC-PVTZ AUX)
    Blend: AUG-CC-PVTZ-JKFIT
	 Reference Energy          =    -400.0457627682917519 [Eh]
	 Singles Energy            =      -0.0000000000000000 [Eh]
	 Same-Spin Energy          =      -0.4016742707659682 [Eh]
	 Opposite-Spin Energy      =      -1.3075846387073065 [Eh]
	 Correlation Energy        =      -1.7092589094732746 [Eh]
	 Total Energy              =    -401.7550216777650007 [Eh]

	 ================> DF-SCS-MP2 Energies <==================
	-----------------------------------------------------------
	 SCS Same-Spin Scale       =       0.3333333333333333 [-]
	 SCS Opposite-Spin Scale   =       1.2000000000000000 [-]
	 SCS Same-Spin Energy      =      -0.1338914235886560 [Eh]
	 SCS Opposite-Spin Energy  =      -1.5691015664487677 [Eh]
	 SCS Correlation Energy    =      -1.7029929900374239 [Eh]
	 SCS Total Energy          =    -401.7487557583291959 [Eh]
	-----------------------------------------------------------

  Dipole Moment: [D]
     X:     1.4158      Y:     2.3487      Z:     0.9391     Total:     2.8988

*** Psi4 exiting successfully. Buy a developer a beer!
