                               Psi4 1.3.2 release

  ==> Input File <==

--------------------------------------------------------------------------
#psi4
#
memory 32 gb

molecule  {
0 1
  O       -2.4925410    -0.6205970    -0.1535330
  O       -0.0069960    -1.4050930    -0.3804930
  N        0.8845720     0.3685180     0.7343320
  C       -1.5404070     0.3017530     0.3325960
  C        2.2569670    -0.1011270     0.6035390
  C       -0.1490540    -0.3186880     0.1981930
  C       -1.6458490     1.6048030    -0.4506110
  C        2.8658230     0.2522360    -0.7461750
  H       -1.7322500     0.4923850     1.3997900
  H        2.8336360     0.3321260     1.4253690
  H        2.2399750    -1.1846720     0.7384180
  H        0.7442515     1.0973528     1.0621003
  H       -1.3913480     1.4204780    -1.4971700
  H       -0.9867360     2.3841060    -0.0548340
  H       -2.6752710     1.9656290    -0.4028710
  H        2.2847230    -0.2144000    -1.5438430
  H        2.8717410     1.3343490    -0.8997070
  H        3.8959980    -0.1107530    -0.8084670
  H       -1.9544520    -1.3731060    -0.4835650
units angstrom
no_reorient  #important for SAPT in psi4, default
symmetry c1  #important for SAPT in psi4, default
}

set PROPERTIES_ORIGIN ["COM"]
properties('MP2/aug-cc-pvtz', properties = ['dipole'])
--------------------------------------------------------------------------

    Molecular point group: c1
  Charge       = 0
  Multiplicity = 1
  Basis Set: AUG-CC-PVTZ
    Blend: AUG-CC-PVTZ
  Basis Set: (AUG-CC-PVTZ AUX)
    Blend: AUG-CC-PVTZ-JKFIT

    Orbital Energies [Eh]
    ---------------------

    Doubly Occupied:

       1A    -20.549361     2A    -20.534667     3A    -15.577675
       4A    -11.360116     5A    -11.299175     6A    -11.274328
       7A    -11.231493     8A    -11.223914     9A     -1.401249
      10A     -1.348441    11A     -1.277261    12A     -1.054354
      13A     -1.019124    14A     -0.906395    15A     -0.862271
      16A     -0.834337    17A     -0.746356    18A     -0.678270
      19A     -0.654173    20A     -0.642716    21A     -0.615890
      22A     -0.603418    23A     -0.578036    24A     -0.564408
      25A     -0.544058    26A     -0.534570    27A     -0.522591
      28A     -0.516907    29A     -0.503424    30A     -0.446474
      31A     -0.437676    32A     -0.407670

  @DF-RHF Final Energy:  -400.04293051551588

   => Energetics <=

    Nuclear Repulsion Energy =            401.9861790502733356
    One-Electron Energy =               -1342.5566220461230387
    Two-Electron Energy =                 540.5275124803338258
    Total Energy =                       -400.0429305155158772
  Basis Set: (AUG-CC-PVTZ AUX)
    Blend: AUG-CC-PVTZ-RI
    Molecular point group: c1

    Geometry (in Angstrom), charge = 0, multiplicity = 1:

       Center              X                  Y                   Z               Mass
    ------------   -----------------  -----------------  -----------------  -----------------
         O           -2.492838605223    -0.619050506111    -0.152837720871    15.994914619570
         O           -0.007293605223    -1.403546506111    -0.379797720871    15.994914619570
         N            0.884274394777     0.370064493889     0.735027279129    14.003074004430
         C           -1.540704605223     0.303299493889     0.333291279129    12.000000000000
         C            2.256669394777    -0.099580506111     0.604234279129    12.000000000000
         C           -0.149351605223    -0.317141506111     0.198888279129    12.000000000000
         C           -1.646146605223     1.606349493889    -0.449915720871    12.000000000000
         C            2.865525394777     0.253782493889    -0.745479720871    12.000000000000
         H           -1.732547605223     0.493931493889     1.400485279129     1.007825032230
         H            2.833338394777     0.333672493889     1.426064279129     1.007825032230
         H            2.239677394777    -1.183125506111     0.739113279129     1.007825032230
         H            0.743953894777     1.098899293889     1.062795579129     1.007825032230
         H           -1.391645605223     1.422024493889    -1.496474720871     1.007825032230
         H           -0.987033605223     2.385652493889    -0.054138720871     1.007825032230
         H           -2.675568605223     1.967175493889    -0.402175720871     1.007825032230
         H            2.284425394777    -0.212853506111    -1.543147720871     1.007825032230
         H            2.871443394777     1.335895493889    -0.899011720871     1.007825032230
         H            3.895700394777    -0.109206506111    -0.807771720871     1.007825032230
         H           -1.954749605223    -1.371559506111    -0.482869720871     1.007825032230

  Basis Set: AUG-CC-PVTZ
    Blend: AUG-CC-PVTZ
  Basis Set: (AUG-CC-PVTZ AUX)
    Blend: AUG-CC-PVTZ-JKFIT
	 Reference Energy          =    -400.0429305155158772 [Eh]
	 Singles Energy            =      -0.0000000000000000 [Eh]
	 Same-Spin Energy          =      -0.4007620107617682 [Eh]
	 Opposite-Spin Energy      =      -1.3049266673657827 [Eh]
	 Correlation Energy        =      -1.7056886781275509 [Eh]
	 Total Energy              =    -401.7486191936434352 [Eh]

	 ================> DF-SCS-MP2 Energies <==================
	-----------------------------------------------------------
	 SCS Same-Spin Scale       =       0.3333333333333333 [-]
	 SCS Opposite-Spin Scale   =       1.2000000000000000 [-]
	 SCS Same-Spin Energy      =      -0.1335873369205894 [Eh]
	 SCS Opposite-Spin Energy  =      -1.5659120008389391 [Eh]
	 SCS Correlation Energy    =      -1.6994993377595284 [Eh]
	 SCS Total Energy          =    -401.7424298532753824 [Eh]
	-----------------------------------------------------------

  Dipole Moment: [D]
     X:     2.8825      Y:     3.0052      Z:     1.4814     Total:     4.4198

*** Psi4 exiting successfully. Buy a developer a beer!
