                               Psi4 1.4a3.dev225

  ==> Input File <==

--------------------------------------------------------------------------
#psi4
#
memory 32 gb

molecule  {
0 1
  O       -2.5334200    -0.7491890    -0.0380440
  O       -0.0309920    -1.3916750    -0.5246560
  N        0.8474210     0.2516040     0.7908210
  C       -1.5793960     0.2040340     0.3844480
  C        2.2299320    -0.1523350     0.5631470
  C       -0.1440890    -0.3627113     0.2072414
  C       -1.7305020     1.4971750    -0.4144490
  C        2.7876300     0.3918150    -0.7462470
  H       -1.7371730     0.4054880     1.4537200
  H        2.8183710     0.1913570     1.4185970
  H        2.2480760    -1.2444890     0.5585260
  H        0.6595560     1.1005830     1.3085070
  H       -1.5202540     1.2971370    -1.4686150
  H       -1.0543700     2.2823790    -0.0604110
  H       -2.7592110     1.8535180    -0.3272230
  H        2.1936920     0.0168210    -1.5822170
  H        2.7616940     1.4848860    -0.7566670
  H        3.8242090     0.0700520    -0.8849050
  H       -2.0046360    -1.4186050    -0.5240660
units angstrom
no_reorient  #important for SAPT in psi4, default
symmetry c1  #important for SAPT in psi4, default
}

set PROPERTIES_ORIGIN ["COM"]
properties('MP2/aug-cc-pvtz', properties = ['dipole'])
--------------------------------------------------------------------------

    Molecular point group: c1
  Charge       = 0
  Multiplicity = 1
  Basis Set: AUG-CC-PVTZ
    Blend: AUG-CC-PVTZ
  Basis Set: (AUG-CC-PVTZ AUX)
    Blend: AUG-CC-PVTZ-JKFIT

    Orbital Energies [Eh]
    ---------------------

    Doubly Occupied:

       1A    -20.547323     2A    -20.523212     3A    -15.608027
       4A    -11.355898     5A    -11.297912     6A    -11.279029
       7A    -11.228953     8A    -11.227196     9A     -1.384587
      10A     -1.341489    11A     -1.257388    12A     -1.053496
      13A     -1.015540    14A     -0.903482    15A     -0.849495
      16A     -0.806327    17A     -0.740941    18A     -0.676235
      19A     -0.644514    20A     -0.633505    21A     -0.617798
      22A     -0.599290    23A     -0.578158    24A     -0.564305
      25A     -0.543895    26A     -0.533052    27A     -0.518799
      28A     -0.506292    29A     -0.504265    30A     -0.443748
      31A     -0.426321    32A     -0.407200

  @DF-RHF Final Energy:  -400.08288051555007

   => Energetics <=

    Nuclear Repulsion Energy =            400.3996281022788821
    One-Electron Energy =               -1339.7296673266132530
    Two-Electron Energy =                 539.2471587087842408
    Total Energy =                       -400.0828805155500731
  Basis Set: (AUG-CC-PVTZ AUX)
    Blend: AUG-CC-PVTZ-RI
    Molecular point group: c1

    Geometry (in Angstrom), charge = 0, multiplicity = 1:

       Center              X                  Y                   Z               Mass
    ------------   -----------------  -----------------  -----------------  -----------------
         O           -2.491433739893    -0.700524485113    -0.047710556853    15.994914619570
         O            0.010994260107    -1.343010485113    -0.534322556853    15.994914619570
         N            0.889407260107     0.300268514887     0.781154443147    14.003074004430
         C           -1.537409739893     0.252698514887     0.374781443147    12.000000000000
         C            2.271918260107    -0.103670485113     0.553480443147    12.000000000000
         C           -0.102102739893    -0.314046785113     0.197574843147    12.000000000000
         C           -1.688515739893     1.545839514887    -0.424115556853    12.000000000000
         C            2.829616260107     0.440479514887    -0.755913556853    12.000000000000
         H           -1.695186739893     0.454152514887     1.444053443147     1.007825032230
         H            2.860357260107     0.240021514887     1.408930443147     1.007825032230
         H            2.290062260107    -1.195824485113     0.548859443147     1.007825032230
         H            0.701542260107     1.149247514887     1.298840443147     1.007825032230
         H           -1.478267739893     1.345801514887    -1.478281556853     1.007825032230
         H           -1.012383739893     2.331043514887    -0.070077556853     1.007825032230
         H           -2.717224739893     1.902182514887    -0.336889556853     1.007825032230
         H            2.235678260107     0.065485514887    -1.591883556853     1.007825032230
         H            2.803680260107     1.533550514887    -0.766333556853     1.007825032230
         H            3.866195260107     0.118716514887    -0.894571556853     1.007825032230
         H           -1.962649739893    -1.369940485113    -0.533732556853     1.007825032230

  Basis Set: AUG-CC-PVTZ
    Blend: AUG-CC-PVTZ
  Basis Set: (AUG-CC-PVTZ AUX)
    Blend: AUG-CC-PVTZ-JKFIT
	 Reference Energy          =    -400.0828805155500731 [Eh]
	 Singles Energy            =      -0.0000000000000000 [Eh]
	 Same-Spin Energy          =      -0.4024006942056928 [Eh]
	 Opposite-Spin Energy      =      -1.3084252706337205 [Eh]
	 Correlation Energy        =      -1.7108259648394133 [Eh]
	 Total Energy              =    -401.7937064803894600 [Eh]

	 ================> DF-SCS-MP2 Energies <==================
	-----------------------------------------------------------
	 SCS Same-Spin Scale       =       0.3333333333333333 [-]
	 SCS Opposite-Spin Scale   =       1.2000000000000000 [-]
	 SCS Same-Spin Energy      =      -0.1341335647352309 [Eh]
	 SCS Opposite-Spin Energy  =      -1.5701103247604646 [Eh]
	 SCS Correlation Energy    =      -1.7042438894956955 [Eh]
	 SCS Total Energy          =    -401.7871244050457449 [Eh]
	-----------------------------------------------------------

  Dipole Moment: [D]
     X:     3.1863      Y:     3.3164      Z:     1.7765     Total:     4.9302

*** Psi4 exiting successfully. Buy a developer a beer!
