                               Psi4 1.4a3.dev225

  ==> Input File <==

--------------------------------------------------------------------------
#psi4
#
memory 32 gb

molecule  {
0 1
  O       -2.5334200    -0.7491890    -0.0380440
  O       -0.0309920    -1.3916750    -0.5246560
  N        0.8474210     0.2516040     0.7908210
  C       -1.5456433     0.2377583     0.3993955
  C        2.2299320    -0.1523350     0.5631470
  C       -0.1821000    -0.3862620     0.1848690
  C       -1.7305020     1.4971750    -0.4144490
  C        2.7876300     0.3918150    -0.7462470
  H       -1.7371730     0.4054880     1.4537200
  H        2.8183710     0.1913570     1.4185970
  H        2.2480760    -1.2444890     0.5585260
  H        0.6595560     1.1005830     1.3085070
  H       -1.5202540     1.2971370    -1.4686150
  H       -1.0543700     2.2823790    -0.0604110
  H       -2.7592110     1.8535180    -0.3272230
  H        2.1936920     0.0168210    -1.5822170
  H        2.7616940     1.4848860    -0.7566670
  H        3.8242090     0.0700520    -0.8849050
  H       -2.0046360    -1.4186050    -0.5240660
units angstrom
no_reorient  #important for SAPT in psi4, default
symmetry c1  #important for SAPT in psi4, default
}

set PROPERTIES_ORIGIN ["COM"]
properties('MP2/aug-cc-pvtz', properties = ['dipole'])
--------------------------------------------------------------------------

    Molecular point group: c1
  Charge       = 0
  Multiplicity = 1
  Basis Set: AUG-CC-PVTZ
    Blend: AUG-CC-PVTZ
  Basis Set: (AUG-CC-PVTZ AUX)
    Blend: AUG-CC-PVTZ-JKFIT

    Orbital Energies [Eh]
    ---------------------

    Doubly Occupied:

       1A    -20.544652     2A    -20.534183     3A    -15.599640
       4A    -11.360700     5A    -11.298226     6A    -11.274573
       7A    -11.232309     8A    -11.224326     9A     -1.394755
      10A     -1.330460    11A     -1.246219    12A     -1.057039
      13A     -1.015256    14A     -0.905928    15A     -0.849026
      16A     -0.794732    17A     -0.740950    18A     -0.674079
      19A     -0.644413    20A     -0.636434    21A     -0.613894
      22A     -0.597921    23A     -0.578888    24A     -0.566061
      25A     -0.538598    26A     -0.530522    27A     -0.522261
      28A     -0.510397    29A     -0.503027    30A     -0.449923
      31A     -0.437834    32A     -0.404407

  @DF-RHF Final Energy:  -400.08399440594985

   => Energetics <=

    Nuclear Repulsion Energy =            400.2865392762069519
    One-Electron Energy =               -1339.5178028158270536
    Two-Electron Energy =                 539.1472691336703065
    Total Energy =                       -400.0839944059498521
  Basis Set: (AUG-CC-PVTZ AUX)
    Blend: AUG-CC-PVTZ-RI
    Molecular point group: c1

    Geometry (in Angstrom), charge = 0, multiplicity = 1:

       Center              X                  Y                   Z               Mass
    ------------   -----------------  -----------------  -----------------  -----------------
         O           -2.490997285795    -0.701567227384    -0.046949542356    15.994914619570
         O            0.011430714205    -1.344053227384    -0.533561542356    15.994914619570
         N            0.889843714205     0.299225772616     0.781915457644    14.003074004430
         C           -1.503220585795     0.285380072616     0.390489957644    12.000000000000
         C            2.272354714205    -0.104713227384     0.554241457644    12.000000000000
         C           -0.139677285795    -0.338640227384     0.175963457644    12.000000000000
         C           -1.688079285795     1.544796772616    -0.423354542356    12.000000000000
         C            2.830052714205     0.439436772616    -0.755152542356    12.000000000000
         H           -1.694750285795     0.453109772616     1.444814457644     1.007825032230
         H            2.860793714205     0.238978772616     1.409691457644     1.007825032230
         H            2.290498714205    -1.196867227384     0.549620457644     1.007825032230
         H            0.701978714205     1.148204772616     1.299601457644     1.007825032230
         H           -1.477831285795     1.344758772616    -1.477520542356     1.007825032230
         H           -1.011947285795     2.330000772616    -0.069316542356     1.007825032230
         H           -2.716788285795     1.901139772616    -0.336128542356     1.007825032230
         H            2.236114714205     0.064442772616    -1.591122542356     1.007825032230
         H            2.804116714205     1.532507772616    -0.765572542356     1.007825032230
         H            3.866631714205     0.117673772616    -0.893810542356     1.007825032230
         H           -1.962213285795    -1.370983227384    -0.532971542356     1.007825032230

  Basis Set: AUG-CC-PVTZ
    Blend: AUG-CC-PVTZ
  Basis Set: (AUG-CC-PVTZ AUX)
    Blend: AUG-CC-PVTZ-JKFIT
	 Reference Energy          =    -400.0839944059498521 [Eh]
	 Singles Energy            =      -0.0000000000000000 [Eh]
	 Same-Spin Energy          =      -0.4023300301089353 [Eh]
	 Opposite-Spin Energy      =      -1.3090265568087154 [Eh]
	 Correlation Energy        =      -1.7113565869176508 [Eh]
	 Total Energy              =    -401.7953509928674976 [Eh]

	 ================> DF-SCS-MP2 Energies <==================
	-----------------------------------------------------------
	 SCS Same-Spin Scale       =       0.3333333333333333 [-]
	 SCS Opposite-Spin Scale   =       1.2000000000000000 [-]
	 SCS Same-Spin Energy      =      -0.1341100100363118 [Eh]
	 SCS Opposite-Spin Energy  =      -1.5708318681704585 [Eh]
	 SCS Correlation Energy    =      -1.7049418782067702 [Eh]
	 SCS Total Energy          =    -401.7889362841566481 [Eh]
	-----------------------------------------------------------

  Dipole Moment: [D]
     X:     2.9612      Y:     3.2516      Z:     1.6374     Total:     4.6928

*** Psi4 exiting successfully. Buy a developer a beer!
