                               Psi4 1.3.2 release

  ==> Input File <==

--------------------------------------------------------------------------
#psi4
#
memory 32 gb

molecule  {
0 1
  O       -2.4925410    -0.6205970    -0.1535330
  O       -0.0496720    -1.4061110    -0.3874419
  N        0.8845720     0.3685180     0.7343320
  C       -1.5606020     0.2598377     0.3064268
  C        2.2569670    -0.1011270     0.6035390
  C       -0.1490540    -0.3186880     0.1981930
  C       -1.6458490     1.6048030    -0.4506110
  C        2.8658230     0.2522360    -0.7461750
  H       -1.7322500     0.4923850     1.3997900
  H        2.8336360     0.3321260     1.4253690
  H        2.2399750    -1.1846720     0.7384180
  H        0.7096630     1.2770080     1.1428940
  H       -1.3913480     1.4204780    -1.4971700
  H       -0.9867360     2.3841060    -0.0548340
  H       -2.6752710     1.9656290    -0.4028710
  H        2.2847230    -0.2144000    -1.5438430
  H        2.8717410     1.3343490    -0.8997070
  H        3.8959980    -0.1107530    -0.8084670
  H       -1.9544520    -1.3731060    -0.4835650
units angstrom
no_reorient  #important for SAPT in psi4, default
symmetry c1  #important for SAPT in psi4, default
}

set PROPERTIES_ORIGIN ["COM"]
properties('MP2/aug-cc-pvtz', properties = ['dipole'])
--------------------------------------------------------------------------

    Molecular point group: c1
  Charge       = 0
  Multiplicity = 1
  Basis Set: AUG-CC-PVTZ
    Blend: AUG-CC-PVTZ
  Basis Set: (AUG-CC-PVTZ AUX)
    Blend: AUG-CC-PVTZ-JKFIT

    Orbital Energies [Eh]
    ---------------------

    Doubly Occupied:

       1A    -20.551343     2A    -20.533321     3A    -15.600869
       4A    -11.358279     5A    -11.297334     6A    -11.275610
       7A    -11.228690     8A    -11.224247     9A     -1.406013
      10A     -1.359797    11A     -1.247844    12A     -1.048442
      13A     -1.009440    14A     -0.900736    15A     -0.848880
      16A     -0.794927    17A     -0.752121    18A     -0.677714
      19A     -0.649776    20A     -0.641627    21A     -0.615751
      22A     -0.599704    23A     -0.581387    24A     -0.561623
      25A     -0.546551    26A     -0.534963    27A     -0.521826
      28A     -0.513753    29A     -0.503869    30A     -0.436773
      31A     -0.433198    32A     -0.404444

  @DF-RHF Final Energy:  -400.08518617864667

   => Energetics <=

    Nuclear Repulsion Energy =            401.0164307079173796
    One-Electron Energy =               -1340.8815292482984205
    Two-Electron Energy =                 539.7799123617344321
    Total Energy =                       -400.0851861786466088
  Basis Set: (AUG-CC-PVTZ AUX)
    Blend: AUG-CC-PVTZ-RI
    Molecular point group: c1

    Geometry (in Angstrom), charge = 0, multiplicity = 1:

       Center              X                  Y                   Z               Mass
    ------------   -----------------  -----------------  -----------------  -----------------
         O           -2.484640736196    -0.616161811493    -0.149901655379    15.994914619570
         O           -0.041771736196    -1.401675811493    -0.383810555379    15.994914619570
         N            0.892472263804     0.372953188507     0.737963344621    14.003074004430
         C           -1.552701736196     0.264272888507     0.310058144621    12.000000000000
         C            2.264867263804    -0.096691811493     0.607170344621    12.000000000000
         C           -0.141153736196    -0.314252811493     0.201824344621    12.000000000000
         C           -1.637948736196     1.609238188507    -0.446979655379    12.000000000000
         C            2.873723263804     0.256671188507    -0.742543655379    12.000000000000
         H           -1.724349736196     0.496820188507     1.403421344621     1.007825032230
         H            2.841536263804     0.336561188507     1.429000344621     1.007825032230
         H            2.247875263804    -1.180236811493     0.742049344621     1.007825032230
         H            0.717563263804     1.281443188507     1.146525344621     1.007825032230
         H           -1.383447736196     1.424913188507    -1.493538655379     1.007825032230
         H           -0.978835736196     2.388541188507    -0.051202655379     1.007825032230
         H           -2.667370736196     1.970064188507    -0.399239655379     1.007825032230
         H            2.292623263804    -0.209964811493    -1.540211655379     1.007825032230
         H            2.879641263804     1.338784188507    -0.896075655379     1.007825032230
         H            3.903898263804    -0.106317811493    -0.804835655379     1.007825032230
         H           -1.946551736196    -1.368670811493    -0.479933655379     1.007825032230

  Basis Set: AUG-CC-PVTZ
    Blend: AUG-CC-PVTZ
  Basis Set: (AUG-CC-PVTZ AUX)
    Blend: AUG-CC-PVTZ-JKFIT
	 Reference Energy          =    -400.0851861786466657 [Eh]
	 Singles Energy            =      -0.0000000000000000 [Eh]
	 Same-Spin Energy          =      -0.4021583862792813 [Eh]
	 Opposite-Spin Energy      =      -1.3069973169455942 [Eh]
	 Correlation Energy        =      -1.7091557032248754 [Eh]
	 Total Energy              =    -401.7943418818715600 [Eh]

	 ================> DF-SCS-MP2 Energies <==================
	-----------------------------------------------------------
	 SCS Same-Spin Scale       =       0.3333333333333333 [-]
	 SCS Opposite-Spin Scale   =       1.2000000000000000 [-]
	 SCS Same-Spin Energy      =      -0.1340527954264271 [Eh]
	 SCS Opposite-Spin Energy  =      -1.5683967803347130 [Eh]
	 SCS Correlation Energy    =      -1.7024495757611400 [Eh]
	 SCS Total Energy          =    -401.7876357544078019 [Eh]
	-----------------------------------------------------------

  Dipole Moment: [D]
     X:     2.9594      Y:     3.0002      Z:     1.5169     Total:     4.4789

*** Psi4 exiting successfully. Buy a developer a beer!
