                               Psi4 1.3.2 release

  ==> Input File <==

--------------------------------------------------------------------------
#psi4
#
memory 32 gb

molecule  {
0 1
  O       -2.4925410    -0.6205970    -0.1535330
  O       -0.0069960    -1.4050930    -0.3804930
  N        0.8845720     0.3685180     0.7343320
  C       -1.5495243     0.3094097     0.3357696
  C        2.2569670    -0.1011270     0.6035390
  C       -0.1490540    -0.3186880     0.1981930
  C       -1.6458490     1.6048030    -0.4506110
  C        2.8658230     0.2522360    -0.7461750
  H       -1.7322500     0.4923850     1.3997900
  H        2.8336360     0.3321260     1.4253690
  H        2.2399750    -1.1846720     0.7384180
  H        0.7096630     1.2770080     1.1428940
  H       -1.3913480     1.4204780    -1.4971700
  H       -0.9867360     2.3841060    -0.0548340
  H       -2.6752710     1.9656290    -0.4028710
  H        2.2847230    -0.2144000    -1.5438430
  H        2.8717410     1.3343490    -0.8997070
  H        3.8959980    -0.1107530    -0.8084670
  H       -1.9616324    -1.3771831    -0.4858643
units angstrom
no_reorient  #important for SAPT in psi4, default
symmetry c1  #important for SAPT in psi4, default
}

set PROPERTIES_ORIGIN ["COM"]
properties('MP2/aug-cc-pvtz', properties = ['dipole'])
--------------------------------------------------------------------------

    Molecular point group: c1
  Charge       = 0
  Multiplicity = 1
  Basis Set: AUG-CC-PVTZ
    Blend: AUG-CC-PVTZ
  Basis Set: (AUG-CC-PVTZ AUX)
    Blend: AUG-CC-PVTZ-JKFIT

    Orbital Energies [Eh]
    ---------------------

    Doubly Occupied:

       1A    -20.548120     2A    -20.533033     3A    -15.598545
       4A    -11.358794     5A    -11.298307     6A    -11.273776
       7A    -11.230805     8A    -11.223131     9A     -1.397251
      10A     -1.346112    11A     -1.245356    12A     -1.052531
      13A     -1.013331    14A     -0.901504    15A     -0.848790
      16A     -0.793965    17A     -0.743935    18A     -0.676838
      19A     -0.648555    20A     -0.641141    21A     -0.612979
      22A     -0.597466    23A     -0.578523    24A     -0.563544
      25A     -0.542448    26A     -0.534426    27A     -0.521140
      28A     -0.512966    29A     -0.501880    30A     -0.446963
      31A     -0.434136    32A     -0.403323

  @DF-RHF Final Energy:  -400.08778016736824

   => Energetics <=

    Nuclear Repulsion Energy =            400.4556541121621080
    One-Electron Energy =               -1339.8396397133303708
    Two-Electron Energy =                 539.2962054337999689
    Total Energy =                       -400.0877801673682370
  Basis Set: (AUG-CC-PVTZ AUX)
    Blend: AUG-CC-PVTZ-RI
    Molecular point group: c1

    Geometry (in Angstrom), charge = 0, multiplicity = 1:

       Center              X                  Y                   Z               Mass
    ------------   -----------------  -----------------  -----------------  -----------------
         O           -2.491544578364    -0.621346668988    -0.153838684687    15.994914619570
         O           -0.005999578364    -1.405842668988    -0.380798684687    15.994914619570
         N            0.885568421636     0.367768331012     0.734026315313    14.003074004430
         C           -1.548527878364     0.308660031012     0.335463915313    12.000000000000
         C            2.257963421636    -0.101876668988     0.603233315313    12.000000000000
         C           -0.148057578364    -0.319437668988     0.197887315313    12.000000000000
         C           -1.644852578364     1.604053331012    -0.450916684687    12.000000000000
         C            2.866819421636     0.251486331012    -0.746480684687    12.000000000000
         H           -1.731253578364     0.491635331012     1.399484315313     1.007825032230
         H            2.834632421636     0.331376331012     1.425063315313     1.007825032230
         H            2.240971421636    -1.185421668988     0.738112315313     1.007825032230
         H            0.710659421636     1.276258331012     1.142588315313     1.007825032230
         H           -1.390351578364     1.419728331012    -1.497475684687     1.007825032230
         H           -0.985739578364     2.383356331012    -0.055139684687     1.007825032230
         H           -2.674274578364     1.964879331012    -0.403176684687     1.007825032230
         H            2.285719421636    -0.215149668988    -1.544148684687     1.007825032230
         H            2.872737421636     1.333599331012    -0.900012684687     1.007825032230
         H            3.896994421636    -0.111502668988    -0.808772684687     1.007825032230
         H           -1.960635978364    -1.377932768988    -0.486169984687     1.007825032230

  Basis Set: AUG-CC-PVTZ
    Blend: AUG-CC-PVTZ
  Basis Set: (AUG-CC-PVTZ AUX)
    Blend: AUG-CC-PVTZ-JKFIT
	 Reference Energy          =    -400.0877801673682370 [Eh]
	 Singles Energy            =      -0.0000000000000000 [Eh]
	 Same-Spin Energy          =      -0.4020573784085321 [Eh]
	 Opposite-Spin Energy      =      -1.3075903301916343 [Eh]
	 Correlation Energy        =      -1.7096477086001665 [Eh]
	 Total Energy              =    -401.7974278759684239 [Eh]

	 ================> DF-SCS-MP2 Energies <==================
	-----------------------------------------------------------
	 SCS Same-Spin Scale       =       0.3333333333333333 [-]
	 SCS Opposite-Spin Scale   =       1.2000000000000000 [-]
	 SCS Same-Spin Energy      =      -0.1340191261361773 [Eh]
	 SCS Opposite-Spin Energy  =      -1.5691083962299610 [Eh]
	 SCS Correlation Energy    =      -1.7031275223661384 [Eh]
	 SCS Total Energy          =    -401.7909076897343539 [Eh]
	-----------------------------------------------------------

  Dipole Moment: [D]
     X:     2.8910      Y:     3.1482      Z:     1.5591     Total:     4.5497

*** Psi4 exiting successfully. Buy a developer a beer!
