                               Psi4 1.3.2 release

  ==> Input File <==

--------------------------------------------------------------------------
#psi4
#
memory 32 gb

molecule  {
0 1
  O       -2.4925410    -0.6205970    -0.1535330
  O       -0.0069960    -1.4050930    -0.3804930
  N        0.8845720     0.3685180     0.7343320
  C       -1.6078409     0.2364286     0.2981664
  C        2.2569670    -0.1011270     0.6035390
  C       -0.1490540    -0.3186880     0.1981930
  C       -1.6458490     1.6048030    -0.4506110
  C        2.8658230     0.2522360    -0.7461750
  H       -1.7322500     0.4923850     1.3997900
  H        2.8336360     0.3321260     1.4253690
  H        2.2399750    -1.1846720     0.7384180
  H        0.7096630     1.2770080     1.1428940
  H       -1.3913480     1.4204780    -1.4971700
  H       -0.9867360     2.3841060    -0.0548340
  H       -2.6752710     1.9656290    -0.4028710
  H        2.2847230    -0.2144000    -1.5438430
  H        2.8717410     1.3343490    -0.8997070
  H        3.8959980    -0.1107530    -0.8084670
  H       -1.9544520    -1.3731060    -0.4835650
units angstrom
no_reorient  #important for SAPT in psi4, default
symmetry c1  #important for SAPT in psi4, default
}

set PROPERTIES_ORIGIN ["COM"]
properties('MP2/aug-cc-pvtz', properties = ['dipole'])
--------------------------------------------------------------------------

    Molecular point group: c1
  Charge       = 0
  Multiplicity = 1
  Basis Set: AUG-CC-PVTZ
    Blend: AUG-CC-PVTZ
  Basis Set: (AUG-CC-PVTZ AUX)
    Blend: AUG-CC-PVTZ-JKFIT

    Orbital Energies [Eh]
    ---------------------

    Doubly Occupied:

       1A    -20.559132     2A    -20.531311     3A    -15.597994
       4A    -11.356160     5A    -11.301574     6A    -11.273631
       7A    -11.227704     8A    -11.222547     9A     -1.418914
      10A     -1.372419    11A     -1.243333    12A     -1.043220
      13A     -1.006529    14A     -0.895698    15A     -0.847803
      16A     -0.792884    17A     -0.762378    18A     -0.679618
      19A     -0.652063    20A     -0.641582    21A     -0.617969
      22A     -0.598081    23A     -0.592018    24A     -0.560992
      25A     -0.547703    26A     -0.536210    27A     -0.521618
      28A     -0.512426    29A     -0.501969    30A     -0.433014
      31A     -0.426009    32A     -0.401763

  @DF-RHF Final Energy:  -400.07908527007544

   => Energetics <=

    Nuclear Repulsion Energy =            400.9217546049773091
    One-Electron Energy =               -1340.6491476625392352
    Two-Electron Energy =                 539.6483077874864875
    Total Energy =                       -400.0790852700754385
  Basis Set: (AUG-CC-PVTZ AUX)
    Blend: AUG-CC-PVTZ-RI
    Molecular point group: c1

    Geometry (in Angstrom), charge = 0, multiplicity = 1:

       Center              X                  Y                   Z               Mass
    ------------   -----------------  -----------------  -----------------  -----------------
         O           -2.485629232830    -0.613901573318    -0.150004340441    15.994914619570
         O           -0.000084232830    -1.398397573318    -0.376964340441    15.994914619570
         N            0.891483767170     0.375213426682     0.737860659559    14.003074004430
         C           -1.600929132830     0.243124026682     0.301695059559    12.000000000000
         C            2.263878767170    -0.094431573318     0.607067659559    12.000000000000
         C           -0.142142232830    -0.311992573318     0.201721659559    12.000000000000
         C           -1.638937232830     1.611498426682    -0.447082340441    12.000000000000
         C            2.872734767170     0.258931426682    -0.742646340441    12.000000000000
         H           -1.725338232830     0.499080426682     1.403318659559     1.007825032230
         H            2.840547767170     0.338821426682     1.428897659559     1.007825032230
         H            2.246886767170    -1.177976573318     0.741946659559     1.007825032230
         H            0.716574767170     1.283703426682     1.146422659559     1.007825032230
         H           -1.384436232830     1.427173426682    -1.493641340441     1.007825032230
         H           -0.979824232830     2.390801426682    -0.051305340441     1.007825032230
         H           -2.668359232830     1.972324426682    -0.399342340441     1.007825032230
         H            2.291634767170    -0.207704573318    -1.540314340441     1.007825032230
         H            2.878652767170     1.341044426682    -0.896178340441     1.007825032230
         H            3.902909767170    -0.104057573318    -0.804938340441     1.007825032230
         H           -1.947540232830    -1.366410573318    -0.480036340441     1.007825032230

  Basis Set: AUG-CC-PVTZ
    Blend: AUG-CC-PVTZ
  Basis Set: (AUG-CC-PVTZ AUX)
    Blend: AUG-CC-PVTZ-JKFIT
	 Reference Energy          =    -400.0790852700754385 [Eh]
	 Singles Energy            =      -0.0000000000000000 [Eh]
	 Same-Spin Energy          =      -0.4021343281229151 [Eh]
	 Opposite-Spin Energy      =      -1.3063795734212280 [Eh]
	 Correlation Energy        =      -1.7085139015441431 [Eh]
	 Total Energy              =    -401.7875991716196040 [Eh]

	 ================> DF-SCS-MP2 Energies <==================
	-----------------------------------------------------------
	 SCS Same-Spin Scale       =       0.3333333333333333 [-]
	 SCS Opposite-Spin Scale   =       1.2000000000000000 [-]
	 SCS Same-Spin Energy      =      -0.1340447760409717 [Eh]
	 SCS Opposite-Spin Energy  =      -1.5676554881054736 [Eh]
	 SCS Correlation Energy    =      -1.7017002641464454 [Eh]
	 SCS Total Energy          =    -401.7807855342218772 [Eh]
	-----------------------------------------------------------

  Dipole Moment: [D]
     X:     2.6881      Y:     2.8662      Z:     1.4564     Total:     4.1907

*** Psi4 exiting successfully. Buy a developer a beer!
