                               Psi4 1.3.2 release

  ==> Input File <==

--------------------------------------------------------------------------
#psi4
#
memory 32 gb

molecule  {
0 1
  O       -2.4925410    -0.6205970    -0.1535330
  O       -0.0069960    -1.4050930    -0.3804930
  N        0.8845720     0.3685180     0.7343320
  C       -1.5404070     0.3017530     0.3325960
  C        2.2569670    -0.1011270     0.6035390
  C       -0.1283904    -0.2570566     0.1514460
  C       -1.5699375     1.5949749    -0.4731184
  C        2.8658230     0.2522360    -0.7461750
  H       -1.7322500     0.4923850     1.3997900
  H        2.8336360     0.3321260     1.4253690
  H        2.2399750    -1.1846720     0.7384180
  H        0.7096630     1.2770080     1.1428940
  H       -1.3913480     1.4204780    -1.4971700
  H       -0.9867360     2.3841060    -0.0548340
  H       -2.6752710     1.9656290    -0.4028710
  H        2.2847230    -0.2144000    -1.5438430
  H        2.8717410     1.3343490    -0.8997070
  H        3.8959980    -0.1107530    -0.8084670
  H       -1.9544520    -1.3731060    -0.4835650
units angstrom
no_reorient  #important for SAPT in psi4, default
symmetry c1  #important for SAPT in psi4, default
}

set PROPERTIES_ORIGIN ["COM"]
properties('MP2/aug-cc-pvtz', properties = ['dipole'])
--------------------------------------------------------------------------

    Molecular point group: c1
  Charge       = 0
  Multiplicity = 1
  Basis Set: AUG-CC-PVTZ
    Blend: AUG-CC-PVTZ
  Basis Set: (AUG-CC-PVTZ AUX)
    Blend: AUG-CC-PVTZ-JKFIT

    Orbital Energies [Eh]
    ---------------------

    Doubly Occupied:

       1A    -20.549352     2A    -20.525298     3A    -15.604773
       4A    -11.357379     5A    -11.299765     6A    -11.276848
       7A    -11.231610     8A    -11.225474     9A     -1.385372
      10A     -1.341432    11A     -1.250556    12A     -1.057872
      13A     -1.016429    14A     -0.902796    15A     -0.851752
      16A     -0.799076    17A     -0.745109    18A     -0.679171
      19A     -0.651403    20A     -0.633893    21A     -0.617231
      22A     -0.597644    23A     -0.580830    24A     -0.553079
      25A     -0.549213    26A     -0.538542    27A     -0.516660
      28A     -0.507833    29A     -0.496745    30A     -0.448238
      31A     -0.427092    32A     -0.404557

  @DF-RHF Final Energy:  -400.07353783560870

   => Energetics <=

    Nuclear Repulsion Energy =            401.1708553722896227
    One-Electron Energy =               -1341.2427406484025596
    Two-Electron Energy =                 539.9983474405041761
    Total Energy =                       -400.0735378356087040
  Basis Set: (AUG-CC-PVTZ AUX)
    Blend: AUG-CC-PVTZ-RI
    Molecular point group: c1

    Geometry (in Angstrom), charge = 0, multiplicity = 1:

       Center              X                  Y                   Z               Mass
    ------------   -----------------  -----------------  -----------------  -----------------
         O           -2.502439321401    -0.625906567014    -0.146434975513    15.994914619570
         O           -0.016894321401    -1.410402567014    -0.373394975513    15.994914619570
         N            0.874673678599     0.363208432986     0.741430024487    14.003074004430
         C           -1.550305321401     0.296443432986     0.339694024487    12.000000000000
         C            2.247068678599    -0.106436567014     0.610637024487    12.000000000000
         C           -0.138288721401    -0.262366167014     0.158544024487    12.000000000000
         C           -1.579835821401     1.589665332986    -0.466020375513    12.000000000000
         C            2.855924678599     0.246926432986    -0.739076975513    12.000000000000
         H           -1.742148321401     0.487075432986     1.406888024487     1.007825032230
         H            2.823737678599     0.326816432986     1.432467024487     1.007825032230
         H            2.230076678599    -1.189981567014     0.745516024487     1.007825032230
         H            0.699764678599     1.271698432986     1.149992024487     1.007825032230
         H           -1.401246321401     1.415168432986    -1.490071975513     1.007825032230
         H           -0.996634321401     2.378796432986    -0.047735975513     1.007825032230
         H           -2.685169321401     1.960319432986    -0.395772975513     1.007825032230
         H            2.274824678599    -0.219709567014    -1.536744975513     1.007825032230
         H            2.861842678599     1.329039432986    -0.892608975513     1.007825032230
         H            3.886099678599    -0.116062567014    -0.801368975513     1.007825032230
         H           -1.964350321401    -1.378415567014    -0.476466975513     1.007825032230

  Basis Set: AUG-CC-PVTZ
    Blend: AUG-CC-PVTZ
  Basis Set: (AUG-CC-PVTZ AUX)
    Blend: AUG-CC-PVTZ-JKFIT
	 Reference Energy          =    -400.0735378356087040 [Eh]
	 Singles Energy            =      -0.0000000000000000 [Eh]
	 Same-Spin Energy          =      -0.4032370670851594 [Eh]
	 Opposite-Spin Energy      =      -1.3098063888781746 [Eh]
	 Correlation Energy        =      -1.7130434559633341 [Eh]
	 Total Energy              =    -401.7865812915720198 [Eh]

	 ================> DF-SCS-MP2 Energies <==================
	-----------------------------------------------------------
	 SCS Same-Spin Scale       =       0.3333333333333333 [-]
	 SCS Opposite-Spin Scale   =       1.2000000000000000 [-]
	 SCS Same-Spin Energy      =      -0.1344123556950531 [Eh]
	 SCS Opposite-Spin Energy  =      -1.5717676666538094 [Eh]
	 SCS Correlation Energy    =      -1.7061800223488626 [Eh]
	 SCS Total Energy          =    -401.7797178579575643 [Eh]
	-----------------------------------------------------------

  Dipole Moment: [D]
     X:     3.0789      Y:     3.3353      Z:     1.6386     Total:     4.8258

*** Psi4 exiting successfully. Buy a developer a beer!
