                               Psi4 1.3.2 release

  ==> Input File <==

--------------------------------------------------------------------------
#psi4
#
memory 32 gb

molecule  {
0 1
  O       -2.4925410    -0.6205970    -0.1535330
  O       -0.0069960    -1.4050930    -0.3804930
  N        0.8845720     0.3685180     0.7343320
  C       -1.5404070     0.3017530     0.3325960
  C        2.2569670    -0.1011270     0.6035390
  C       -0.1461346    -0.3173065     0.2246885
  C       -1.6458490     1.6048030    -0.4506110
  C        2.8658230     0.2522360    -0.7461750
  H       -1.7149167     0.4852461     1.4040081
  H        2.8336360     0.3321260     1.4253690
  H        2.2399750    -1.1846720     0.7384180
  H        0.7096630     1.2770080     1.1428940
  H       -1.3913480     1.4204780    -1.4971700
  H       -0.9867360     2.3841060    -0.0548340
  H       -2.6752710     1.9656290    -0.4028710
  H        2.2847230    -0.2144000    -1.5438430
  H        2.8717410     1.3343490    -0.8997070
  H        3.8959980    -0.1107530    -0.8084670
  H       -1.9544520    -1.3731060    -0.4835650
units angstrom
no_reorient  #important for SAPT in psi4, default
symmetry c1  #important for SAPT in psi4, default
}

set PROPERTIES_ORIGIN ["COM"]
properties('MP2/aug-cc-pvtz', properties = ['dipole'])
--------------------------------------------------------------------------

    Molecular point group: c1
  Charge       = 0
  Multiplicity = 1
  Basis Set: AUG-CC-PVTZ
    Blend: AUG-CC-PVTZ
  Basis Set: (AUG-CC-PVTZ AUX)
    Blend: AUG-CC-PVTZ-JKFIT

    Orbital Energies [Eh]
    ---------------------

    Doubly Occupied:

       1A    -20.548345     2A    -20.529743     3A    -15.601616
       4A    -11.358422     5A    -11.298474     6A    -11.275425
       7A    -11.231496     8A    -11.223968     9A     -1.392148
      10A     -1.344284    11A     -1.248695    12A     -1.053810
      13A     -1.013947    14A     -0.904290    15A     -0.850585
      16A     -0.796953    17A     -0.742950    18A     -0.676728
      19A     -0.649294    20A     -0.638602    21A     -0.613622
      22A     -0.597236    23A     -0.576503    24A     -0.563694
      25A     -0.543650    26A     -0.534320    27A     -0.519497
      28A     -0.511848    29A     -0.502225    30A     -0.445767
      31A     -0.434182    32A     -0.404115

  @DF-RHF Final Energy:  -400.08630581863144

   => Energetics <=

    Nuclear Repulsion Energy =            400.5504484160730385
    One-Electron Energy =               -1340.0206434488611649
    Two-Electron Energy =                 539.3838892141566248
    Total Energy =                       -400.0863058186314447
  Basis Set: (AUG-CC-PVTZ AUX)
    Blend: AUG-CC-PVTZ-RI
    Molecular point group: c1

    Geometry (in Angstrom), charge = 0, multiplicity = 1:

       Center              X                  Y                   Z               Mass
    ------------   -----------------  -----------------  -----------------  -----------------
         O           -2.492989294764    -0.620677136680    -0.156285163144    15.994914619570
         O           -0.007444294764    -1.405173136680    -0.383245163144    15.994914619570
         N            0.884123705236     0.368437863320     0.731579836856    14.003074004430
         C           -1.540855294764     0.301672863320     0.329843836856    12.000000000000
         C            2.256518705236    -0.101207136680     0.600786836856    12.000000000000
         C           -0.146582894764    -0.317386636680     0.221936336856    12.000000000000
         C           -1.646297294764     1.604722863320    -0.453363163144    12.000000000000
         C            2.865374705236     0.252155863320    -0.748927163144    12.000000000000
         H           -1.715364994764     0.485165963320     1.401255936856     1.007825032230
         H            2.833187705236     0.332045863320     1.422616836856     1.007825032230
         H            2.239526705236    -1.184752136680     0.735665836856     1.007825032230
         H            0.709214705236     1.276927863320     1.140141836856     1.007825032230
         H           -1.391796294764     1.420397863320    -1.499922163144     1.007825032230
         H           -0.987184294764     2.384025863320    -0.057586163144     1.007825032230
         H           -2.675719294764     1.965548863320    -0.405623163144     1.007825032230
         H            2.284274705236    -0.214480136680    -1.546595163144     1.007825032230
         H            2.871292705236     1.334268863320    -0.902459163144     1.007825032230
         H            3.895549705236    -0.110833136680    -0.811219163144     1.007825032230
         H           -1.954900294764    -1.373186136680    -0.486317163144     1.007825032230

  Basis Set: AUG-CC-PVTZ
    Blend: AUG-CC-PVTZ
  Basis Set: (AUG-CC-PVTZ AUX)
    Blend: AUG-CC-PVTZ-JKFIT
	 Reference Energy          =    -400.0863058186314447 [Eh]
	 Singles Energy            =      -0.0000000000000000 [Eh]
	 Same-Spin Energy          =      -0.4023556603101019 [Eh]
	 Opposite-Spin Energy      =      -1.3081166257645056 [Eh]
	 Correlation Energy        =      -1.7104722860746076 [Eh]
	 Total Energy              =    -401.7967781047060498 [Eh]

	 ================> DF-SCS-MP2 Energies <==================
	-----------------------------------------------------------
	 SCS Same-Spin Scale       =       0.3333333333333333 [-]
	 SCS Opposite-Spin Scale   =       1.2000000000000000 [-]
	 SCS Same-Spin Energy      =      -0.1341185534367006 [Eh]
	 SCS Opposite-Spin Energy  =      -1.5697399509174066 [Eh]
	 SCS Correlation Energy    =      -1.7038585043541072 [Eh]
	 SCS Total Energy          =    -401.7901643229855608 [Eh]
	-----------------------------------------------------------

  Dipole Moment: [D]
     X:     2.9749      Y:     3.2239      Z:     1.6148     Total:     4.6745

*** Psi4 exiting successfully. Buy a developer a beer!
