                               Psi4 1.3.2 release

  ==> Input File <==

--------------------------------------------------------------------------
#psi4
#
memory 32 gb

molecule  {
0 1
  O       -2.4925410    -0.6205970    -0.1535330
  O       -0.0069960    -1.4050930    -0.3804930
  N        0.8845720     0.3685180     0.7343320
  C       -1.5189178     0.2652843     0.2649648
  C        2.2569670    -0.1011270     0.6035390
  C       -0.1490540    -0.3186880     0.1981930
  C       -1.6458490     1.6048030    -0.4506110
  C        2.8658230     0.2522360    -0.7461750
  H       -1.7322500     0.4923850     1.3997900
  H        2.8336360     0.3321260     1.4253690
  H        2.2399750    -1.1846720     0.7384180
  H        0.7096630     1.2770080     1.1428940
  H       -1.3828163     1.3655006    -1.4838488
  H       -0.9867360     2.3841060    -0.0548340
  H       -2.6752710     1.9656290    -0.4028710
  H        2.2847230    -0.2144000    -1.5438430
  H        2.8717410     1.3343490    -0.8997070
  H        3.8959980    -0.1107530    -0.8084670
  H       -1.9544520    -1.3731060    -0.4835650
units angstrom
no_reorient  #important for SAPT in psi4, default
symmetry c1  #important for SAPT in psi4, default
}

set PROPERTIES_ORIGIN ["COM"]
properties('MP2/aug-cc-pvtz', properties = ['dipole'])
--------------------------------------------------------------------------

    Molecular point group: c1
  Charge       = 0
  Multiplicity = 1
  Basis Set: AUG-CC-PVTZ
    Blend: AUG-CC-PVTZ
  Basis Set: (AUG-CC-PVTZ AUX)
    Blend: AUG-CC-PVTZ-JKFIT

    Orbital Energies [Eh]
    ---------------------

    Doubly Occupied:

       1A    -20.554344     2A    -20.533005     3A    -15.599153
       4A    -11.358403     5A    -11.300274     6A    -11.274560
       7A    -11.231380     8A    -11.223511     9A     -1.405373
      10A     -1.358450    11A     -1.246128    12A     -1.054298
      13A     -1.012942    14A     -0.905914    15A     -0.848777
      16A     -0.793129    17A     -0.751044    18A     -0.677167
      19A     -0.645873    20A     -0.644397    21A     -0.615051
      22A     -0.598776    23A     -0.578277    24A     -0.564181
      25A     -0.547717    26A     -0.533253    27A     -0.524499
      28A     -0.517087    29A     -0.502885    30A     -0.441750
      31A     -0.431972    32A     -0.402627

  @DF-RHF Final Energy:  -400.07988194623863

   => Energetics <=

    Nuclear Repulsion Energy =            401.7059142382833556
    One-Electron Energy =               -1342.2192008783008532
    Two-Electron Energy =                 540.4334046937788116
    Total Energy =                       -400.0798819462386291
  Basis Set: (AUG-CC-PVTZ AUX)
    Blend: AUG-CC-PVTZ-RI
    Molecular point group: c1

    Geometry (in Angstrom), charge = 0, multiplicity = 1:

       Center              X                  Y                   Z               Mass
    ------------   -----------------  -----------------  -----------------  -----------------
         O           -2.494816839980    -0.616385886075    -0.146716015194    15.994914619570
         O           -0.009271839980    -1.400881886075    -0.373676015194    15.994914619570
         N            0.882296160020     0.372729113925     0.741148984806    14.003074004430
         C           -1.521193639980     0.269495413925     0.271781784806    12.000000000000
         C            2.254691160020    -0.096915886075     0.610355984806    12.000000000000
         C           -0.151329839980    -0.314476886075     0.205009984806    12.000000000000
         C           -1.648124839980     1.609014113925    -0.443794015194    12.000000000000
         C            2.863547160020     0.256447113925    -0.739358015194    12.000000000000
         H           -1.734525839980     0.496596113925     1.406606984806     1.007825032230
         H            2.831360160020     0.336337113925     1.432185984806     1.007825032230
         H            2.237699160020    -1.180460886075     0.745234984806     1.007825032230
         H            0.707387160020     1.281219113925     1.149710984806     1.007825032230
         H           -1.385092139980     1.369711713925    -1.477031815194     1.007825032230
         H           -0.989011839980     2.388317113925    -0.048017015194     1.007825032230
         H           -2.677546839980     1.969840113925    -0.396054015194     1.007825032230
         H            2.282447160020    -0.210188886075    -1.537026015194     1.007825032230
         H            2.869465160020     1.338560113925    -0.892890015194     1.007825032230
         H            3.893722160020    -0.106541886075    -0.801650015194     1.007825032230
         H           -1.956727839980    -1.368894886075    -0.476748015194     1.007825032230

  Basis Set: AUG-CC-PVTZ
    Blend: AUG-CC-PVTZ
  Basis Set: (AUG-CC-PVTZ AUX)
    Blend: AUG-CC-PVTZ-JKFIT
	 Reference Energy          =    -400.0798819462386291 [Eh]
	 Singles Energy            =      -0.0000000000000000 [Eh]
	 Same-Spin Energy          =      -0.4026223011507392 [Eh]
	 Opposite-Spin Energy      =      -1.3081096218964832 [Eh]
	 Correlation Energy        =      -1.7107319230472222 [Eh]
	 Total Energy              =    -401.7906138692858349 [Eh]

	 ================> DF-SCS-MP2 Energies <==================
	-----------------------------------------------------------
	 SCS Same-Spin Scale       =       0.3333333333333333 [-]
	 SCS Opposite-Spin Scale   =       1.2000000000000000 [-]
	 SCS Same-Spin Energy      =      -0.1342074337169130 [Eh]
	 SCS Opposite-Spin Energy  =      -1.5697315462757797 [Eh]
	 SCS Correlation Energy    =      -1.7039389799926927 [Eh]
	 SCS Total Energy          =    -401.7838209262313285 [Eh]
	-----------------------------------------------------------

  Dipole Moment: [D]
     X:     2.8314      Y:     3.0651      Z:     1.4482     Total:     4.4170

*** Psi4 exiting successfully. Buy a developer a beer!
