                               Psi4 1.4a3.dev225

  ==> Input File <==

--------------------------------------------------------------------------
#psi4
#
memory 32 gb

molecule  {
0 1
  O       -2.5334200    -0.7491890    -0.0380440
  O       -0.0309920    -1.3916750    -0.5246560
  N        0.8474210     0.2516040     0.7908210
  C       -1.5793960     0.2040340     0.3844480
  C        2.2299320    -0.1523350     0.5631470
  C       -0.1821000    -0.3862620     0.1848690
  C       -1.7305020     1.4971750    -0.4144490
  C        2.7876300     0.3918150    -0.7462470
  H       -1.7371730     0.4054880     1.4537200
  H        2.8183710     0.1913570     1.4185970
  H        2.2480760    -1.2444890     0.5585260
  H        0.6502737     1.1425304     1.3340855
  H       -1.5202540     1.2971370    -1.4686150
  H       -1.0543700     2.2823790    -0.0604110
  H       -2.7592110     1.8535180    -0.3272230
  H        2.1936920     0.0168210    -1.5822170
  H        2.7616940     1.4848860    -0.7566670
  H        3.8242090     0.0700520    -0.8849050
  H       -2.0046360    -1.4186050    -0.5240660
units angstrom
no_reorient  #important for SAPT in psi4, default
symmetry c1  #important for SAPT in psi4, default
}

set PROPERTIES_ORIGIN ["COM"]
properties('MP2/aug-cc-pvtz', properties = ['dipole'])
--------------------------------------------------------------------------

    Molecular point group: c1
  Charge       = 0
  Multiplicity = 1
  Basis Set: AUG-CC-PVTZ
    Blend: AUG-CC-PVTZ
  Basis Set: (AUG-CC-PVTZ AUX)
    Blend: AUG-CC-PVTZ-JKFIT

    Orbital Energies [Eh]
    ---------------------

    Doubly Occupied:

       1A    -20.549312     2A    -20.532814     3A    -15.603633
       4A    -11.359015     5A    -11.298318     6A    -11.274384
       7A    -11.230552     8A    -11.223776     9A     -1.396722
      10A     -1.346457    11A     -1.239573    12A     -1.051349
      13A     -1.011666    14A     -0.901862    15A     -0.847559
      16A     -0.782941    17A     -0.744658    18A     -0.674498
      19A     -0.644147    20A     -0.636989    21A     -0.614059
      22A     -0.595716    23A     -0.581166    24A     -0.564201
      25A     -0.541594    26A     -0.532715    27A     -0.521026
      28A     -0.512755    29A     -0.502411    30A     -0.447051
      31A     -0.433604    32A     -0.402924

  @DF-RHF Final Energy:  -400.08376234077048

   => Energetics <=

    Nuclear Repulsion Energy =            400.1052422045818275
    One-Electron Energy =               -1339.1791088170132298
    Two-Electron Energy =                 538.9901042716609254
    Total Energy =                       -400.0837623407704768
  Basis Set: (AUG-CC-PVTZ AUX)
    Blend: AUG-CC-PVTZ-RI
    Molecular point group: c1

    Geometry (in Angstrom), charge = 0, multiplicity = 1:

       Center              X                  Y                   Z               Mass
    ------------   -----------------  -----------------  -----------------  -----------------
         O           -2.487457902900    -0.698471744621    -0.045637681343    15.994914619570
         O            0.014970097100    -1.340957744621    -0.532249681343    15.994914619570
         N            0.893383097100     0.302321255379     0.783227318657    14.003074004430
         C           -1.533433902900     0.254751255379     0.376854318657    12.000000000000
         C            2.275894097100    -0.101617744621     0.555553318657    12.000000000000
         C           -0.136137902900    -0.335544744621     0.177275318657    12.000000000000
         C           -1.684539902900     1.547892255379    -0.422042681343    12.000000000000
         C            2.833592097100     0.442532255379    -0.753840681343    12.000000000000
         H           -1.691210902900     0.456205255379     1.446126318657     1.007825032230
         H            2.864333097100     0.242074255379     1.411003318657     1.007825032230
         H            2.294038097100    -1.193771744621     0.550932318657     1.007825032230
         H            0.696235797100     1.193247655379     1.326491818657     1.007825032230
         H           -1.474291902900     1.347854255379    -1.476208681343     1.007825032230
         H           -1.008407902900     2.333096255379    -0.068004681343     1.007825032230
         H           -2.713248902900     1.904235255379    -0.334816681343     1.007825032230
         H            2.239654097100     0.067538255379    -1.589810681343     1.007825032230
         H            2.807656097100     1.535603255379    -0.764260681343     1.007825032230
         H            3.870171097100     0.120769255379    -0.892498681343     1.007825032230
         H           -1.958673902900    -1.367887744621    -0.531659681343     1.007825032230

  Basis Set: AUG-CC-PVTZ
    Blend: AUG-CC-PVTZ
  Basis Set: (AUG-CC-PVTZ AUX)
    Blend: AUG-CC-PVTZ-JKFIT
	 Reference Energy          =    -400.0837623407704768 [Eh]
	 Singles Energy            =      -0.0000000000000000 [Eh]
	 Same-Spin Energy          =      -0.4024130368047630 [Eh]
	 Opposite-Spin Energy      =      -1.3087710743222178 [Eh]
	 Correlation Energy        =      -1.7111841111269808 [Eh]
	 Total Energy              =    -401.7949464518974310 [Eh]

	 ================> DF-SCS-MP2 Energies <==================
	-----------------------------------------------------------
	 SCS Same-Spin Scale       =       0.3333333333333333 [-]
	 SCS Opposite-Spin Scale   =       1.2000000000000000 [-]
	 SCS Same-Spin Energy      =      -0.1341376789349210 [Eh]
	 SCS Opposite-Spin Energy  =      -1.5705252891866615 [Eh]
	 SCS Correlation Energy    =      -1.7046629681215824 [Eh]
	 SCS Total Energy          =    -401.7884253088920445 [Eh]
	-----------------------------------------------------------

  Dipole Moment: [D]
     X:     2.8733      Y:     3.1620      Z:     1.6331     Total:     4.5740

*** Psi4 exiting successfully. Buy a developer a beer!
