                               Psi4 1.4a3.dev225

  ==> Input File <==

--------------------------------------------------------------------------
#psi4
#
memory 32 gb

molecule  {
0 1
  O       -2.5334200    -0.7491890    -0.0380440
  O       -0.0309920    -1.3916750    -0.5246560
  N        0.8474210     0.2516040     0.7908210
  C       -1.5793960     0.2040340     0.3844480
  C        2.1825272    -0.1384844     0.5709537
  C       -0.1821000    -0.3862620     0.1848690
  C       -1.7305020     1.4971750    -0.4144490
  C        2.7876300     0.3918150    -0.7462470
  H       -1.7371730     0.4054880     1.4537200
  H        2.8183710     0.1913570     1.4185970
  H        2.2480760    -1.2444890     0.5585260
  H        0.6595560     1.1005830     1.3085070
  H       -1.5202540     1.2971370    -1.4686150
  H       -1.0543700     2.2823790    -0.0604110
  H       -2.7592110     1.8535180    -0.3272230
  H        2.1936920     0.0168210    -1.5822170
  H        2.7616940     1.4848860    -0.7566670
  H        3.8242090     0.0700520    -0.8849050
  H       -2.0046360    -1.4186050    -0.5240660
units angstrom
no_reorient  #important for SAPT in psi4, default
symmetry c1  #important for SAPT in psi4, default
}

set PROPERTIES_ORIGIN ["COM"]
properties('MP2/aug-cc-pvtz', properties = ['dipole'])
--------------------------------------------------------------------------

    Molecular point group: c1
  Charge       = 0
  Multiplicity = 1
  Basis Set: AUG-CC-PVTZ
    Blend: AUG-CC-PVTZ
  Basis Set: (AUG-CC-PVTZ AUX)
    Blend: AUG-CC-PVTZ-JKFIT

    Orbital Energies [Eh]
    ---------------------

    Doubly Occupied:

       1A    -20.550777     2A    -20.535422     3A    -15.601500
       4A    -11.361346     5A    -11.300099     6A    -11.273117
       7A    -11.231857     8A    -11.222695     9A     -1.399944
      10A     -1.348673    11A     -1.256561    12A     -1.051859
      13A     -1.009150    14A     -0.906038    15A     -0.847936
      16A     -0.798492    17A     -0.746972    18A     -0.680625
      19A     -0.649803    20A     -0.639799    21A     -0.615165
      22A     -0.594668    23A     -0.582950    24A     -0.565847
      25A     -0.542517    26A     -0.533886    27A     -0.520082
      28A     -0.512455    29A     -0.496395    30A     -0.448662
      31A     -0.436300    32A     -0.401888

  @DF-RHF Final Energy:  -400.08500201256356

   => Energetics <=

    Nuclear Repulsion Energy =            401.1131453107147422
    One-Electron Energy =               -1341.0693337826230618
    Two-Electron Energy =                 539.8711864593446990
    Total Energy =                       -400.0850020125635638
  Basis Set: (AUG-CC-PVTZ AUX)
    Blend: AUG-CC-PVTZ-RI
    Molecular point group: c1

    Geometry (in Angstrom), charge = 0, multiplicity = 1:

       Center              X                  Y                   Z               Mass
    ------------   -----------------  -----------------  -----------------  -----------------
         O           -2.482679054703    -0.699530274185    -0.046217646665    15.994914619570
         O            0.019748945297    -1.342016274185    -0.532829646665    15.994914619570
         N            0.898161945297     0.301262725815     0.782647353335    14.003074004430
         C           -1.528655054703     0.253692725815     0.376274353335    12.000000000000
         C            2.233268145297    -0.088825674185     0.562780053335    12.000000000000
         C           -0.131359054703    -0.336603274185     0.176695353335    12.000000000000
         C           -1.679761054703     1.546833725815    -0.422622646665    12.000000000000
         C            2.838370945297     0.441473725815    -0.754420646665    12.000000000000
         H           -1.686432054703     0.455146725815     1.445546353335     1.007825032230
         H            2.869111945297     0.241015725815     1.410423353335     1.007825032230
         H            2.298816945297    -1.194830274185     0.550352353335     1.007825032230
         H            0.710296945297     1.150241725815     1.300333353335     1.007825032230
         H           -1.469513054703     1.346795725815    -1.476788646665     1.007825032230
         H           -1.003629054703     2.332037725815    -0.068584646665     1.007825032230
         H           -2.708470054703     1.903176725815    -0.335396646665     1.007825032230
         H            2.244432945297     0.066479725815    -1.590390646665     1.007825032230
         H            2.812434945297     1.534544725815    -0.764840646665     1.007825032230
         H            3.874949945297     0.119710725815    -0.893078646665     1.007825032230
         H           -1.953895054703    -1.368946274185    -0.532239646665     1.007825032230

  Basis Set: AUG-CC-PVTZ
    Blend: AUG-CC-PVTZ
  Basis Set: (AUG-CC-PVTZ AUX)
    Blend: AUG-CC-PVTZ-JKFIT
	 Reference Energy          =    -400.0850020125635638 [Eh]
	 Singles Energy            =      -0.0000000000000000 [Eh]
	 Same-Spin Energy          =      -0.4023293668619103 [Eh]
	 Opposite-Spin Energy      =      -1.3079730153535882 [Eh]
	 Correlation Energy        =      -1.7103023822154986 [Eh]
	 Total Energy              =    -401.7953043947790661 [Eh]

	 ================> DF-SCS-MP2 Energies <==================
	-----------------------------------------------------------
	 SCS Same-Spin Scale       =       0.3333333333333333 [-]
	 SCS Opposite-Spin Scale   =       1.2000000000000000 [-]
	 SCS Same-Spin Energy      =      -0.1341097889539701 [Eh]
	 SCS Opposite-Spin Energy  =      -1.5695676184243059 [Eh]
	 SCS Correlation Energy    =      -1.7036774073782761 [Eh]
	 SCS Total Energy          =    -401.7886794199418432 [Eh]
	-----------------------------------------------------------

  Dipole Moment: [D]
     X:     2.6969      Y:     3.1320      Z:     1.6311     Total:     4.4433

*** Psi4 exiting successfully. Buy a developer a beer!
