                               Psi4 1.3.2 release

  ==> Input File <==

--------------------------------------------------------------------------
#psi4
#
memory 32 gb

molecule  {
0 1
  O       -2.4602169    -0.6160466    -0.2198564
  O       -0.0069960    -1.4050930    -0.3804930
  N        0.8845720     0.3685180     0.7343320
  C       -1.5404070     0.3017530     0.3325960
  C        2.2569670    -0.1011270     0.6035390
  C       -0.1490540    -0.3186880     0.1981930
  C       -1.6458490     1.6048030    -0.4506110
  C        2.8658230     0.2522360    -0.7461750
  H       -1.6873349     0.5285065     1.3998553
  H        2.8336360     0.3321260     1.4253690
  H        2.2399750    -1.1846720     0.7384180
  H        0.7096630     1.2770080     1.1428940
  H       -1.3913480     1.4204780    -1.4971700
  H       -0.9867360     2.3841060    -0.0548340
  H       -2.6752710     1.9656290    -0.4028710
  H        2.2847230    -0.2144000    -1.5438430
  H        2.8717410     1.3343490    -0.8997070
  H        3.8959980    -0.1107530    -0.8084670
  H       -1.9544520    -1.3731060    -0.4835650
units angstrom
no_reorient  #important for SAPT in psi4, default
symmetry c1  #important for SAPT in psi4, default
}

set PROPERTIES_ORIGIN ["COM"]
properties('MP2/aug-cc-pvtz', properties = ['dipole'])
--------------------------------------------------------------------------

    Molecular point group: c1
  Charge       = 0
  Multiplicity = 1
  Basis Set: AUG-CC-PVTZ
    Blend: AUG-CC-PVTZ
  Basis Set: (AUG-CC-PVTZ AUX)
    Blend: AUG-CC-PVTZ-JKFIT

    Orbital Energies [Eh]
    ---------------------

    Doubly Occupied:

       1A    -20.547066     2A    -20.531719     3A    -15.597940
       4A    -11.357552     5A    -11.299829     6A    -11.273462
       7A    -11.230385     8A    -11.222758     9A     -1.399873
      10A     -1.351252    11A     -1.245041    12A     -1.054171
      13A     -1.013304    14A     -0.902721    15A     -0.849688
      16A     -0.793585    17A     -0.746641    18A     -0.682121
      19A     -0.652587    20A     -0.640088    21A     -0.613255
      22A     -0.596717    23A     -0.576846    24A     -0.562851
      25A     -0.543396    26A     -0.534484    27A     -0.520147
      28A     -0.514408    29A     -0.501291    30A     -0.448371
      31A     -0.434472    32A     -0.402663

  @DF-RHF Final Energy:  -400.08733114600443

   => Energetics <=

    Nuclear Repulsion Energy =            401.3081713799142562
    One-Electron Energy =               -1341.5096388694817051
    Two-Electron Energy =                 540.1141363435630183
    Total Energy =                       -400.0873311460044306
  Basis Set: (AUG-CC-PVTZ AUX)
    Blend: AUG-CC-PVTZ-RI
    Molecular point group: c1

    Geometry (in Angstrom), charge = 0, multiplicity = 1:

       Center              X                  Y                   Z               Mass
    ------------   -----------------  -----------------  -----------------  -----------------
         O           -2.465019401251    -0.616979188373    -0.210796293916    15.994914619570
         O           -0.011798501251    -1.406025588373    -0.371432893916    15.994914619570
         N            0.879769498749     0.367585411627     0.743392106084    14.003074004430
         C           -1.545209501251     0.300820411627     0.341656106084    12.000000000000
         C            2.252164498749    -0.102059588373     0.612599106084    12.000000000000
         C           -0.153856501251    -0.319620588373     0.207253106084    12.000000000000
         C           -1.650651501251     1.603870411627    -0.441550893916    12.000000000000
         C            2.861020498749     0.251303411627    -0.737114893916    12.000000000000
         H           -1.692137401251     0.527573911627     1.408915406084     1.007825032230
         H            2.828833498749     0.331193411627     1.434429106084     1.007825032230
         H            2.235172498749    -1.185604588373     0.747478106084     1.007825032230
         H            0.704860498749     1.276075411627     1.151954106084     1.007825032230
         H           -1.396150501251     1.419545411627    -1.488109893916     1.007825032230
         H           -0.991538501251     2.383173411627    -0.045773893916     1.007825032230
         H           -2.680073501251     1.964696411627    -0.393810893916     1.007825032230
         H            2.279920498749    -0.215332588373    -1.534782893916     1.007825032230
         H            2.866938498749     1.333416411627    -0.890646893916     1.007825032230
         H            3.891195498749    -0.111685588373    -0.799406893916     1.007825032230
         H           -1.959254501251    -1.374038588373    -0.474504893916     1.007825032230

  Basis Set: AUG-CC-PVTZ
    Blend: AUG-CC-PVTZ
  Basis Set: (AUG-CC-PVTZ AUX)
    Blend: AUG-CC-PVTZ-JKFIT
	 Reference Energy          =    -400.0873311460044306 [Eh]
	 Singles Energy            =      -0.0000000000000000 [Eh]
	 Same-Spin Energy          =      -0.4017168669738240 [Eh]
	 Opposite-Spin Energy      =      -1.3066465323451735 [Eh]
	 Correlation Energy        =      -1.7083633993189975 [Eh]
	 Total Energy              =    -401.7956945453234425 [Eh]

	 ================> DF-SCS-MP2 Energies <==================
	-----------------------------------------------------------
	 SCS Same-Spin Scale       =       0.3333333333333333 [-]
	 SCS Opposite-Spin Scale   =       1.2000000000000000 [-]
	 SCS Same-Spin Energy      =      -0.1339056223246080 [Eh]
	 SCS Opposite-Spin Energy  =      -1.5679758388142082 [Eh]
	 SCS Correlation Energy    =      -1.7018814611388162 [Eh]
	 SCS Total Energy          =    -401.7892126071432699 [Eh]
	-----------------------------------------------------------

  Dipole Moment: [D]
     X:     2.8065      Y:     3.1185      Z:     1.6833     Total:     4.5205

*** Psi4 exiting successfully. Buy a developer a beer!
