                               Psi4 1.3.2 release

  ==> Input File <==

--------------------------------------------------------------------------
#psi4
#
memory 32 gb

molecule  {
0 1
  O       -2.4925410    -0.6205970    -0.1535330
  O        0.0566647    -1.4011315    -0.3686665
  N        0.9278146     0.3169501     0.7123896
  C       -1.5404070     0.3017530     0.3325960
  C        2.2569670    -0.1011270     0.6035390
  C       -0.1490540    -0.3186880     0.1981930
  C       -1.6458490     1.6048030    -0.4506110
  C        2.8658230     0.2522360    -0.7461750
  H       -1.7322500     0.4923850     1.3997900
  H        2.8336360     0.3321260     1.4253690
  H        2.2399750    -1.1846720     0.7384180
  H        0.7096630     1.2770080     1.1428940
  H       -1.3913480     1.4204780    -1.4971700
  H       -0.9867360     2.3841060    -0.0548340
  H       -2.6752710     1.9656290    -0.4028710
  H        2.2847230    -0.2144000    -1.5438430
  H        2.8717410     1.3343490    -0.8997070
  H        3.8959980    -0.1107530    -0.8084670
  H       -1.9544520    -1.3731060    -0.4835650
units angstrom
no_reorient  #important for SAPT in psi4, default
symmetry c1  #important for SAPT in psi4, default
}

set PROPERTIES_ORIGIN ["COM"]
properties('MP2/aug-cc-pvtz', properties = ['dipole'])
--------------------------------------------------------------------------

    Molecular point group: c1
  Charge       = 0
  Multiplicity = 1
  Basis Set: AUG-CC-PVTZ
    Blend: AUG-CC-PVTZ
  Basis Set: (AUG-CC-PVTZ AUX)
    Blend: AUG-CC-PVTZ-JKFIT

    Orbital Energies [Eh]
    ---------------------

    Doubly Occupied:

       1A    -20.555086     2A    -20.529403     3A    -15.598685
       4A    -11.358527     5A    -11.305553     6A    -11.266445
       7A    -11.234395     8A    -11.219086     9A     -1.399654
      10A     -1.353379    11A     -1.244865    12A     -1.056013
      13A     -1.011273    14A     -0.907195    15A     -0.852610
      16A     -0.774803    17A     -0.749098    18A     -0.680957
      19A     -0.655726    20A     -0.641141    21A     -0.615356
      22A     -0.587975    23A     -0.579988    24A     -0.566895
      25A     -0.543935    26A     -0.535069    27A     -0.519548
      28A     -0.518323    29A     -0.496533    30A     -0.450152
      31A     -0.437311    32A     -0.394700

  @DF-RHF Final Energy:  -400.07716177162047

   => Energetics <=

    Nuclear Repulsion Energy =            401.2531425623014343
    One-Electron Energy =               -1341.3812550667444157
    Two-Electron Energy =                 540.0509507328224572
    Total Energy =                       -400.0771617716204673
  Basis Set: (AUG-CC-PVTZ AUX)
    Blend: AUG-CC-PVTZ-RI
    Molecular point group: c1

    Geometry (in Angstrom), charge = 0, multiplicity = 1:

       Center              X                  Y                   Z               Mass
    ------------   -----------------  -----------------  -----------------  -----------------
         O           -2.506409936746    -0.614970488813    -0.152524502559    15.994914619570
         O            0.042795763254    -1.395504988813    -0.367658002559    15.994914619570
         N            0.913945663254     0.322576611187     0.713398097441    14.003074004430
         C           -1.554275936746     0.307379511187     0.333604497441    12.000000000000
         C            2.243098063254    -0.095500488813     0.604547497441    12.000000000000
         C           -0.162922936746    -0.313061488813     0.199201497441    12.000000000000
         C           -1.659717936746     1.610429511187    -0.449602502559    12.000000000000
         C            2.851954063254     0.257862511187    -0.745166502559    12.000000000000
         H           -1.746118936746     0.498011511187     1.400798497441     1.007825032230
         H            2.819767063254     0.337752511187     1.426377497441     1.007825032230
         H            2.226106063254    -1.179045488813     0.739426497441     1.007825032230
         H            0.695794063254     1.282634511187     1.143902497441     1.007825032230
         H           -1.405216936746     1.426104511187    -1.496161502559     1.007825032230
         H           -1.000604936746     2.389732511187    -0.053825502559     1.007825032230
         H           -2.689139936746     1.971255511187    -0.401862502559     1.007825032230
         H            2.270854063254    -0.208773488813    -1.542834502559     1.007825032230
         H            2.857872063254     1.339975511187    -0.898698502559     1.007825032230
         H            3.882129063254    -0.105126488813    -0.807458502559     1.007825032230
         H           -1.968320936746    -1.367479488813    -0.482556502559     1.007825032230

  Basis Set: AUG-CC-PVTZ
    Blend: AUG-CC-PVTZ
  Basis Set: (AUG-CC-PVTZ AUX)
    Blend: AUG-CC-PVTZ-JKFIT
	 Reference Energy          =    -400.0771617716204673 [Eh]
	 Singles Energy            =      -0.0000000000000000 [Eh]
	 Same-Spin Energy          =      -0.4030346879962949 [Eh]
	 Opposite-Spin Energy      =      -1.3090673608720120 [Eh]
	 Correlation Energy        =      -1.7121020488683070 [Eh]
	 Total Energy              =    -401.7892638204887703 [Eh]

	 ================> DF-SCS-MP2 Energies <==================
	-----------------------------------------------------------
	 SCS Same-Spin Scale       =       0.3333333333333333 [-]
	 SCS Opposite-Spin Scale   =       1.2000000000000000 [-]
	 SCS Same-Spin Energy      =      -0.1343448959987650 [Eh]
	 SCS Opposite-Spin Energy  =      -1.5708808330464143 [Eh]
	 SCS Correlation Energy    =      -1.7052257290451793 [Eh]
	 SCS Total Energy          =    -401.7823875006656635 [Eh]
	-----------------------------------------------------------

  Dipole Moment: [D]
     X:     2.5091      Y:     3.2144      Z:     1.5674     Total:     4.3686

*** Psi4 exiting successfully. Buy a developer a beer!
