                               Psi4 1.3.2 release

  ==> Input File <==

--------------------------------------------------------------------------
#psi4
#
memory 32 gb

molecule  {
0 1
  O       -2.4925410    -0.6205970    -0.1535330
  O       -0.0069960    -1.4050930    -0.3804930
  N        0.8845720     0.3685180     0.7343320
  C       -1.5404070     0.3017530     0.3325960
  C        2.2569670    -0.1011270     0.6035390
  C       -0.1453436    -0.3085297     0.1903728
  C       -1.6332115     1.6034124    -0.4545130
  C        2.8658230     0.2522360    -0.7461750
  H       -1.7322500     0.4923850     1.3997900
  H        2.8336360     0.3321260     1.4253690
  H        2.2399750    -1.1846720     0.7384180
  H        0.7096630     1.2770080     1.1428940
  H       -1.3913480     1.4204780    -1.4971700
  H       -0.9867360     2.3841060    -0.0548340
  H       -2.6752710     1.9656290    -0.4028710
  H        2.2847230    -0.2144000    -1.5438430
  H        2.8717410     1.3343490    -0.8997070
  H        3.8959980    -0.1107530    -0.8084670
  H       -1.9544520    -1.3731060    -0.4835650
units angstrom
no_reorient  #important for SAPT in psi4, default
symmetry c1  #important for SAPT in psi4, default
}

set PROPERTIES_ORIGIN ["COM"]
properties('MP2/aug-cc-pvtz', properties = ['dipole'])
--------------------------------------------------------------------------

    Molecular point group: c1
  Charge       = 0
  Multiplicity = 1
  Basis Set: AUG-CC-PVTZ
    Blend: AUG-CC-PVTZ
  Basis Set: (AUG-CC-PVTZ AUX)
    Blend: AUG-CC-PVTZ-JKFIT

    Orbital Energies [Eh]
    ---------------------

    Doubly Occupied:

       1A    -20.548643     2A    -20.531975     3A    -15.599802
       4A    -11.358605     5A    -11.298334     6A    -11.274494
       7A    -11.231001     8A    -11.223647     9A     -1.395923
      10A     -1.345809    11A     -1.246949    12A     -1.053550
      13A     -1.013338    14A     -0.902659    15A     -0.849523
      16A     -0.794983    17A     -0.744876    18A     -0.676979
      19A     -0.648425    20A     -0.640116    21A     -0.613877
      22A     -0.597744    23A     -0.577602    24A     -0.560644
      25A     -0.544179    26A     -0.535693    27A     -0.520102
      28A     -0.513678    29A     -0.502021    30A     -0.446076
      31A     -0.434896    32A     -0.403895

  @DF-RHF Final Energy:  -400.08711064910057

   => Energetics <=

    Nuclear Repulsion Energy =            400.7231193481952687
    One-Electron Energy =               -1340.3603886920684545
    Two-Electron Energy =                 539.5501586947725627
    Total Energy =                       -400.0871106491006230
  Basis Set: (AUG-CC-PVTZ AUX)
    Blend: AUG-CC-PVTZ-RI
    Molecular point group: c1

    Geometry (in Angstrom), charge = 0, multiplicity = 1:

       Center              X                  Y                   Z               Mass
    ------------   -----------------  -----------------  -----------------  -----------------
         O           -2.494216441328    -0.621495636835    -0.152331733482    15.994914619570
         O           -0.008671441328    -1.405991636835    -0.379291733482    15.994914619570
         N            0.882896558672     0.367619363165     0.735533266518    14.003074004430
         C           -1.542082441328     0.300854363165     0.333797266518    12.000000000000
         C            2.255291558672    -0.102025636835     0.604740266518    12.000000000000
         C           -0.147019041328    -0.309428336835     0.191574066518    12.000000000000
         C           -1.634886941328     1.602513763165    -0.453311733482    12.000000000000
         C            2.864147558672     0.251337363165    -0.744973733482    12.000000000000
         H           -1.733925441328     0.491486363165     1.400991266518     1.007825032230
         H            2.831960558672     0.331227363165     1.426570266518     1.007825032230
         H            2.238299558672    -1.185570636835     0.739619266518     1.007825032230
         H            0.707987558672     1.276109363165     1.144095266518     1.007825032230
         H           -1.393023441328     1.419579363165    -1.495968733482     1.007825032230
         H           -0.988411441328     2.383207363165    -0.053632733482     1.007825032230
         H           -2.676946441328     1.964730363165    -0.401669733482     1.007825032230
         H            2.283047558672    -0.215298636835    -1.542641733482     1.007825032230
         H            2.870065558672     1.333450363165    -0.898505733482     1.007825032230
         H            3.894322558672    -0.111651636835    -0.807265733482     1.007825032230
         H           -1.956127441328    -1.374004636835    -0.482363733482     1.007825032230

  Basis Set: AUG-CC-PVTZ
    Blend: AUG-CC-PVTZ
  Basis Set: (AUG-CC-PVTZ AUX)
    Blend: AUG-CC-PVTZ-JKFIT
	 Reference Energy          =    -400.0871106491005662 [Eh]
	 Singles Energy            =      -0.0000000000000000 [Eh]
	 Same-Spin Energy          =      -0.4022493250048718 [Eh]
	 Opposite-Spin Energy      =      -1.3079045759787848 [Eh]
	 Correlation Energy        =      -1.7101539009836566 [Eh]
	 Total Energy              =    -401.7972645500842077 [Eh]

	 ================> DF-SCS-MP2 Energies <==================
	-----------------------------------------------------------
	 SCS Same-Spin Scale       =       0.3333333333333333 [-]
	 SCS Opposite-Spin Scale   =       1.2000000000000000 [-]
	 SCS Same-Spin Energy      =      -0.1340831083349572 [Eh]
	 SCS Opposite-Spin Energy  =      -1.5694854911745417 [Eh]
	 SCS Correlation Energy    =      -1.7035685995094989 [Eh]
	 SCS Total Energy          =    -401.7906792486100471 [Eh]
	-----------------------------------------------------------

  Dipole Moment: [D]
     X:     2.9328      Y:     3.1820      Z:     1.5727     Total:     4.6043

*** Psi4 exiting successfully. Buy a developer a beer!
