                               Psi4 1.3.2 release

  ==> Input File <==

--------------------------------------------------------------------------
#psi4
#
memory 32 gb

molecule  {
0 1
  O       -2.4925410    -0.6205970    -0.1535330
  O       -0.0283156    -1.4057676    -0.3840561
  N        0.8845720     0.3685180     0.7343320
  C       -1.5507180     0.2808867     0.3195299
  C        2.2569670    -0.1011270     0.6035390
  C       -0.1490540    -0.3186880     0.1981930
  C       -1.6458490     1.6048030    -0.4506110
  C        2.8658230     0.2522360    -0.7461750
  H       -1.7322500     0.4923850     1.3997900
  H        2.8336360     0.3321260     1.4253690
  H        2.2399750    -1.1846720     0.7384180
  H        0.7096630     1.2770080     1.1428940
  H       -1.3913480     1.4204780    -1.4971700
  H       -0.9867360     2.3841060    -0.0548340
  H       -2.6752710     1.9656290    -0.4028710
  H        2.2847230    -0.2144000    -1.5438430
  H        2.8717410     1.3343490    -0.8997070
  H        3.8959980    -0.1107530    -0.8084670
  H       -1.9544520    -1.3731060    -0.4835650
units angstrom
no_reorient  #important for SAPT in psi4, default
symmetry c1  #important for SAPT in psi4, default
}

set PROPERTIES_ORIGIN ["COM"]
properties('MP2/aug-cc-pvtz', properties = ['dipole'])
--------------------------------------------------------------------------

    Molecular point group: c1
  Charge       = 0
  Multiplicity = 1
  Basis Set: AUG-CC-PVTZ
    Blend: AUG-CC-PVTZ
  Basis Set: (AUG-CC-PVTZ AUX)
    Blend: AUG-CC-PVTZ-JKFIT

    Orbital Energies [Eh]
    ---------------------

    Doubly Occupied:

       1A    -20.549917     2A    -20.533343     3A    -15.599836
       4A    -11.358602     5A    -11.297623     6A    -11.274810
       7A    -11.229900     8A    -11.223757     9A     -1.401487
      10A     -1.353480    11A     -1.246808    12A     -1.050476
      13A     -1.011243    14A     -0.901723    15A     -0.848971
      16A     -0.794471    17A     -0.748140    18A     -0.677234
      19A     -0.648928    20A     -0.641406    21A     -0.614434
      22A     -0.598650    23A     -0.578742    24A     -0.562576
      25A     -0.545106    26A     -0.534401    27A     -0.521514
      28A     -0.514393    29A     -0.503010    30A     -0.441539
      31A     -0.434840    32A     -0.404065

  @DF-RHF Final Energy:  -400.08746726872863

   => Energetics <=

    Nuclear Repulsion Energy =            400.8109011508387312
    One-Electron Energy =               -1340.5058896929515413
    Two-Electron Energy =                 539.6075212733841227
    Total Energy =                       -400.0874672687286875
  Basis Set: (AUG-CC-PVTZ AUX)
    Blend: AUG-CC-PVTZ-RI
    Molecular point group: c1

    Geometry (in Angstrom), charge = 0, multiplicity = 1:

       Center              X                  Y                   Z               Mass
    ------------   -----------------  -----------------  -----------------  -----------------
         O           -2.488571431527    -0.618366141056    -0.151707212486    15.994914619570
         O           -0.024346031527    -1.403536741056    -0.382230312486    15.994914619570
         N            0.888541568473     0.370748858944     0.736157787514    14.003074004430
         C           -1.546748431527     0.283117558944     0.321355687514    12.000000000000
         C            2.260936568473    -0.098896141056     0.605364787514    12.000000000000
         C           -0.145084431527    -0.316457141056     0.200018787514    12.000000000000
         C           -1.641879431527     1.607033858944    -0.448785212486    12.000000000000
         C            2.869792568473     0.254466858944    -0.744349212486    12.000000000000
         H           -1.728280431527     0.494615858944     1.401615787514     1.007825032230
         H            2.837605568473     0.334356858944     1.427194787514     1.007825032230
         H            2.243944568473    -1.182441141056     0.740243787514     1.007825032230
         H            0.713632568473     1.279238858944     1.144719787514     1.007825032230
         H           -1.387378431527     1.422708858944    -1.495344212486     1.007825032230
         H           -0.982766431527     2.386336858944    -0.053008212486     1.007825032230
         H           -2.671301431527     1.967859858944    -0.401045212486     1.007825032230
         H            2.288692568473    -0.212169141056    -1.542017212486     1.007825032230
         H            2.875710568473     1.336579858944    -0.897881212486     1.007825032230
         H            3.899967568473    -0.108522141056    -0.806641212486     1.007825032230
         H           -1.950482431527    -1.370875141056    -0.481739212486     1.007825032230

  Basis Set: AUG-CC-PVTZ
    Blend: AUG-CC-PVTZ
  Basis Set: (AUG-CC-PVTZ AUX)
    Blend: AUG-CC-PVTZ-JKFIT
	 Reference Energy          =    -400.0874672687286306 [Eh]
	 Singles Energy            =      -0.0000000000000000 [Eh]
	 Same-Spin Energy          =      -0.4021015447115601 [Eh]
	 Opposite-Spin Energy      =      -1.3072719617312276 [Eh]
	 Correlation Energy        =      -1.7093735064427877 [Eh]
	 Total Energy              =    -401.7968407751714039 [Eh]

	 ================> DF-SCS-MP2 Energies <==================
	-----------------------------------------------------------
	 SCS Same-Spin Scale       =       0.3333333333333333 [-]
	 SCS Opposite-Spin Scale   =       1.2000000000000000 [-]
	 SCS Same-Spin Energy      =      -0.1340338482371867 [Eh]
	 SCS Opposite-Spin Energy  =      -1.5687263540774732 [Eh]
	 SCS Correlation Energy    =      -1.7027602023146600 [Eh]
	 SCS Total Energy          =    -401.7902274710432948 [Eh]
	-----------------------------------------------------------

  Dipole Moment: [D]
     X:     2.9315      Y:     3.0767      Z:     1.5405     Total:     4.5203

*** Psi4 exiting successfully. Buy a developer a beer!
