                               Psi4 1.3.2 release

  ==> Input File <==

--------------------------------------------------------------------------
#psi4
#
memory 32 gb

molecule  {
0 1
  O       -2.4925410    -0.6205970    -0.1535330
  O       -0.0069960    -1.4050930    -0.3804930
  N        0.8851787     0.3733843     0.7226066
  C       -1.5404070     0.3017530     0.3325960
  C        2.2569670    -0.1011270     0.6035390
  C       -0.1490540    -0.3186880     0.1981930
  C       -1.6458490     1.6048030    -0.4506110
  C        2.8544508     0.2581304    -0.7496965
  H       -1.7322500     0.4923850     1.3997900
  H        2.8336360     0.3321260     1.4253690
  H        2.2399750    -1.1846720     0.7384180
  H        0.7096630     1.2770080     1.1428940
  H       -1.3913480     1.4204780    -1.4971700
  H       -0.9867360     2.3841060    -0.0548340
  H       -2.6752710     1.9656290    -0.4028710
  H        2.2847230    -0.2144000    -1.5438430
  H        2.8717410     1.3343490    -0.8997070
  H        3.8959980    -0.1107530    -0.8084670
  H       -1.9544520    -1.3731060    -0.4835650
units angstrom
no_reorient  #important for SAPT in psi4, default
symmetry c1  #important for SAPT in psi4, default
}

set PROPERTIES_ORIGIN ["COM"]
properties('MP2/aug-cc-pvtz', properties = ['dipole'])
--------------------------------------------------------------------------

    Molecular point group: c1
  Charge       = 0
  Multiplicity = 1
  Basis Set: AUG-CC-PVTZ
    Blend: AUG-CC-PVTZ
  Basis Set: (AUG-CC-PVTZ AUX)
    Blend: AUG-CC-PVTZ-JKFIT

    Orbital Energies [Eh]
    ---------------------

    Doubly Occupied:

       1A    -20.548414     2A    -20.532940     3A    -15.598622
       4A    -11.358660     5A    -11.298063     6A    -11.274235
       7A    -11.230943     8A    -11.223100     9A     -1.398201
      10A     -1.346506    11A     -1.246074    12A     -1.052866
      13A     -1.012576    14A     -0.902445    15A     -0.849249
      16A     -0.794288    17A     -0.744817    18A     -0.676836
      19A     -0.648231    20A     -0.641551    21A     -0.613669
      22A     -0.598056    23A     -0.576559    24A     -0.563284
      25A     -0.541229    26A     -0.532899    27A     -0.522018
      28A     -0.514222    29A     -0.503981    30A     -0.445585
      31A     -0.435873    32A     -0.403187

  @DF-RHF Final Energy:  -400.08755497758716

   => Energetics <=

    Nuclear Repulsion Energy =            400.8028260056814815
    One-Electron Energy =               -1340.5224034001960263
    Two-Electron Energy =                 539.6320224169273843
    Total Energy =                       -400.0875549775871605
  Basis Set: (AUG-CC-PVTZ AUX)
    Blend: AUG-CC-PVTZ-RI
    Molecular point group: c1

    Geometry (in Angstrom), charge = 0, multiplicity = 1:

       Center              X                  Y                   Z               Mass
    ------------   -----------------  -----------------  -----------------  -----------------
         O           -2.491447835564    -0.621783165471    -0.151769862814    15.994914619570
         O           -0.005902835564    -1.406279165471    -0.378729862814    15.994914619570
         N            0.886271864436     0.372198134529     0.724369737186    14.003074004430
         C           -1.539313835564     0.300566834529     0.334359137186    12.000000000000
         C            2.258060164436    -0.102313165471     0.605302137186    12.000000000000
         C           -0.147960835564    -0.319874165471     0.199956137186    12.000000000000
         C           -1.644755835564     1.603616834529    -0.448847862814    12.000000000000
         C            2.855543964436     0.256944234529    -0.747933362814    12.000000000000
         H           -1.731156835564     0.491198834529     1.401553137186     1.007825032230
         H            2.834729164436     0.330939834529     1.427132137186     1.007825032230
         H            2.241068164436    -1.185858165471     0.740181137186     1.007825032230
         H            0.710756164436     1.275821834529     1.144657137186     1.007825032230
         H           -1.390254835564     1.419291834529    -1.495406862814     1.007825032230
         H           -0.985642835564     2.382919834529    -0.053070862814     1.007825032230
         H           -2.674177835564     1.964442834529    -0.401107862814     1.007825032230
         H            2.285816164436    -0.215586165471    -1.542079862814     1.007825032230
         H            2.872834164436     1.333162834529    -0.897943862814     1.007825032230
         H            3.897091164436    -0.111939165471    -0.806703862814     1.007825032230
         H           -1.953358835564    -1.374292165471    -0.481801862814     1.007825032230

  Basis Set: AUG-CC-PVTZ
    Blend: AUG-CC-PVTZ
  Basis Set: (AUG-CC-PVTZ AUX)
    Blend: AUG-CC-PVTZ-JKFIT
	 Reference Energy          =    -400.0875549775871605 [Eh]
	 Singles Energy            =      -0.0000000000000000 [Eh]
	 Same-Spin Energy          =      -0.4021481937644901 [Eh]
	 Opposite-Spin Energy      =      -1.3077192287937240 [Eh]
	 Correlation Energy        =      -1.7098674225582142 [Eh]
	 Total Energy              =    -401.7974224001453649 [Eh]

	 ================> DF-SCS-MP2 Energies <==================
	-----------------------------------------------------------
	 SCS Same-Spin Scale       =       0.3333333333333333 [-]
	 SCS Opposite-Spin Scale   =       1.2000000000000000 [-]
	 SCS Same-Spin Energy      =      -0.1340493979214967 [Eh]
	 SCS Opposite-Spin Energy  =      -1.5692630745524687 [Eh]
	 SCS Correlation Energy    =      -1.7033124724739654 [Eh]
	 SCS Total Energy          =    -401.7908674500611141 [Eh]
	-----------------------------------------------------------

  Dipole Moment: [D]
     X:     2.9090      Y:     3.1506      Z:     1.5900     Total:     4.5735

*** Psi4 exiting successfully. Buy a developer a beer!
