                               Psi4 1.3.2 release

  ==> Input File <==

--------------------------------------------------------------------------
#psi4
#
memory 32 gb

molecule  {
0 1
  O       -2.4925410    -0.6205970    -0.1535330
  O       -0.0069960    -1.4050930    -0.3804930
  N        0.8845720     0.3685180     0.7343320
  C       -1.5404070     0.3017530     0.3325960
  C        2.2569670    -0.1011270     0.6035390
  C       -0.1490540    -0.3186880     0.1981930
  C       -1.6486379     1.6112849    -0.4393384
  C        2.8658230     0.2522360    -0.7461750
  H       -1.7335504     0.5017039     1.3978484
  H        2.8336360     0.3321260     1.4253690
  H        2.2399750    -1.1846720     0.7384180
  H        0.7096630     1.2770080     1.1428940
  H       -1.3913480     1.4204780    -1.4971700
  H       -0.9867360     2.3841060    -0.0548340
  H       -2.6752710     1.9656290    -0.4028710
  H        2.2847230    -0.2144000    -1.5438430
  H        2.8717410     1.3343490    -0.8997070
  H        3.8959980    -0.1107530    -0.8084670
  H       -1.9544520    -1.3731060    -0.4835650
units angstrom
no_reorient  #important for SAPT in psi4, default
symmetry c1  #important for SAPT in psi4, default
}

set PROPERTIES_ORIGIN ["COM"]
properties('MP2/aug-cc-pvtz', properties = ['dipole'])
--------------------------------------------------------------------------

    Molecular point group: c1
  Charge       = 0
  Multiplicity = 1
  Basis Set: AUG-CC-PVTZ
    Blend: AUG-CC-PVTZ
  Basis Set: (AUG-CC-PVTZ AUX)
    Blend: AUG-CC-PVTZ-JKFIT

    Orbital Energies [Eh]
    ---------------------

    Doubly Occupied:

       1A    -20.548881     2A    -20.533534     3A    -15.598925
       4A    -11.359290     5A    -11.298248     6A    -11.274061
       7A    -11.231011     8A    -11.223301     9A     -1.398423
      10A     -1.346727    11A     -1.245896    12A     -1.052886
      13A     -1.012919    14A     -0.902737    15A     -0.849012
      16A     -0.794135    17A     -0.744970    18A     -0.676767
      19A     -0.648070    20A     -0.641564    21A     -0.613400
      22A     -0.597865    23A     -0.576872    24A     -0.565438
      25A     -0.542806    26A     -0.532466    27A     -0.521564
      28A     -0.514538    29A     -0.502250    30A     -0.445213
      31A     -0.436562    32A     -0.403583

  @DF-RHF Final Energy:  -400.08756800840030

   => Energetics <=

    Nuclear Repulsion Energy =            400.5726722740815262
    One-Electron Energy =               -1340.0526510526651691
    Two-Electron Energy =                 539.3924107701833464
    Total Energy =                       -400.0875680084003534
  Basis Set: (AUG-CC-PVTZ AUX)
    Blend: AUG-CC-PVTZ-RI
    Molecular point group: c1

    Geometry (in Angstrom), charge = 0, multiplicity = 1:

       Center              X                  Y                   Z               Mass
    ------------   -----------------  -----------------  -----------------  -----------------
         O           -2.492243822687    -0.621341571780    -0.154671870116    15.994914619570
         O           -0.006698822687    -1.405837571780    -0.381631870116    15.994914619570
         N            0.884869177313     0.367773428220     0.733193129884    14.003074004430
         C           -1.540109822687     0.301008428220     0.331457129884    12.000000000000
         C            2.257264177313    -0.101871571780     0.602400129884    12.000000000000
         C           -0.148756822687    -0.319432571780     0.197054129884    12.000000000000
         C           -1.648340722687     1.610540328220    -0.440477270116    12.000000000000
         C            2.866120177313     0.251491428220    -0.747313870116    12.000000000000
         H           -1.733253222687     0.500959328220     1.396709529884     1.007825032230
         H            2.833933177313     0.331381428220     1.424230129884     1.007825032230
         H            2.240272177313    -1.185416571780     0.737279129884     1.007825032230
         H            0.709960177313     1.276263428220     1.141755129884     1.007825032230
         H           -1.391050822687     1.419733428220    -1.498308870116     1.007825032230
         H           -0.986438822687     2.383361428220    -0.055972870116     1.007825032230
         H           -2.674973822687     1.964884428220    -0.404009870116     1.007825032230
         H            2.285020177313    -0.215144571780    -1.544981870116     1.007825032230
         H            2.872038177313     1.333604428220    -0.900845870116     1.007825032230
         H            3.896295177313    -0.111497571780    -0.809605870116     1.007825032230
         H           -1.954154822687    -1.373850571780    -0.484703870116     1.007825032230

  Basis Set: AUG-CC-PVTZ
    Blend: AUG-CC-PVTZ
  Basis Set: (AUG-CC-PVTZ AUX)
    Blend: AUG-CC-PVTZ-JKFIT
	 Reference Energy          =    -400.0875680084002965 [Eh]
	 Singles Energy            =      -0.0000000000000000 [Eh]
	 Same-Spin Energy          =      -0.4021219683959747 [Eh]
	 Opposite-Spin Energy      =      -1.3076999139888890 [Eh]
	 Correlation Energy        =      -1.7098218823848637 [Eh]
	 Total Energy              =    -401.7973898907851549 [Eh]

	 ================> DF-SCS-MP2 Energies <==================
	-----------------------------------------------------------
	 SCS Same-Spin Scale       =       0.3333333333333333 [-]
	 SCS Opposite-Spin Scale   =       1.2000000000000000 [-]
	 SCS Same-Spin Energy      =      -0.1340406561319916 [Eh]
	 SCS Opposite-Spin Energy  =      -1.5692398967866668 [Eh]
	 SCS Correlation Energy    =      -1.7032805529186583 [Eh]
	 SCS Total Energy          =    -401.7908485613189669 [Eh]
	-----------------------------------------------------------

  Dipole Moment: [D]
     X:     2.9037      Y:     3.1499      Z:     1.5644     Total:     4.5608

*** Psi4 exiting successfully. Buy a developer a beer!
