                               Psi4 1.3.2 release

  ==> Input File <==

--------------------------------------------------------------------------
#psi4
#
memory 32 gb

molecule  {
0 1
  O       -2.4925410    -0.6205970    -0.1535330
  O       -0.0069960    -1.4050930    -0.3804930
  N        0.8845720     0.3685180     0.7343320
  C       -1.5313623     0.2940261     0.3293854
  C        2.2569670    -0.1011270     0.6035390
  C       -0.1490540    -0.3186880     0.1981930
  C       -1.6458490     1.6048030    -0.4506110
  C        2.8658230     0.2522360    -0.7461750
  H       -1.7322500     0.4923850     1.3997900
  H        2.8336360     0.3321260     1.4253690
  H        2.2399750    -1.1846720     0.7384180
  H        0.7096630     1.2770080     1.1428940
  H       -1.3913480     1.4204780    -1.4971700
  H       -0.9867360     2.3841060    -0.0548340
  H       -2.6752710     1.9656290    -0.4028710
  H        2.2847230    -0.2144000    -1.5438430
  H        2.8717410     1.3343490    -0.8997070
  H        3.8959980    -0.1107530    -0.8084670
  H       -1.9473126    -1.3689715    -0.4812405
units angstrom
no_reorient  #important for SAPT in psi4, default
symmetry c1  #important for SAPT in psi4, default
}

set PROPERTIES_ORIGIN ["COM"]
properties('MP2/aug-cc-pvtz', properties = ['dipole'])
--------------------------------------------------------------------------

    Molecular point group: c1
  Charge       = 0
  Multiplicity = 1
  Basis Set: AUG-CC-PVTZ
    Blend: AUG-CC-PVTZ
  Basis Set: (AUG-CC-PVTZ AUX)
    Blend: AUG-CC-PVTZ-JKFIT

    Orbital Energies [Eh]
    ---------------------

    Doubly Occupied:

       1A    -20.548974     2A    -20.533743     3A    -15.599084
       4A    -11.359224     5A    -11.298116     6A    -11.274245
       7A    -11.231430     8A    -11.223421     9A     -1.399421
      10A     -1.347142    11A     -1.246239    12A     -1.053055
      13A     -1.012218    14A     -0.904080    15A     -0.849462
      16A     -0.794206    17A     -0.745685    18A     -0.676662
      19A     -0.647392    20A     -0.641752    21A     -0.613675
      22A     -0.597963    23A     -0.575713    24A     -0.563420
      25A     -0.543648    26A     -0.533653    27A     -0.521545
      28A     -0.516046    29A     -0.502390    30A     -0.444376
      31A     -0.438073    32A     -0.403768

  @DF-RHF Final Energy:  -400.08747511640939

   => Energetics <=

    Nuclear Repulsion Energy =            400.7974900370638238
    One-Electron Energy =               -1340.4902838834057093
    Two-Electron Energy =                 539.6053187299323781
    Total Energy =                       -400.0874751164094505
  Basis Set: (AUG-CC-PVTZ AUX)
    Blend: AUG-CC-PVTZ-RI
    Molecular point group: c1

    Geometry (in Angstrom), charge = 0, multiplicity = 1:

       Center              X                  Y                   Z               Mass
    ------------   -----------------  -----------------  -----------------  -----------------
         O           -2.493529356978    -0.619840614305    -0.153224138682    15.994914619570
         O           -0.007984356978    -1.404336614305    -0.380184138682    15.994914619570
         N            0.883583643022     0.369274385695     0.734640861318    14.003074004430
         C           -1.532350656978     0.294782485695     0.329694261318    12.000000000000
         C            2.255978643022    -0.100370614305     0.603847861318    12.000000000000
         C           -0.150042356978    -0.317931614305     0.198501861318    12.000000000000
         C           -1.646837356978     1.605559385695    -0.450302138682    12.000000000000
         C            2.864834643022     0.252992385695    -0.745866138682    12.000000000000
         H           -1.733238356978     0.493141385695     1.400098861318     1.007825032230
         H            2.832647643022     0.332882385695     1.425677861318     1.007825032230
         H            2.238986643022    -1.183915614305     0.738726861318     1.007825032230
         H            0.708674643022     1.277764385695     1.143202861318     1.007825032230
         H           -1.392336356978     1.421234385695    -1.496861138682     1.007825032230
         H           -0.987724356978     2.384862385695    -0.054525138682     1.007825032230
         H           -2.676259356978     1.966385385695    -0.402562138682     1.007825032230
         H            2.283734643022    -0.213643614305    -1.543534138682     1.007825032230
         H            2.870752643022     1.335105385695    -0.899398138682     1.007825032230
         H            3.895009643022    -0.109996614305    -0.808158138682     1.007825032230
         H           -1.948300956978    -1.368215114305    -0.480931638682     1.007825032230

  Basis Set: AUG-CC-PVTZ
    Blend: AUG-CC-PVTZ
  Basis Set: (AUG-CC-PVTZ AUX)
    Blend: AUG-CC-PVTZ-JKFIT
	 Reference Energy          =    -400.0874751164093936 [Eh]
	 Singles Energy            =      -0.0000000000000000 [Eh]
	 Same-Spin Energy          =      -0.4021947906636615 [Eh]
	 Opposite-Spin Energy      =      -1.3078129592132819 [Eh]
	 Correlation Energy        =      -1.7100077498769433 [Eh]
	 Total Energy              =    -401.7974828662863160 [Eh]

	 ================> DF-SCS-MP2 Energies <==================
	-----------------------------------------------------------
	 SCS Same-Spin Scale       =       0.3333333333333333 [-]
	 SCS Opposite-Spin Scale   =       1.2000000000000000 [-]
	 SCS Same-Spin Energy      =      -0.1340649302212205 [Eh]
	 SCS Opposite-Spin Energy  =      -1.5693755510559382 [Eh]
	 SCS Correlation Energy    =      -1.7034404812771586 [Eh]
	 SCS Total Energy          =    -401.7909155976865350 [Eh]
	-----------------------------------------------------------

  Dipole Moment: [D]
     X:     2.9136      Y:     3.1486      Z:     1.5612     Total:     4.5651

*** Psi4 exiting successfully. Buy a developer a beer!
