                               Psi4 1.3.2 release

  ==> Input File <==

--------------------------------------------------------------------------
#psi4
#
memory 32 gb

molecule  {
0 1
  O       -2.4925410    -0.6205970    -0.1535330
  O       -0.0069960    -1.4050930    -0.3804930
  N        0.8541531     0.4018258     0.7482069
  C       -1.5185266     0.3428763     0.3586667
  C        2.2569670    -0.1011270     0.6035390
  C       -0.1490540    -0.3186880     0.1981930
  C       -1.6458490     1.6048030    -0.4506110
  C        2.8658230     0.2522360    -0.7461750
  H       -1.7322500     0.4923850     1.3997900
  H        2.8336360     0.3321260     1.4253690
  H        2.2399750    -1.1846720     0.7384180
  H        0.7096630     1.2770080     1.1428940
  H       -1.3913480     1.4204780    -1.4971700
  H       -0.9867360     2.3841060    -0.0548340
  H       -2.6752710     1.9656290    -0.4028710
  H        2.2847230    -0.2144000    -1.5438430
  H        2.8717410     1.3343490    -0.8997070
  H        3.8959980    -0.1107530    -0.8084670
  H       -1.9544520    -1.3731060    -0.4835650
units angstrom
no_reorient  #important for SAPT in psi4, default
symmetry c1  #important for SAPT in psi4, default
}

set PROPERTIES_ORIGIN ["COM"]
properties('MP2/aug-cc-pvtz', properties = ['dipole'])
--------------------------------------------------------------------------

    Molecular point group: c1
  Charge       = 0
  Multiplicity = 1
  Basis Set: AUG-CC-PVTZ
    Blend: AUG-CC-PVTZ
  Basis Set: (AUG-CC-PVTZ AUX)
    Blend: AUG-CC-PVTZ-JKFIT

    Orbital Energies [Eh]
    ---------------------

    Doubly Occupied:

       1A    -20.541419     2A    -20.536363     3A    -15.596859
       4A    -11.361207     5A    -11.295217     6A    -11.277641
       7A    -11.231323     8A    -11.225201     9A     -1.394538
      10A     -1.327966    11A     -1.246078    12A     -1.055568
      13A     -1.016414    14A     -0.902792    15A     -0.848388
      16A     -0.806714    17A     -0.737638    18A     -0.673247
      19A     -0.642528    20A     -0.640290    21A     -0.612803
      22A     -0.600705    23A     -0.573962    24A     -0.563090
      25A     -0.539295    26A     -0.531998    27A     -0.522826
      28A     -0.510113    29A     -0.501638    30A     -0.448648
      31A     -0.436498    32A     -0.407873

  @DF-RHF Final Energy:  -400.08116884183687

   => Energetics <=

    Nuclear Repulsion Energy =            399.9599342538082851
    One-Electron Energy =               -1338.8685236869118853
    Two-Electron Energy =                 538.8274205912666730
    Total Energy =                       -400.0811688418368703
  Basis Set: (AUG-CC-PVTZ AUX)
    Blend: AUG-CC-PVTZ-RI
    Molecular point group: c1

    Geometry (in Angstrom), charge = 0, multiplicity = 1:

       Center              X                  Y                   Z               Mass
    ------------   -----------------  -----------------  -----------------  -----------------
         O           -2.491145282764    -0.628795656006    -0.157864802349    15.994914619570
         O           -0.005600282764    -1.413291656006    -0.384824802349    15.994914619570
         N            0.855548817236     0.393627143994     0.743875097651    14.003074004430
         C           -1.517130882764     0.334677643994     0.354334897651    12.000000000000
         C            2.258362717236    -0.109325656006     0.599207197651    12.000000000000
         C           -0.147658282764    -0.326886656006     0.193861197651    12.000000000000
         C           -1.644453282764     1.596604343994    -0.454942802349    12.000000000000
         C            2.867218717236     0.244037343994    -0.750506802349    12.000000000000
         H           -1.730854282764     0.484186343994     1.395458197651     1.007825032230
         H            2.835031717236     0.323927343994     1.421037197651     1.007825032230
         H            2.241370717236    -1.192870656006     0.734086197651     1.007825032230
         H            0.711058717236     1.268809343994     1.138562197651     1.007825032230
         H           -1.389952282764     1.412279343994    -1.501501802349     1.007825032230
         H           -0.985340282764     2.375907343994    -0.059165802349     1.007825032230
         H           -2.673875282764     1.957430343994    -0.407202802349     1.007825032230
         H            2.286118717236    -0.222598656006    -1.548174802349     1.007825032230
         H            2.873136717236     1.326150343994    -0.904038802349     1.007825032230
         H            3.897393717236    -0.118951656006    -0.812798802349     1.007825032230
         H           -1.953056282764    -1.381304656006    -0.487896802349     1.007825032230

  Basis Set: AUG-CC-PVTZ
    Blend: AUG-CC-PVTZ
  Basis Set: (AUG-CC-PVTZ AUX)
    Blend: AUG-CC-PVTZ-JKFIT
	 Reference Energy          =    -400.0811688418368703 [Eh]
	 Singles Energy            =      -0.0000000000000000 [Eh]
	 Same-Spin Energy          =      -0.4020148988716622 [Eh]
	 Opposite-Spin Energy      =      -1.3086176910574918 [Eh]
	 Correlation Energy        =      -1.7106325899291539 [Eh]
	 Total Energy              =    -401.7918014317660322 [Eh]

	 ================> DF-SCS-MP2 Energies <==================
	-----------------------------------------------------------
	 SCS Same-Spin Scale       =       0.3333333333333333 [-]
	 SCS Opposite-Spin Scale   =       1.2000000000000000 [-]
	 SCS Same-Spin Energy      =      -0.1340049662905541 [Eh]
	 SCS Opposite-Spin Energy  =      -1.5703412292689902 [Eh]
	 SCS Correlation Energy    =      -1.7043461955595443 [Eh]
	 SCS Total Energy          =    -401.7855150373964079 [Eh]
	-----------------------------------------------------------

  Dipole Moment: [D]
     X:     3.1068      Y:     3.2237      Z:     1.5795     Total:     4.7475

*** Psi4 exiting successfully. Buy a developer a beer!
