                               Psi4 1.3.2 release

  ==> Input File <==

--------------------------------------------------------------------------
#psi4
#
memory 32 gb

molecule  {
0 1
  O       -2.4925410    -0.6205970    -0.1535330
  O       -0.0069960    -1.4050930    -0.3804930
  N        0.8845720     0.3685180     0.7343320
  C       -1.5404070     0.3017530     0.3325960
  C        2.2306507    -0.1608649     0.5641343
  C       -0.1025332    -0.3664222     0.1743623
  C       -1.6458490     1.6048030    -0.4506110
  C        2.8658230     0.2522360    -0.7461750
  H       -1.7322500     0.4923850     1.3997900
  H        2.8336360     0.3321260     1.4253690
  H        2.2399750    -1.1846720     0.7384180
  H        0.7096630     1.2770080     1.1428940
  H       -1.3913480     1.4204780    -1.4971700
  H       -0.9867360     2.3841060    -0.0548340
  H       -2.6752710     1.9656290    -0.4028710
  H        2.2847230    -0.2144000    -1.5438430
  H        2.8717410     1.3343490    -0.8997070
  H        3.8959980    -0.1107530    -0.8084670
  H       -1.9544520    -1.3731060    -0.4835650
units angstrom
no_reorient  #important for SAPT in psi4, default
symmetry c1  #important for SAPT in psi4, default
}

set PROPERTIES_ORIGIN ["COM"]
properties('MP2/aug-cc-pvtz', properties = ['dipole'])
--------------------------------------------------------------------------

    Molecular point group: c1
  Charge       = 0
  Multiplicity = 1
  Basis Set: AUG-CC-PVTZ
    Blend: AUG-CC-PVTZ
  Basis Set: (AUG-CC-PVTZ AUX)
    Blend: AUG-CC-PVTZ-JKFIT

    Orbital Energies [Eh]
    ---------------------

    Doubly Occupied:

       1A    -20.546079     2A    -20.542408     3A    -15.595027
       4A    -11.354140     5A    -11.293176     6A    -11.273864
       7A    -11.226921     8A    -11.223796     9A     -1.430443
      10A     -1.349267    11A     -1.251046    12A     -1.045055
      13A     -1.009933    14A     -0.892783    15A     -0.842267
      16A     -0.801588    17A     -0.739952    18A     -0.683042
      19A     -0.651876    20A     -0.644863    21A     -0.613273
      22A     -0.605955    23A     -0.576782    24A     -0.561378
      25A     -0.546150    26A     -0.534502    27A     -0.530682
      28A     -0.522701    29A     -0.497690    30A     -0.442973
      31A     -0.423451    32A     -0.407287

  @DF-RHF Final Energy:  -400.07768598746384

   => Energetics <=

    Nuclear Repulsion Energy =            401.4055899796792914
    One-Electron Energy =               -1341.6458505495709232
    Two-Electron Energy =                 540.1625745824278511
    Total Energy =                       -400.0776859874638376
  Basis Set: (AUG-CC-PVTZ AUX)
    Blend: AUG-CC-PVTZ-RI
    Molecular point group: c1

    Geometry (in Angstrom), charge = 0, multiplicity = 1:

       Center              X                  Y                   Z               Mass
    ------------   -----------------  -----------------  -----------------  -----------------
         O           -2.494611723219    -0.609581648375    -0.147051892409    15.994914619570
         O           -0.009066723219    -1.394077648375    -0.374011892409    15.994914619570
         N            0.882501276781     0.379533351625     0.740813107591    14.003074004430
         C           -1.542477723219     0.312768351625     0.339077107591    12.000000000000
         C            2.228579976781    -0.149849548375     0.570615407591    12.000000000000
         C           -0.104603923219    -0.355406848375     0.180843407591    12.000000000000
         C           -1.647919723219     1.615818351625    -0.444129892409    12.000000000000
         C            2.863752276781     0.263251351625    -0.739693892409    12.000000000000
         H           -1.734320723219     0.503400351625     1.406271107591     1.007825032230
         H            2.831565276781     0.343141351625     1.431850107591     1.007825032230
         H            2.237904276781    -1.173656648375     0.744899107591     1.007825032230
         H            0.707592276781     1.288023351625     1.149375107591     1.007825032230
         H           -1.393418723219     1.431493351625    -1.490688892409     1.007825032230
         H           -0.988806723219     2.395121351625    -0.048352892409     1.007825032230
         H           -2.677341723219     1.976644351625    -0.396389892409     1.007825032230
         H            2.282652276781    -0.203384648375    -1.537361892409     1.007825032230
         H            2.869670276781     1.345364351625    -0.893225892409     1.007825032230
         H            3.893927276781    -0.099737648375    -0.801985892409     1.007825032230
         H           -1.956522723219    -1.362090648375    -0.477083892409     1.007825032230

  Basis Set: AUG-CC-PVTZ
    Blend: AUG-CC-PVTZ
  Basis Set: (AUG-CC-PVTZ AUX)
    Blend: AUG-CC-PVTZ-JKFIT
	 Reference Energy          =    -400.0776859874638376 [Eh]
	 Singles Energy            =      -0.0000000000000000 [Eh]
	 Same-Spin Energy          =      -0.4010694399978383 [Eh]
	 Opposite-Spin Energy      =      -1.3057306358854492 [Eh]
	 Correlation Energy        =      -1.7068000758832875 [Eh]
	 Total Energy              =    -401.7844860633471171 [Eh]

	 ================> DF-SCS-MP2 Energies <==================
	-----------------------------------------------------------
	 SCS Same-Spin Scale       =       0.3333333333333333 [-]
	 SCS Opposite-Spin Scale   =       1.2000000000000000 [-]
	 SCS Same-Spin Energy      =      -0.1336898133326128 [Eh]
	 SCS Opposite-Spin Energy  =      -1.5668767630625391 [Eh]
	 SCS Correlation Energy    =      -1.7005665763951519 [Eh]
	 SCS Total Energy          =    -401.7782525638589846 [Eh]
	-----------------------------------------------------------

  Dipole Moment: [D]
     X:     3.0074      Y:     2.8261      Z:     1.4061     Total:     4.3599

*** Psi4 exiting successfully. Buy a developer a beer!
