                               Psi4 1.4a3.dev225

  ==> Input File <==

--------------------------------------------------------------------------
#psi4
#
memory 32 gb

molecule  {
0 1
  O       -2.5334200    -0.7491890    -0.0380440
  O       -0.0309920    -1.3916750    -0.5246560
  N        0.8474210     0.2516040     0.7908210
  C       -1.5793960     0.2040340     0.3844480
  C        2.2488939    -0.1578753     0.5600243
  C       -0.1821000    -0.3862620     0.1848690
  C       -1.7305020     1.4971750    -0.4144490
  C        2.7876300     0.3918150    -0.7462470
  H       -1.7371730     0.4054880     1.4537200
  H        2.8183710     0.1913570     1.4185970
  H        2.2480760    -1.2444890     0.5585260
  H        0.6595560     1.1005830     1.3085070
  H       -1.5202540     1.2971370    -1.4686150
  H       -1.0543700     2.2823790    -0.0604110
  H       -2.7592110     1.8535180    -0.3272230
  H        2.1936920     0.0168210    -1.5822170
  H        2.7616940     1.4848860    -0.7566670
  H        3.8242090     0.0700520    -0.8849050
  H       -2.0046360    -1.4186050    -0.5240660
units angstrom
no_reorient  #important for SAPT in psi4, default
symmetry c1  #important for SAPT in psi4, default
}

set PROPERTIES_ORIGIN ["COM"]
properties('MP2/aug-cc-pvtz', properties = ['dipole'])
--------------------------------------------------------------------------

    Molecular point group: c1
  Charge       = 0
  Multiplicity = 1
  Basis Set: AUG-CC-PVTZ
    Blend: AUG-CC-PVTZ
  Basis Set: (AUG-CC-PVTZ AUX)
    Blend: AUG-CC-PVTZ-JKFIT

    Orbital Energies [Eh]
    ---------------------

    Doubly Occupied:

       1A    -20.549017     2A    -20.532072     3A    -15.598120
       4A    -11.358292     5A    -11.297957     6A    -11.275142
       7A    -11.230256     8A    -11.224465     9A     -1.396106
      10A     -1.346025    11A     -1.240479    12A     -1.051929
      13A     -1.013986    14A     -0.901008    15A     -0.848750
      16A     -0.792004    17A     -0.744801    18A     -0.672984
      19A     -0.644126    20A     -0.636457    21A     -0.615097
      22A     -0.598304    23A     -0.580836    24A     -0.564239
      25A     -0.541615    26A     -0.532716    27A     -0.522668
      28A     -0.512373    29A     -0.505199    30A     -0.446770
      31A     -0.432894    32A     -0.404019

  @DF-RHF Final Energy:  -400.08729906375345

   => Energetics <=

    Nuclear Repulsion Energy =            400.1083234419749601
    One-Electron Energy =               -1339.1698335719313491
    Two-Electron Energy =                 538.9742110662028836
    Total Energy =                       -400.0872990637534485
  Basis Set: (AUG-CC-PVTZ AUX)
    Blend: AUG-CC-PVTZ-RI
    Molecular point group: c1

    Geometry (in Angstrom), charge = 0, multiplicity = 1:

       Center              X                  Y                   Z               Mass
    ------------   -----------------  -----------------  -----------------  -----------------
         O           -2.489481304002    -0.697542805531    -0.045097438737    15.994914619570
         O            0.012946695998    -1.340028805531    -0.531709438737    15.994914619570
         N            0.891359695998     0.303250194469     0.783767561263    14.003074004430
         C           -1.535457304002     0.255680194469     0.377394561263    12.000000000000
         C            2.292832595998    -0.106229105531     0.552970861263    12.000000000000
         C           -0.138161304002    -0.334615805531     0.177815561263    12.000000000000
         C           -1.686563304002     1.548821194469    -0.421502438737    12.000000000000
         C            2.831568695998     0.443461194469    -0.753300438737    12.000000000000
         H           -1.693234304002     0.457134194469     1.446666561263     1.007825032230
         H            2.862309695998     0.243003194469     1.411543561263     1.007825032230
         H            2.292014695998    -1.192842805531     0.551472561263     1.007825032230
         H            0.703494695998     1.152229194469     1.301453561263     1.007825032230
         H           -1.476315304002     1.348783194469    -1.475668438737     1.007825032230
         H           -1.010431304002     2.334025194469    -0.067464438737     1.007825032230
         H           -2.715272304002     1.905164194469    -0.334276438737     1.007825032230
         H            2.237630695998     0.068467194469    -1.589270438737     1.007825032230
         H            2.805632695998     1.536532194469    -0.763720438737     1.007825032230
         H            3.868147695998     0.121698194469    -0.891958438737     1.007825032230
         H           -1.960697304002    -1.366958805531    -0.531119438737     1.007825032230

  Basis Set: AUG-CC-PVTZ
    Blend: AUG-CC-PVTZ
  Basis Set: (AUG-CC-PVTZ AUX)
    Blend: AUG-CC-PVTZ-JKFIT
	 Reference Energy          =    -400.0872990637534485 [Eh]
	 Singles Energy            =      -0.0000000000000000 [Eh]
	 Same-Spin Energy          =      -0.4019516169750426 [Eh]
	 Opposite-Spin Energy      =      -1.3078255819698992 [Eh]
	 Correlation Energy        =      -1.7097771989449417 [Eh]
	 Total Energy              =    -401.7970762626983969 [Eh]

	 ================> DF-SCS-MP2 Energies <==================
	-----------------------------------------------------------
	 SCS Same-Spin Scale       =       0.3333333333333333 [-]
	 SCS Opposite-Spin Scale   =       1.2000000000000000 [-]
	 SCS Same-Spin Energy      =      -0.1339838723250142 [Eh]
	 SCS Opposite-Spin Energy  =      -1.5693906983638790 [Eh]
	 SCS Correlation Energy    =      -1.7033745706888932 [Eh]
	 SCS Total Energy          =    -401.7906736344423280 [Eh]
	-----------------------------------------------------------

  Dipole Moment: [D]
     X:     2.9360      Y:     3.1292      Z:     1.6004     Total:     4.5796

*** Psi4 exiting successfully. Buy a developer a beer!
