                               Psi4 1.3.2 release

  ==> Input File <==

--------------------------------------------------------------------------
#psi4
#
memory 32 gb

molecule  {
0 1
  O       -2.4925410    -0.6205970    -0.1535330
  O       -0.0069960    -1.4050930    -0.3804930
  N        0.8845720     0.3685180     0.7343320
  C       -1.5961737     0.3466194     0.3510740
  C        2.2569670    -0.1011270     0.6035390
  C       -0.1490540    -0.3186880     0.1981930
  C       -1.6458490     1.6048030    -0.4506110
  C        2.8658230     0.2522360    -0.7461750
  H       -1.7322500     0.4923850     1.3997900
  H        2.8336360     0.3321260     1.4253690
  H        2.2399750    -1.1846720     0.7384180
  H        0.7096630     1.2770080     1.1428940
  H       -1.3913480     1.4204780    -1.4971700
  H       -0.9867360     2.3841060    -0.0548340
  H       -2.6752710     1.9656290    -0.4028710
  H        2.2847230    -0.2144000    -1.5438430
  H        2.8717410     1.3343490    -0.8997070
  H        3.8959980    -0.1107530    -0.8084670
  H       -1.9981297    -1.3966986    -0.4969780
units angstrom
no_reorient  #important for SAPT in psi4, default
symmetry c1  #important for SAPT in psi4, default
}

set PROPERTIES_ORIGIN ["COM"]
properties('MP2/aug-cc-pvtz', properties = ['dipole'])
--------------------------------------------------------------------------

    Molecular point group: c1
  Charge       = 0
  Multiplicity = 1
  Basis Set: AUG-CC-PVTZ
    Blend: AUG-CC-PVTZ
  Basis Set: (AUG-CC-PVTZ AUX)
    Blend: AUG-CC-PVTZ-JKFIT

    Orbital Energies [Eh]
    ---------------------

    Doubly Occupied:

       1A    -20.546125     2A    -20.531064     3A    -15.596952
       4A    -11.356975     5A    -11.299640     6A    -11.272457
       7A    -11.229832     8A    -11.222292     9A     -1.392052
      10A     -1.343719    11A     -1.242946    12A     -1.052227
      13A     -1.015824    14A     -0.895846    15A     -0.847966
      16A     -0.793180    17A     -0.738531    18A     -0.678566
      19A     -0.651144    20A     -0.639343    21A     -0.610905
      22A     -0.596025    23A     -0.586122    24A     -0.563246
      25A     -0.540698    26A     -0.536117    27A     -0.520146
      28A     -0.505590    29A     -0.499605    30A     -0.452605
      31A     -0.422498    32A     -0.401905

  @DF-RHF Final Energy:  -400.08240382483382

   => Energetics <=

    Nuclear Repulsion Energy =            399.6126669025655929
    One-Electron Energy =               -1338.2258552080756999
    Two-Electron Energy =                 538.5307844806762887
    Total Energy =                       -400.0824038248338184
  Basis Set: (AUG-CC-PVTZ AUX)
    Blend: AUG-CC-PVTZ-RI
    Molecular point group: c1

    Geometry (in Angstrom), charge = 0, multiplicity = 1:

       Center              X                  Y                   Z               Mass
    ------------   -----------------  -----------------  -----------------  -----------------
         O           -2.486449080438    -0.624992483084    -0.155311640268    15.994914619570
         O           -0.000904080438    -1.409488483084    -0.382271640268    15.994914619570
         N            0.890663919562     0.364122516916     0.732553359732    14.003074004430
         C           -1.590081780438     0.342223916916     0.349295359732    12.000000000000
         C            2.263058919562    -0.105522483084     0.601760359732    12.000000000000
         C           -0.142962080438    -0.323083483084     0.196414359732    12.000000000000
         C           -1.639757080438     1.600407516916    -0.452389640268    12.000000000000
         C            2.871914919562     0.247840516916    -0.747953640268    12.000000000000
         H           -1.726158080438     0.487989516916     1.398011359732     1.007825032230
         H            2.839727919562     0.327730516916     1.423590359732     1.007825032230
         H            2.246066919562    -1.189067483084     0.736639359732     1.007825032230
         H            0.715754919562     1.272612516916     1.141115359732     1.007825032230
         H           -1.385256080438     1.416082516916    -1.498948640268     1.007825032230
         H           -0.980644080438     2.379710516916    -0.056612640268     1.007825032230
         H           -2.669179080438     1.961233516916    -0.404649640268     1.007825032230
         H            2.290814919562    -0.218795483084    -1.545621640268     1.007825032230
         H            2.877832919562     1.329953516916    -0.901485640268     1.007825032230
         H            3.902089919562    -0.115148483084    -0.810245640268     1.007825032230
         H           -1.992037780438    -1.401094083084    -0.498756640268     1.007825032230

  Basis Set: AUG-CC-PVTZ
    Blend: AUG-CC-PVTZ
  Basis Set: (AUG-CC-PVTZ AUX)
    Blend: AUG-CC-PVTZ-JKFIT
	 Reference Energy          =    -400.0824038248338184 [Eh]
	 Singles Energy            =      -0.0000000000000000 [Eh]
	 Same-Spin Energy          =      -0.4020055435616599 [Eh]
	 Opposite-Spin Energy      =      -1.3075382170335463 [Eh]
	 Correlation Energy        =      -1.7095437605952062 [Eh]
	 Total Energy              =    -401.7919475854289999 [Eh]

	 ================> DF-SCS-MP2 Energies <==================
	-----------------------------------------------------------
	 SCS Same-Spin Scale       =       0.3333333333333333 [-]
	 SCS Opposite-Spin Scale   =       1.2000000000000000 [-]
	 SCS Same-Spin Energy      =      -0.1340018478538866 [Eh]
	 SCS Opposite-Spin Energy  =      -1.5690458604402555 [Eh]
	 SCS Correlation Energy    =      -1.7030477082941422 [Eh]
	 SCS Total Energy          =    -401.7854515331279686 [Eh]
	-----------------------------------------------------------

  Dipole Moment: [D]
     X:     2.8211      Y:     3.1495      Z:     1.5499     Total:     4.5033

*** Psi4 exiting successfully. Buy a developer a beer!
