                               Psi4 1.3.2 release

  ==> Input File <==

--------------------------------------------------------------------------
#psi4
#
memory 32 gb

molecule  {
0 1
  O       -2.4925410    -0.6205970    -0.1535330
  O       -0.0069960    -1.4050930    -0.3804930
  N        0.8845720     0.3685180     0.7343320
  C       -1.5404070     0.3017530     0.3325960
  C        2.1627359    -0.0688803     0.6125195
  C       -0.1490540    -0.3186880     0.1981930
  C       -1.6458490     1.6048030    -0.4506110
  C        2.8658230     0.2522360    -0.7461750
  H       -1.7322500     0.4923850     1.3997900
  H        2.8336360     0.3321260     1.4253690
  H        2.2399750    -1.1846720     0.7384180
  H        0.7096630     1.2770080     1.1428940
  H       -1.3913480     1.4204780    -1.4971700
  H       -0.9867360     2.3841060    -0.0548340
  H       -2.6752710     1.9656290    -0.4028710
  H        2.2847230    -0.2144000    -1.5438430
  H        2.8717410     1.3343490    -0.8997070
  H        3.8959980    -0.1107530    -0.8084670
  H       -1.9544520    -1.3731060    -0.4835650
units angstrom
no_reorient  #important for SAPT in psi4, default
symmetry c1  #important for SAPT in psi4, default
}

set PROPERTIES_ORIGIN ["COM"]
properties('MP2/aug-cc-pvtz', properties = ['dipole'])
--------------------------------------------------------------------------

    Molecular point group: c1
  Charge       = 0
  Multiplicity = 1
  Basis Set: AUG-CC-PVTZ
    Blend: AUG-CC-PVTZ
  Basis Set: (AUG-CC-PVTZ AUX)
    Blend: AUG-CC-PVTZ-JKFIT

    Orbital Energies [Eh]
    ---------------------

    Doubly Occupied:

       1A    -20.551064     2A    -20.538311     3A    -15.602955
       4A    -11.363332     5A    -11.301232     6A    -11.272293
       7A    -11.233435     8A    -11.220893     9A     -1.404310
      10A     -1.350614    11A     -1.270649    12A     -1.054003
      13A     -1.005138    14A     -0.910494    15A     -0.848828
      16A     -0.804134    17A     -0.747497    18A     -0.687942
      19A     -0.659017    20A     -0.644630    21A     -0.616484
      22A     -0.589709    23A     -0.580580    24A     -0.566266
      25A     -0.544720    26A     -0.535634    27A     -0.521083
      28A     -0.510188    29A     -0.488418    30A     -0.448073
      31A     -0.441126    32A     -0.397914

  @DF-RHF Final Energy:  -400.07662482691876

   => Energetics <=

    Nuclear Repulsion Energy =            402.1149511943656307
    One-Electron Energy =               -1342.9612205053272191
    Two-Electron Energy =                 540.7696444840428285
    Total Energy =                       -400.0766248269187599
  Basis Set: (AUG-CC-PVTZ AUX)
    Blend: AUG-CC-PVTZ-RI
    Molecular point group: c1

    Geometry (in Angstrom), charge = 0, multiplicity = 1:

       Center              X                  Y                   Z               Mass
    ------------   -----------------  -----------------  -----------------  -----------------
         O           -2.482882656085    -0.623902114953    -0.154453654966    15.994914619570
         O            0.002662343915    -1.408398114953    -0.381413654966    15.994914619570
         N            0.894230343915     0.365212885047     0.733411345034    14.003074004430
         C           -1.530748656085     0.298447885047     0.331675345034    12.000000000000
         C            2.172394243915    -0.072185414953     0.611598845034    12.000000000000
         C           -0.139395656085    -0.321993114953     0.197272345034    12.000000000000
         C           -1.636190656085     1.601497885047    -0.451531654966    12.000000000000
         C            2.875481343915     0.248930885047    -0.747095654966    12.000000000000
         H           -1.722591656085     0.489079885047     1.398869345034     1.007825032230
         H            2.843294343915     0.328820885047     1.424448345034     1.007825032230
         H            2.249633343915    -1.187977114953     0.737497345034     1.007825032230
         H            0.719321343915     1.273702885047     1.141973345034     1.007825032230
         H           -1.381689656085     1.417172885047    -1.498090654966     1.007825032230
         H           -0.977077656085     2.380800885047    -0.055754654966     1.007825032230
         H           -2.665612656085     1.962323885047    -0.403791654966     1.007825032230
         H            2.294381343915    -0.217705114953    -1.544763654966     1.007825032230
         H            2.881399343915     1.331043885047    -0.900627654966     1.007825032230
         H            3.905656343915    -0.114058114953    -0.809387654966     1.007825032230
         H           -1.944793656085    -1.376411114953    -0.484485654966     1.007825032230

  Basis Set: AUG-CC-PVTZ
    Blend: AUG-CC-PVTZ
  Basis Set: (AUG-CC-PVTZ AUX)
    Blend: AUG-CC-PVTZ-JKFIT
	 Reference Energy          =    -400.0766248269187599 [Eh]
	 Singles Energy            =      -0.0000000000000000 [Eh]
	 Same-Spin Energy          =      -0.4029644801895651 [Eh]
	 Opposite-Spin Energy      =      -1.3083911247051980 [Eh]
	 Correlation Energy        =      -1.7113556048947631 [Eh]
	 Total Energy              =    -401.7879804318135371 [Eh]

	 ================> DF-SCS-MP2 Energies <==================
	-----------------------------------------------------------
	 SCS Same-Spin Scale       =       0.3333333333333333 [-]
	 SCS Opposite-Spin Scale   =       1.2000000000000000 [-]
	 SCS Same-Spin Energy      =      -0.1343214933965217 [Eh]
	 SCS Opposite-Spin Energy  =      -1.5700693496462377 [Eh]
	 SCS Correlation Energy    =      -1.7043908430427595 [Eh]
	 SCS Total Energy          =    -401.7810156699615050 [Eh]
	-----------------------------------------------------------

  Dipole Moment: [D]
     X:     2.5553      Y:     3.1689      Z:     1.5924     Total:     4.3711

*** Psi4 exiting successfully. Buy a developer a beer!
