                               Psi4 1.3.2 release

  ==> Input File <==

--------------------------------------------------------------------------
#psi4
#
memory 32 gb

molecule  {
0 1
  O       -2.4925410    -0.6205970    -0.1535330
  O       -0.0069960    -1.4050930    -0.3804930
  N        0.8845720     0.3685180     0.7343320
  C       -1.5440182     0.3081812     0.3436641
  C        2.2569670    -0.1011270     0.6035390
  C       -0.1490540    -0.3186880     0.1981930
  C       -1.6458490     1.6048030    -0.4506110
  C        2.8658230     0.2522360    -0.7461750
  H       -1.7322500     0.4923850     1.3997900
  H        2.8336360     0.3321260     1.4253690
  H        2.2399750    -1.1846720     0.7384180
  H        0.7096630     1.2770080     1.1428940
  H       -1.3928384     1.4296941    -1.4991122
  H       -0.9867360     2.3841060    -0.0548340
  H       -2.6752710     1.9656290    -0.4028710
  H        2.2847230    -0.2144000    -1.5438430
  H        2.8717410     1.3343490    -0.8997070
  H        3.8959980    -0.1107530    -0.8084670
  H       -1.9544520    -1.3731060    -0.4835650
units angstrom
no_reorient  #important for SAPT in psi4, default
symmetry c1  #important for SAPT in psi4, default
}

set PROPERTIES_ORIGIN ["COM"]
properties('MP2/aug-cc-pvtz', properties = ['dipole'])
--------------------------------------------------------------------------

    Molecular point group: c1
  Charge       = 0
  Multiplicity = 1
  Basis Set: AUG-CC-PVTZ
    Blend: AUG-CC-PVTZ
  Basis Set: (AUG-CC-PVTZ AUX)
    Blend: AUG-CC-PVTZ-JKFIT

    Orbital Energies [Eh]
    ---------------------

    Doubly Occupied:

       1A    -20.547644     2A    -20.533473     3A    -15.598758
       4A    -11.359195     5A    -11.298059     6A    -11.273918
       7A    -11.231176     8A    -11.223240     9A     -1.397371
      10A     -1.344475    11A     -1.245744    12A     -1.052599
      13A     -1.012835    14A     -0.902349    15A     -0.849389
      16A     -0.794319    17A     -0.743814    18A     -0.676728
      19A     -0.648355    20A     -0.641076    21A     -0.613078
      22A     -0.597589    23A     -0.577158    24A     -0.563322
      25A     -0.542206    26A     -0.534427    27A     -0.521192
      28A     -0.513573    29A     -0.501974    30A     -0.447063
      31A     -0.435403    32A     -0.403613

  @DF-RHF Final Energy:  -400.08759286332764

   => Energetics <=

    Nuclear Repulsion Energy =            400.4409672192793437
    One-Electron Energy =               -1339.8068970970639384
    Two-Electron Energy =                 539.2783370144568380
    Total Energy =                       -400.0875928633276999
  Basis Set: (AUG-CC-PVTZ AUX)
    Blend: AUG-CC-PVTZ-RI
    Molecular point group: c1

    Geometry (in Angstrom), charge = 0, multiplicity = 1:

       Center              X                  Y                   Z               Mass
    ------------   -----------------  -----------------  -----------------  -----------------
         O           -2.492157905583    -0.621335182892    -0.154650904741    15.994914619570
         O           -0.006612905583    -1.405831182892    -0.381610904741    15.994914619570
         N            0.884955094417     0.367779817108     0.733214095259    14.003074004430
         C           -1.543635105583     0.307443017108     0.342546195259    12.000000000000
         C            2.257350094417    -0.101865182892     0.602421095259    12.000000000000
         C           -0.148670905583    -0.319426182892     0.197075095259    12.000000000000
         C           -1.645465905583     1.604064817108    -0.451728904741    12.000000000000
         C            2.866206094417     0.251497817108    -0.747292904741    12.000000000000
         H           -1.731866905583     0.491646817108     1.398672095259     1.007825032230
         H            2.834019094417     0.331387817108     1.424251095259     1.007825032230
         H            2.240358094417    -1.185410182892     0.737300095259     1.007825032230
         H            0.710046094417     1.276269817108     1.141776095259     1.007825032230
         H           -1.392455305583     1.428955917108    -1.500230104741     1.007825032230
         H           -0.986352905583     2.383367817108    -0.055951904741     1.007825032230
         H           -2.674887905583     1.964890817108    -0.403988904741     1.007825032230
         H            2.285106094417    -0.215138182892    -1.544960904741     1.007825032230
         H            2.872124094417     1.333610817108    -0.900824904741     1.007825032230
         H            3.896381094417    -0.111491182892    -0.809584904741     1.007825032230
         H           -1.954068905583    -1.373844182892    -0.484682904741     1.007825032230

  Basis Set: AUG-CC-PVTZ
    Blend: AUG-CC-PVTZ
  Basis Set: (AUG-CC-PVTZ AUX)
    Blend: AUG-CC-PVTZ-JKFIT
	 Reference Energy          =    -400.0875928633276430 [Eh]
	 Singles Energy            =      -0.0000000000000000 [Eh]
	 Same-Spin Energy          =      -0.4020770810762310 [Eh]
	 Opposite-Spin Energy      =      -1.3077228611123326 [Eh]
	 Correlation Energy        =      -1.7097999421885635 [Eh]
	 Total Energy              =    -401.7973928055162105 [Eh]

	 ================> DF-SCS-MP2 Energies <==================
	-----------------------------------------------------------
	 SCS Same-Spin Scale       =       0.3333333333333333 [-]
	 SCS Opposite-Spin Scale   =       1.2000000000000000 [-]
	 SCS Same-Spin Energy      =      -0.1340256936920770 [Eh]
	 SCS Opposite-Spin Energy  =      -1.5692674333347991 [Eh]
	 SCS Correlation Energy    =      -1.7032931270268761 [Eh]
	 SCS Total Energy          =    -401.7908859903545249 [Eh]
	-----------------------------------------------------------

  Dipole Moment: [D]
     X:     2.9142      Y:     3.1624      Z:     1.5761     Total:     4.5801

*** Psi4 exiting successfully. Buy a developer a beer!
