                               Psi4 1.3.2 release

  ==> Input File <==

--------------------------------------------------------------------------
#psi4
#
memory 32 gb

molecule  {
0 1
  O       -2.4925410    -0.6205970    -0.1535330
  O       -0.0069960    -1.4050930    -0.3804930
  N        0.8845720     0.3685180     0.7343320
  C       -1.5621852     0.3417932     0.3980805
  C        2.2569670    -0.1011270     0.6035390
  C       -0.1490540    -0.3186880     0.1981930
  C       -1.6458490     1.6048030    -0.4506110
  C        2.8658230     0.2522360    -0.7461750
  H       -1.7322500     0.4923850     1.3997900
  H        2.8336360     0.3321260     1.4253690
  H        2.2399750    -1.1846720     0.7384180
  H        0.7096630     1.2770080     1.1428940
  H       -1.4005773     1.4759606    -1.5076227
  H       -0.9867360     2.3841060    -0.0548340
  H       -2.6752710     1.9656290    -0.4028710
  H        2.2847230    -0.2144000    -1.5438430
  H        2.8717410     1.3343490    -0.8997070
  H        3.8959980    -0.1107530    -0.8084670
  H       -1.9544520    -1.3731060    -0.4835650
units angstrom
no_reorient  #important for SAPT in psi4, default
symmetry c1  #important for SAPT in psi4, default
}

set PROPERTIES_ORIGIN ["COM"]
properties('MP2/aug-cc-pvtz', properties = ['dipole'])
--------------------------------------------------------------------------

    Molecular point group: c1
  Charge       = 0
  Multiplicity = 1
  Basis Set: AUG-CC-PVTZ
    Blend: AUG-CC-PVTZ
  Basis Set: (AUG-CC-PVTZ AUX)
    Blend: AUG-CC-PVTZ-JKFIT

    Orbital Energies [Eh]
    ---------------------

    Doubly Occupied:

       1A    -20.543372     2A    -20.533937     3A    -15.598427
       4A    -11.360251     5A    -11.298270     6A    -11.273422
       7A    -11.232075     8A    -11.223044     9A     -1.393376
      10A     -1.333220    11A     -1.245430    12A     -1.052187
      13A     -1.013457    14A     -0.900826    15A     -0.852107
      16A     -0.795691    17A     -0.738766    18A     -0.677034
      19A     -0.650177    20A     -0.639546    21A     -0.611787
      22A     -0.597070    23A     -0.578562    24A     -0.562622
      25A     -0.538893    26A     -0.536785    27A     -0.520537
      28A     -0.508054    29A     -0.500274    30A     -0.451587
      31A     -0.430677    32A     -0.403728

  @DF-RHF Final Energy:  -400.07916963281235

   => Energetics <=

    Nuclear Repulsion Energy =            399.4997088387574422
    One-Electron Energy =               -1337.9673775599460441
    Two-Electron Energy =                 538.3884990883761930
    Total Energy =                       -400.0791696328124090
  Basis Set: (AUG-CC-PVTZ AUX)
    Blend: AUG-CC-PVTZ-RI
    Molecular point group: c1

    Geometry (in Angstrom), charge = 0, multiplicity = 1:

       Center              X                  Y                   Z               Mass
    ------------   -----------------  -----------------  -----------------  -----------------
         O           -2.490229263398    -0.625178507649    -0.160155050001    15.994914619570
         O           -0.004684263398    -1.409674507649    -0.387115050001    15.994914619570
         N            0.886883736602     0.363936492351     0.727709949999    14.003074004430
         C           -1.559873463398     0.337211692351     0.391458449999    12.000000000000
         C            2.259278736602    -0.105708507649     0.596916949999    12.000000000000
         C           -0.146742263398    -0.323269507649     0.191570949999    12.000000000000
         C           -1.643537263398     1.600221492351    -0.457233050001    12.000000000000
         C            2.868134736602     0.247654492351    -0.752797050001    12.000000000000
         H           -1.729938263398     0.487803492351     1.393167949999     1.007825032230
         H            2.835947736602     0.327544492351     1.418746949999     1.007825032230
         H            2.242286736602    -1.189253507649     0.731795949999     1.007825032230
         H            0.711974736602     1.272426492351     1.136271949999     1.007825032230
         H           -1.398265563398     1.471379092351    -1.514244750001     1.007825032230
         H           -0.984424263398     2.379524492351    -0.061456050001     1.007825032230
         H           -2.672959263398     1.961047492351    -0.409493050001     1.007825032230
         H            2.287034736602    -0.218981507649    -1.550465050001     1.007825032230
         H            2.874052736602     1.329767492351    -0.906329050001     1.007825032230
         H            3.898309736602    -0.115334507649    -0.815089050001     1.007825032230
         H           -1.952140263398    -1.377687507649    -0.490187050001     1.007825032230

  Basis Set: AUG-CC-PVTZ
    Blend: AUG-CC-PVTZ
  Basis Set: (AUG-CC-PVTZ AUX)
    Blend: AUG-CC-PVTZ-JKFIT
	 Reference Energy          =    -400.0791696328123521 [Eh]
	 Singles Energy            =      -0.0000000000000000 [Eh]
	 Same-Spin Energy          =      -0.4020699352937531 [Eh]
	 Opposite-Spin Energy      =      -1.3083839662938448 [Eh]
	 Correlation Energy        =      -1.7104539015875979 [Eh]
	 Total Energy              =    -401.7896235343999365 [Eh]

	 ================> DF-SCS-MP2 Energies <==================
	-----------------------------------------------------------
	 SCS Same-Spin Scale       =       0.3333333333333333 [-]
	 SCS Opposite-Spin Scale   =       1.2000000000000000 [-]
	 SCS Same-Spin Energy      =      -0.1340233117645844 [Eh]
	 SCS Opposite-Spin Energy  =      -1.5700607595526137 [Eh]
	 SCS Correlation Energy    =      -1.7040840713171981 [Eh]
	 SCS Total Energy          =    -401.7832537041295495 [Eh]
	-----------------------------------------------------------

  Dipole Moment: [D]
     X:     2.9717      Y:     3.2339      Z:     1.6437     Total:     4.6894

*** Psi4 exiting successfully. Buy a developer a beer!
