                               Psi4 1.4a3.dev225

  ==> Input File <==

--------------------------------------------------------------------------
#psi4
#
memory 32 gb

molecule  {
0 1
  O       -2.5334200    -0.7491890    -0.0380440
  O       -0.0309920    -1.3916750    -0.5246560
  N        0.8474210     0.2516040     0.7908210
  C       -1.5793960     0.2040340     0.3844480
  C        2.2299320    -0.1523350     0.5631470
  C       -0.1821000    -0.3862620     0.1848690
  C       -1.7305020     1.4971750    -0.4144490
  C        2.7876300     0.3918150    -0.7462470
  H       -1.7371730     0.4054880     1.4537200
  H        2.8183710     0.1913570     1.4185970
  H        2.2480760    -1.2444890     0.5585260
  H        0.6632689     1.0838040     1.2982756
  H       -1.5202540     1.2971370    -1.4686150
  H       -1.0543700     2.2823790    -0.0604110
  H       -2.7592110     1.8535180    -0.3272230
  H        2.1936920     0.0168210    -1.5822170
  H        2.7616940     1.4848860    -0.7566670
  H        3.8242090     0.0700520    -0.8849050
  H       -2.0046360    -1.4186050    -0.5240660
units angstrom
no_reorient  #important for SAPT in psi4, default
symmetry c1  #important for SAPT in psi4, default
}

set PROPERTIES_ORIGIN ["COM"]
properties('MP2/aug-cc-pvtz', properties = ['dipole'])
--------------------------------------------------------------------------

    Molecular point group: c1
  Charge       = 0
  Multiplicity = 1
  Basis Set: AUG-CC-PVTZ
    Blend: AUG-CC-PVTZ
  Basis Set: (AUG-CC-PVTZ AUX)
    Blend: AUG-CC-PVTZ-JKFIT

    Orbital Energies [Eh]
    ---------------------

    Doubly Occupied:

       1A    -20.549613     2A    -20.533114     3A    -15.597308
       4A    -11.359257     5A    -11.298683     6A    -11.274400
       7A    -11.230782     8A    -11.223992     9A     -1.397356
      10A     -1.346901    11A     -1.247172    12A     -1.051869
      13A     -1.013218    14A     -0.902582    15A     -0.848872
      16A     -0.798333    17A     -0.745715    18A     -0.675110
      19A     -0.646096    20A     -0.637745    21A     -0.614730
      22A     -0.598674    23A     -0.581529    24A     -0.564658
      25A     -0.541974    26A     -0.532965    27A     -0.521687
      28A     -0.513392    29A     -0.503020    30A     -0.447420
      31A     -0.434017    32A     -0.404088

  @DF-RHF Final Energy:  -400.08807092288191

   => Energetics <=

    Nuclear Repulsion Energy =            400.5086155083288304
    One-Electron Energy =               -1339.9208274852389877
    Two-Electron Energy =                 539.3241410540282459
    Total Energy =                       -400.0880709228819114
  Basis Set: (AUG-CC-PVTZ AUX)
    Blend: AUG-CC-PVTZ-RI
    Molecular point group: c1

    Geometry (in Angstrom), charge = 0, multiplicity = 1:

       Center              X                  Y                   Z               Mass
    ------------   -----------------  -----------------  -----------------  -----------------
         O           -2.487569766601    -0.697966223162    -0.045329426915    15.994914619570
         O            0.014858233399    -1.340452223162    -0.531941426915    15.994914619570
         N            0.893271233399     0.302826776838     0.783535573085    14.003074004430
         C           -1.533545766601     0.255256776838     0.377162573085    12.000000000000
         C            2.275782233399    -0.101112223162     0.555861573085    12.000000000000
         C           -0.136249766601    -0.335039223162     0.177583573085    12.000000000000
         C           -1.684651766601     1.548397776838    -0.421734426915    12.000000000000
         C            2.833480233399     0.443037776838    -0.753532426915    12.000000000000
         H           -1.691322766601     0.456710776838     1.446434573085     1.007825032230
         H            2.864221233399     0.242579776838     1.411311573085     1.007825032230
         H            2.293926233399    -1.193266223162     0.551240573085     1.007825032230
         H            0.709119133399     1.135026776838     1.290990173085     1.007825032230
         H           -1.474403766601     1.348359776838    -1.475900426915     1.007825032230
         H           -1.008519766601     2.333601776838    -0.067696426915     1.007825032230
         H           -2.713360766601     1.904740776838    -0.334508426915     1.007825032230
         H            2.239542233399     0.068043776838    -1.589502426915     1.007825032230
         H            2.807544233399     1.536108776838    -0.763952426915     1.007825032230
         H            3.870059233399     0.121274776838    -0.892190426915     1.007825032230
         H           -1.958785766601    -1.367382223162    -0.531351426915     1.007825032230

  Basis Set: AUG-CC-PVTZ
    Blend: AUG-CC-PVTZ
  Basis Set: (AUG-CC-PVTZ AUX)
    Blend: AUG-CC-PVTZ-JKFIT
	 Reference Energy          =    -400.0880709228819114 [Eh]
	 Singles Energy            =      -0.0000000000000000 [Eh]
	 Same-Spin Energy          =      -0.4018661855664243 [Eh]
	 Opposite-Spin Energy      =      -1.3074445643827530 [Eh]
	 Correlation Energy        =      -1.7093107499491773 [Eh]
	 Total Energy              =    -401.7973816728310794 [Eh]

	 ================> DF-SCS-MP2 Energies <==================
	-----------------------------------------------------------
	 SCS Same-Spin Scale       =       0.3333333333333333 [-]
	 SCS Opposite-Spin Scale   =       1.2000000000000000 [-]
	 SCS Same-Spin Energy      =      -0.1339553951888081 [Eh]
	 SCS Opposite-Spin Energy  =      -1.5689334772593035 [Eh]
	 SCS Correlation Energy    =      -1.7028888724481117 [Eh]
	 SCS Total Energy          =    -401.7909597953300249 [Eh]
	-----------------------------------------------------------

  Dipole Moment: [D]
     X:     2.8655      Y:     3.1170      Z:     1.5999     Total:     4.5262

*** Psi4 exiting successfully. Buy a developer a beer!
