                               Psi4 1.3.2 release

  ==> Input File <==

--------------------------------------------------------------------------
#psi4
#
memory 32 gb

molecule  {
0 1
  O       -2.4925410    -0.6205970    -0.1535330
  O       -0.0069960    -1.4050930    -0.3804930
  N        0.8845720     0.3685180     0.7343320
  C       -1.5404070     0.3017530     0.3325960
  C        2.2569670    -0.1011270     0.6035390
  C       -0.1490540    -0.3186880     0.1981930
  C       -1.6624546     1.6421891    -0.3821109
  C        2.8658230     0.2522360    -0.7461750
  H       -1.7398297     0.5480556     1.3869266
  H        2.8336360     0.3321260     1.4253690
  H        2.2399750    -1.1846720     0.7384180
  H        0.7096630     1.2770080     1.1428940
  H       -1.3913480     1.4204780    -1.4971700
  H       -0.9867360     2.3841060    -0.0548340
  H       -2.6752710     1.9656290    -0.4028710
  H        2.2847230    -0.2144000    -1.5438430
  H        2.8717410     1.3343490    -0.8997070
  H        3.8959980    -0.1107530    -0.8084670
  H       -1.9544520    -1.3731060    -0.4835650
units angstrom
no_reorient  #important for SAPT in psi4, default
symmetry c1  #important for SAPT in psi4, default
}

set PROPERTIES_ORIGIN ["COM"]
properties('MP2/aug-cc-pvtz', properties = ['dipole'])
--------------------------------------------------------------------------

    Molecular point group: c1
  Charge       = 0
  Multiplicity = 1
  Basis Set: AUG-CC-PVTZ
    Blend: AUG-CC-PVTZ
  Basis Set: (AUG-CC-PVTZ AUX)
    Blend: AUG-CC-PVTZ-JKFIT

    Orbital Energies [Eh]
    ---------------------

    Doubly Occupied:

       1A    -20.550695     2A    -20.534290     3A    -15.599473
       4A    -11.360677     5A    -11.298982     6A    -11.274312
       7A    -11.231618     8A    -11.223406     9A     -1.398992
      10A     -1.347414    11A     -1.246403    12A     -1.053823
      13A     -1.013940    14A     -0.902985    15A     -0.848921
      16A     -0.794496    17A     -0.746049    18A     -0.677055
      19A     -0.648862    20A     -0.641793    21A     -0.614408
      22A     -0.599722    23A     -0.579660    24A     -0.576252
      25A     -0.541944    26A     -0.522880    27A     -0.522090
      28A     -0.510936    29A     -0.502628    30A     -0.442238
      31A     -0.437714    32A     -0.403680

  @DF-RHF Final Energy:  -400.08020683135436

   => Energetics <=

    Nuclear Repulsion Energy =            400.3184000636031783
    One-Electron Energy =               -1339.5005367236733491
    Two-Electron Energy =                 539.1019298287158108
    Total Energy =                       -400.0802068313544169
  Basis Set: (AUG-CC-PVTZ AUX)
    Blend: AUG-CC-PVTZ-RI
    Molecular point group: c1

    Geometry (in Angstrom), charge = 0, multiplicity = 1:

       Center              X                  Y                   Z               Mass
    ------------   -----------------  -----------------  -----------------  -----------------
         O           -2.490773628483    -0.624908094212    -0.160443382173    15.994914619570
         O           -0.005228628483    -1.409404094212    -0.387403382173    15.994914619570
         N            0.886339371517     0.364206905788     0.727421617827    14.003074004430
         C           -1.538639628483     0.297441905788     0.325685617827    12.000000000000
         C            2.258734371517    -0.105438094212     0.596628617827    12.000000000000
         C           -0.147286628483    -0.322999094212     0.191282617827    12.000000000000
         C           -1.660687228483     1.637878005788    -0.389021282173    12.000000000000
         C            2.867590371517     0.247924905788    -0.753085382173    12.000000000000
         H           -1.738062328483     0.543744505788     1.380016217827     1.007825032230
         H            2.835403371517     0.327814905788     1.418458617827     1.007825032230
         H            2.241742371517    -1.188983094212     0.731507617827     1.007825032230
         H            0.711430371517     1.272696905788     1.135983617827     1.007825032230
         H           -1.389580628483     1.416166905788    -1.504080382173     1.007825032230
         H           -0.984968628483     2.379794905788    -0.061744382173     1.007825032230
         H           -2.673503628483     1.961317905788    -0.409781382173     1.007825032230
         H            2.286490371517    -0.218711094212    -1.550753382173     1.007825032230
         H            2.873508371517     1.330037905788    -0.906617382173     1.007825032230
         H            3.897765371517    -0.115064094212    -0.815377382173     1.007825032230
         H           -1.952684628483    -1.377417094212    -0.490475382173     1.007825032230

  Basis Set: AUG-CC-PVTZ
    Blend: AUG-CC-PVTZ
  Basis Set: (AUG-CC-PVTZ AUX)
    Blend: AUG-CC-PVTZ-JKFIT
	 Reference Energy          =    -400.0802068313543600 [Eh]
	 Singles Energy            =      -0.0000000000000000 [Eh]
	 Same-Spin Energy          =      -0.4022729273397150 [Eh]
	 Opposite-Spin Energy      =      -1.3080844702437082 [Eh]
	 Correlation Energy        =      -1.7103573975834232 [Eh]
	 Total Energy              =    -401.7905642289377965 [Eh]

	 ================> DF-SCS-MP2 Energies <==================
	-----------------------------------------------------------
	 SCS Same-Spin Scale       =       0.3333333333333333 [-]
	 SCS Opposite-Spin Scale   =       1.2000000000000000 [-]
	 SCS Same-Spin Energy      =      -0.1340909757799050 [Eh]
	 SCS Opposite-Spin Energy  =      -1.5697013642924498 [Eh]
	 SCS Correlation Energy    =      -1.7037923400723547 [Eh]
	 SCS Total Energy          =    -401.7839991714267285 [Eh]
	-----------------------------------------------------------

  Dipole Moment: [D]
     X:     2.9061      Y:     3.1522      Z:     1.5926     Total:     4.5736

*** Psi4 exiting successfully. Buy a developer a beer!
