                               Psi4 1.3.2 release

  ==> Input File <==

--------------------------------------------------------------------------
#psi4
#
memory 32 gb

molecule  {
0 1
  O       -2.4925410    -0.6205970    -0.1535330
  O       -0.0069960    -1.4050930    -0.3804930
  N        0.8845720     0.3685180     0.7343320
  C       -1.5404070     0.3017530     0.3325960
  C        2.2802301    -0.0357696     0.6351797
  C       -0.1490540    -0.3186880     0.1981930
  C       -1.6458490     1.6048030    -0.4506110
  C        2.8658230     0.2522360    -0.7461750
  H       -1.7322500     0.4923850     1.3997900
  H        2.8336360     0.3321260     1.4253690
  H        2.2399750    -1.1846720     0.7384180
  H        0.7619492     1.2828445     1.1488690
  H       -1.3913480     1.4204780    -1.4971700
  H       -0.9867360     2.3841060    -0.0548340
  H       -2.6752710     1.9656290    -0.4028710
  H        2.2847230    -0.2144000    -1.5438430
  H        2.8717410     1.3343490    -0.8997070
  H        3.8959980    -0.1107530    -0.8084670
  H       -1.9544520    -1.3731060    -0.4835650
units angstrom
no_reorient  #important for SAPT in psi4, default
symmetry c1  #important for SAPT in psi4, default
}

set PROPERTIES_ORIGIN ["COM"]
properties('MP2/aug-cc-pvtz', properties = ['dipole'])
--------------------------------------------------------------------------

    Molecular point group: c1
  Charge       = 0
  Multiplicity = 1
  Basis Set: AUG-CC-PVTZ
    Blend: AUG-CC-PVTZ
  Basis Set: (AUG-CC-PVTZ AUX)
    Blend: AUG-CC-PVTZ-JKFIT

    Orbital Energies [Eh]
    ---------------------

    Doubly Occupied:

       1A    -20.548625     2A    -20.534110     3A    -15.599252
       4A    -11.361418     5A    -11.298419     6A    -11.273575
       7A    -11.230661     8A    -11.223967     9A     -1.398327
      10A     -1.346625    11A     -1.245906    12A     -1.052487
      13A     -1.012071    14A     -0.904757    15A     -0.850882
      16A     -0.793444    17A     -0.746628    18A     -0.676234
      19A     -0.653810    20A     -0.640279    21A     -0.612898
      22A     -0.592919    23A     -0.577082    24A     -0.562848
      25A     -0.542534    26A     -0.535674    27A     -0.528446
      28A     -0.514376    29A     -0.490449    30A     -0.445588
      31A     -0.437117    32A     -0.402088

  @DF-RHF Final Energy:  -400.07964840484891

   => Energetics <=

    Nuclear Repulsion Energy =            400.1804187909871757
    One-Electron Energy =               -1339.2531417316586158
    Two-Electron Energy =                 538.9930745358225295
    Total Energy =                       -400.0796484048488537
  Basis Set: (AUG-CC-PVTZ AUX)
    Blend: AUG-CC-PVTZ-RI
    Molecular point group: c1

    Geometry (in Angstrom), charge = 0, multiplicity = 1:

       Center              X                  Y                   Z               Mass
    ------------   -----------------  -----------------  -----------------  -----------------
         O           -2.495375297878    -0.627346034396    -0.156827643515    15.994914619570
         O           -0.009830297878    -1.411842034396    -0.383787643515    15.994914619570
         N            0.881737702122     0.361768965604     0.731037356485    14.003074004430
         C           -1.543241297878     0.295003965604     0.329301356485    12.000000000000
         C            2.277395802122    -0.042518634396     0.631885056485    12.000000000000
         C           -0.151888297878    -0.325437034396     0.194898356485    12.000000000000
         C           -1.648683297878     1.598053965604    -0.453905643515    12.000000000000
         C            2.862988702122     0.245486965604    -0.749469643515    12.000000000000
         H           -1.735084297878     0.485635965604     1.396495356485     1.007825032230
         H            2.830801702122     0.325376965604     1.422074356485     1.007825032230
         H            2.237140702122    -1.191421034396     0.735123356485     1.007825032230
         H            0.759114902122     1.276095465604     1.145574356485     1.007825032230
         H           -1.394182297878     1.413728965604    -1.500464643515     1.007825032230
         H           -0.989570297878     2.377356965604    -0.058128643515     1.007825032230
         H           -2.678105297878     1.958879965604    -0.406165643515     1.007825032230
         H            2.281888702122    -0.221149034396    -1.547137643515     1.007825032230
         H            2.868906702122     1.327599965604    -0.903001643515     1.007825032230
         H            3.893163702122    -0.117502034396    -0.811761643515     1.007825032230
         H           -1.957286297878    -1.379855034396    -0.486859643515     1.007825032230

  Basis Set: AUG-CC-PVTZ
    Blend: AUG-CC-PVTZ
  Basis Set: (AUG-CC-PVTZ AUX)
    Blend: AUG-CC-PVTZ-JKFIT
	 Reference Energy          =    -400.0796484048489106 [Eh]
	 Singles Energy            =      -0.0000000000000000 [Eh]
	 Same-Spin Energy          =      -0.4023220771724906 [Eh]
	 Opposite-Spin Energy      =      -1.3082532613984172 [Eh]
	 Correlation Energy        =      -1.7105753385709079 [Eh]
	 Total Energy              =    -401.7902237434198014 [Eh]

	 ================> DF-SCS-MP2 Energies <==================
	-----------------------------------------------------------
	 SCS Same-Spin Scale       =       0.3333333333333333 [-]
	 SCS Opposite-Spin Scale   =       1.2000000000000000 [-]
	 SCS Same-Spin Energy      =      -0.1341073590574969 [Eh]
	 SCS Opposite-Spin Energy  =      -1.5699039136781006 [Eh]
	 SCS Correlation Energy    =      -1.7040112727355974 [Eh]
	 SCS Total Energy          =    -401.7836596775845237 [Eh]
	-----------------------------------------------------------

  Dipole Moment: [D]
     X:     2.9355      Y:     3.1958      Z:     1.5863     Total:     4.6202

*** Psi4 exiting successfully. Buy a developer a beer!
