                               Psi4 1.4a3.dev225

  ==> Input File <==

--------------------------------------------------------------------------
#psi4
#
memory 32 gb

molecule  {
0 1
  O       -2.5334200    -0.7491890    -0.0380440
  O       -0.0309920    -1.3916750    -0.5246560
  N        0.8474210     0.2516040     0.7908210
  C       -1.5793960     0.2040340     0.3844480
  C        2.2773368    -0.1661856     0.5553403
  C       -0.1821000    -0.3862620     0.1848690
  C       -1.7305020     1.4971750    -0.4144490
  C        2.7876300     0.3918150    -0.7462470
  H       -1.7371730     0.4054880     1.4537200
  H        2.8183710     0.1913570     1.4185970
  H        2.2480760    -1.2444890     0.5585260
  H        0.6595560     1.1005830     1.3085070
  H       -1.5202540     1.2971370    -1.4686150
  H       -1.0543700     2.2823790    -0.0604110
  H       -2.7592110     1.8535180    -0.3272230
  H        2.1936920     0.0168210    -1.5822170
  H        2.7616940     1.4848860    -0.7566670
  H        3.8242090     0.0700520    -0.8849050
  H       -2.0046360    -1.4186050    -0.5240660
units angstrom
no_reorient  #important for SAPT in psi4, default
symmetry c1  #important for SAPT in psi4, default
}

set PROPERTIES_ORIGIN ["COM"]
properties('MP2/aug-cc-pvtz', properties = ['dipole'])
--------------------------------------------------------------------------

    Molecular point group: c1
  Charge       = 0
  Multiplicity = 1
  Basis Set: AUG-CC-PVTZ
    Blend: AUG-CC-PVTZ
  Basis Set: (AUG-CC-PVTZ AUX)
    Blend: AUG-CC-PVTZ-JKFIT

    Orbital Energies [Eh]
    ---------------------

    Doubly Occupied:

       1A    -20.548236     2A    -20.530653     3A    -15.596329
       4A    -11.356927     5A    -11.297003     6A    -11.276535
       7A    -11.229549     8A    -11.225327     9A     -1.394571
      10A     -1.344921    11A     -1.234305    12A     -1.052566
      13A     -1.015601    14A     -0.899107    15A     -0.849353
      16A     -0.789377    17A     -0.743771    18A     -0.670403
      19A     -0.642769    20A     -0.634398    21A     -0.616549
      22A     -0.598121    23A     -0.580001    24A     -0.564213
      25A     -0.541232    26A     -0.532808    27A     -0.524083
      28A     -0.510449    29A     -0.508423    30A     -0.445939
      31A     -0.431341    32A     -0.404010

  @DF-RHF Final Energy:  -400.08552198897354

   => Energetics <=

    Nuclear Repulsion Energy =            399.6938508358225022
    One-Electron Energy =               -1338.3810046073426747
    Two-Electron Energy =                 538.6016317825466331
    Total Energy =                       -400.0855219889734826
  Basis Set: (AUG-CC-PVTZ AUX)
    Blend: AUG-CC-PVTZ-RI
    Molecular point group: c1

    Geometry (in Angstrom), charge = 0, multiplicity = 1:

       Center              X                  Y                   Z               Mass
    ------------   -----------------  -----------------  -----------------  -----------------
         O           -2.492396556629    -0.696691042036    -0.044617352553    15.994914619570
         O            0.010031443371    -1.339177042036    -0.531229352553    15.994914619570
         N            0.888444443371     0.304101957964     0.784247647447    14.003074004430
         C           -1.538372556629     0.256531957964     0.377874647447    12.000000000000
         C            2.318360243371    -0.113687642036     0.548766947447    12.000000000000
         C           -0.141076556629    -0.333764042036     0.178295647447    12.000000000000
         C           -1.689478556629     1.549672957964    -0.421022352553    12.000000000000
         C            2.828653443371     0.444312957964    -0.752820352553    12.000000000000
         H           -1.696149556629     0.457985957964     1.447146647447     1.007825032230
         H            2.859394443371     0.243854957964     1.412023647447     1.007825032230
         H            2.289099443371    -1.191991042036     0.551952647447     1.007825032230
         H            0.700579443371     1.153080957964     1.301933647447     1.007825032230
         H           -1.479230556629     1.349634957964    -1.475188352553     1.007825032230
         H           -1.013346556629     2.334876957964    -0.066984352553     1.007825032230
         H           -2.718187556629     1.906015957964    -0.333796352553     1.007825032230
         H            2.234715443371     0.069318957964    -1.588790352553     1.007825032230
         H            2.802717443371     1.537383957964    -0.763240352553     1.007825032230
         H            3.865232443371     0.122549957964    -0.891478352553     1.007825032230
         H           -1.963612556629    -1.366107042036    -0.530639352553     1.007825032230

  Basis Set: AUG-CC-PVTZ
    Blend: AUG-CC-PVTZ
  Basis Set: (AUG-CC-PVTZ AUX)
    Blend: AUG-CC-PVTZ-JKFIT
	 Reference Energy          =    -400.0855219889735395 [Eh]
	 Singles Energy            =      -0.0000000000000000 [Eh]
	 Same-Spin Energy          =      -0.4019047243726593 [Eh]
	 Opposite-Spin Energy      =      -1.3079430395367606 [Eh]
	 Correlation Energy        =      -1.7098477639094201 [Eh]
	 Total Energy              =    -401.7953697528829480 [Eh]

	 ================> DF-SCS-MP2 Energies <==================
	-----------------------------------------------------------
	 SCS Same-Spin Scale       =       0.3333333333333333 [-]
	 SCS Opposite-Spin Scale   =       1.2000000000000000 [-]
	 SCS Same-Spin Energy      =      -0.1339682414575531 [Eh]
	 SCS Opposite-Spin Energy  =      -1.5695316474441128 [Eh]
	 SCS Correlation Energy    =      -1.7034998889016659 [Eh]
	 SCS Total Energy          =    -401.7890218778752001 [Eh]
	-----------------------------------------------------------

  Dipole Moment: [D]
     X:     3.0387      Y:     3.1278      Z:     1.5861     Total:     4.6403

*** Psi4 exiting successfully. Buy a developer a beer!
