                               Psi4 1.3.2 release

  ==> Input File <==

--------------------------------------------------------------------------
#psi4
#
memory 32 gb

molecule  {
0 1
  O       -2.5001126    -0.6038173    -0.1699155
  O       -0.0069960    -1.4050930    -0.3804930
  N        0.8845720     0.3685180     0.7343320
  C       -1.5404070     0.3017530     0.3325960
  C        2.2569670    -0.1011270     0.6035390
  C       -0.1490540    -0.3186880     0.1981930
  C       -1.6655219     1.5942493    -0.4650693
  C        2.8658230     0.2522360    -0.7461750
  H       -1.7322500     0.4923850     1.3997900
  H        2.8336360     0.3321260     1.4253690
  H        2.2399750    -1.1846720     0.7384180
  H        0.7096630     1.2770080     1.1428940
  H       -1.3913480     1.4204780    -1.4971700
  H       -0.9867360     2.3841060    -0.0548340
  H       -2.6752710     1.9656290    -0.4028710
  H        2.2847230    -0.2144000    -1.5438430
  H        2.8717410     1.3343490    -0.8997070
  H        3.8959980    -0.1107530    -0.8084670
  H       -1.9544520    -1.3731060    -0.4835650
units angstrom
no_reorient  #important for SAPT in psi4, default
symmetry c1  #important for SAPT in psi4, default
}

set PROPERTIES_ORIGIN ["COM"]
properties('MP2/aug-cc-pvtz', properties = ['dipole'])
--------------------------------------------------------------------------

    Molecular point group: c1
  Charge       = 0
  Multiplicity = 1
  Basis Set: AUG-CC-PVTZ
    Blend: AUG-CC-PVTZ
  Basis Set: (AUG-CC-PVTZ AUX)
    Blend: AUG-CC-PVTZ-JKFIT

    Orbital Energies [Eh]
    ---------------------

    Doubly Occupied:

       1A    -20.548973     2A    -20.534141     3A    -15.599183
       4A    -11.359772     5A    -11.297789     6A    -11.274241
       7A    -11.230492     8A    -11.223426     9A     -1.398209
      10A     -1.345400    11A     -1.246121    12A     -1.051877
      13A     -1.012292    14A     -0.903212    15A     -0.848822
      16A     -0.794342    17A     -0.743473    18A     -0.676470
      19A     -0.647730    20A     -0.641885    21A     -0.613326
      22A     -0.597429    23A     -0.575250    24A     -0.565654
      25A     -0.541865    26A     -0.531802    27A     -0.521924
      28A     -0.514942    29A     -0.502339    30A     -0.444607
      31A     -0.437305    32A     -0.403901

  @DF-RHF Final Energy:  -400.08593281550196

   => Energetics <=

    Nuclear Repulsion Energy =            400.4994229846693656
    One-Electron Energy =               -1339.9143187578740708
    Two-Electron Energy =                 539.3289629577027426
    Total Energy =                       -400.0859328155020194
  Basis Set: (AUG-CC-PVTZ AUX)
    Blend: AUG-CC-PVTZ-RI
    Molecular point group: c1

    Geometry (in Angstrom), charge = 0, multiplicity = 1:

       Center              X                  Y                   Z               Mass
    ------------   -----------------  -----------------  -----------------  -----------------
         O           -2.497061687356    -0.605027974652    -0.166195678125    15.994914619570
         O           -0.003945087356    -1.406303674652    -0.376773178125    15.994914619570
         N            0.887622912644     0.367307325348     0.738051821875    14.003074004430
         C           -1.537356087356     0.300542325348     0.336315821875    12.000000000000
         C            2.260017912644    -0.102337674652     0.607258821875    12.000000000000
         C           -0.146003087356    -0.319898674652     0.201912821875    12.000000000000
         C           -1.662470987356     1.593038625348    -0.461349478125    12.000000000000
         C            2.868873912644     0.251025325348    -0.742455178125    12.000000000000
         H           -1.729199087356     0.491174325348     1.403509821875     1.007825032230
         H            2.836686912644     0.330915325348     1.429088821875     1.007825032230
         H            2.243025912644    -1.185882674652     0.742137821875     1.007825032230
         H            0.712713912644     1.275797325348     1.146613821875     1.007825032230
         H           -1.388297087356     1.419267325348    -1.493450178125     1.007825032230
         H           -0.983685087356     2.382895325348    -0.051114178125     1.007825032230
         H           -2.672220087356     1.964418325348    -0.399151178125     1.007825032230
         H            2.287773912644    -0.215610674652    -1.540123178125     1.007825032230
         H            2.874791912644     1.333138325348    -0.895987178125     1.007825032230
         H            3.899048912644    -0.111963674652    -0.804747178125     1.007825032230
         H           -1.951401087356    -1.374316674652    -0.479845178125     1.007825032230

  Basis Set: AUG-CC-PVTZ
    Blend: AUG-CC-PVTZ
  Basis Set: (AUG-CC-PVTZ AUX)
    Blend: AUG-CC-PVTZ-JKFIT
	 Reference Energy          =    -400.0859328155019625 [Eh]
	 Singles Energy            =      -0.0000000000000000 [Eh]
	 Same-Spin Energy          =      -0.4023137546311052 [Eh]
	 Opposite-Spin Energy      =      -1.3081543583050568 [Eh]
	 Correlation Energy        =      -1.7104681129361621 [Eh]
	 Total Energy              =    -401.7964009284381177 [Eh]

	 ================> DF-SCS-MP2 Energies <==================
	-----------------------------------------------------------
	 SCS Same-Spin Scale       =       0.3333333333333333 [-]
	 SCS Opposite-Spin Scale   =       1.2000000000000000 [-]
	 SCS Same-Spin Energy      =      -0.1341045848770351 [Eh]
	 SCS Opposite-Spin Energy  =      -1.5697852299660682 [Eh]
	 SCS Correlation Energy    =      -1.7038898148431032 [Eh]
	 SCS Total Energy          =    -401.7898226303450429 [Eh]
	-----------------------------------------------------------

  Dipole Moment: [D]
     X:     2.9202      Y:     3.0956      Z:     1.5890     Total:     4.5426

*** Psi4 exiting successfully. Buy a developer a beer!
