                               Psi4 1.4a3.dev225

  ==> Input File <==

--------------------------------------------------------------------------
#psi4
#
memory 32 gb

molecule  {
0 1
  O       -2.5334200    -0.7491890    -0.0380440
  O       -0.0309920    -1.3916750    -0.5246560
  N        0.8474210     0.2516040     0.7908210
  C       -1.6131487     0.1703097     0.3695005
  C        2.2299320    -0.1523350     0.5631470
  C       -0.1821000    -0.3862620     0.1848690
  C       -1.7305020     1.4971750    -0.4144490
  C        2.7876300     0.3918150    -0.7462470
  H       -1.7371730     0.4054880     1.4537200
  H        2.8183710     0.1913570     1.4185970
  H        2.2480760    -1.2444890     0.5585260
  H        0.6595560     1.1005830     1.3085070
  H       -1.5202540     1.2971370    -1.4686150
  H       -1.0543700     2.2823790    -0.0604110
  H       -2.7592110     1.8535180    -0.3272230
  H        2.1936920     0.0168210    -1.5822170
  H        2.7616940     1.4848860    -0.7566670
  H        3.8242090     0.0700520    -0.8849050
  H       -2.0046360    -1.4186050    -0.5240660
units angstrom
no_reorient  #important for SAPT in psi4, default
symmetry c1  #important for SAPT in psi4, default
}

set PROPERTIES_ORIGIN ["COM"]
properties('MP2/aug-cc-pvtz', properties = ['dipole'])
--------------------------------------------------------------------------

    Molecular point group: c1
  Charge       = 0
  Multiplicity = 1
  Basis Set: AUG-CC-PVTZ
    Blend: AUG-CC-PVTZ
  Basis Set: (AUG-CC-PVTZ AUX)
    Blend: AUG-CC-PVTZ-JKFIT

    Orbital Energies [Eh]
    ---------------------

    Doubly Occupied:

       1A    -20.554594     2A    -20.531921     3A    -15.598755
       4A    -11.357704     5A    -11.299811     6A    -11.274191
       7A    -11.229066     8A    -11.223530     9A     -1.403623
      10A     -1.361780    11A     -1.243534    12A     -1.046690
      13A     -1.009745    14A     -0.898857    15A     -0.847863
      16A     -0.793093    17A     -0.752439    18A     -0.676093
      19A     -0.647057    20A     -0.638581    21A     -0.616025
      22A     -0.598093    23A     -0.586875    24A     -0.563057
      25A     -0.545732    26A     -0.534376    27A     -0.520574
      28A     -0.513344    29A     -0.502658    30A     -0.442461
      31A     -0.428913    32A     -0.402985

  @DF-RHF Final Energy:  -400.08626623661814

   => Energetics <=

    Nuclear Repulsion Energy =            400.5148734355637998
    One-Electron Energy =               -1339.9142360276255204
    Two-Electron Energy =                 539.3130963554435766
    Total Energy =                       -400.0862662366181439
  Basis Set: (AUG-CC-PVTZ AUX)
    Blend: AUG-CC-PVTZ-RI
    Molecular point group: c1

    Geometry (in Angstrom), charge = 0, multiplicity = 1:

       Center              X                  Y                   Z               Mass
    ------------   -----------------  -----------------  -----------------  -----------------
         O           -2.484078325537    -0.694654088837    -0.043885456862    15.994914619570
         O            0.018349674463    -1.337140088837    -0.530497456862    15.994914619570
         N            0.896762674463     0.306138911163     0.784979543138    14.003074004430
         C           -1.563807025537     0.224844611163     0.363659043138    12.000000000000
         C            2.279273674463    -0.097800088837     0.557305543138    12.000000000000
         C           -0.132758325537    -0.331727088837     0.179027543138    12.000000000000
         C           -1.681160325537     1.551709911163    -0.420290456862    12.000000000000
         C            2.836971674463     0.446349911163    -0.752088456862    12.000000000000
         H           -1.687831325537     0.460022911163     1.447878543138     1.007825032230
         H            2.867712674463     0.245891911163     1.412755543138     1.007825032230
         H            2.297417674463    -1.189954088837     0.552684543138     1.007825032230
         H            0.708897674463     1.155117911163     1.302665543138     1.007825032230
         H           -1.470912325537     1.351671911163    -1.474456456862     1.007825032230
         H           -1.005028325537     2.336913911163    -0.066252456862     1.007825032230
         H           -2.709869325537     1.908052911163    -0.333064456862     1.007825032230
         H            2.243033674463     0.071355911163    -1.588058456862     1.007825032230
         H            2.811035674463     1.539420911163    -0.762508456862     1.007825032230
         H            3.873550674463     0.124586911163    -0.890746456862     1.007825032230
         H           -1.955294325537    -1.364070088837    -0.529907456862     1.007825032230

  Basis Set: AUG-CC-PVTZ
    Blend: AUG-CC-PVTZ
  Basis Set: (AUG-CC-PVTZ AUX)
    Blend: AUG-CC-PVTZ-JKFIT
	 Reference Energy          =    -400.0862662366181439 [Eh]
	 Singles Energy            =      -0.0000000000000000 [Eh]
	 Same-Spin Energy          =      -0.4019160311200677 [Eh]
	 Opposite-Spin Energy      =      -1.3069605623793081 [Eh]
	 Correlation Energy        =      -1.7088765934993759 [Eh]
	 Total Energy              =    -401.7951428301175270 [Eh]

	 ================> DF-SCS-MP2 Energies <==================
	-----------------------------------------------------------
	 SCS Same-Spin Scale       =       0.3333333333333333 [-]
	 SCS Opposite-Spin Scale   =       1.2000000000000000 [-]
	 SCS Same-Spin Energy      =      -0.1339720103733559 [Eh]
	 SCS Opposite-Spin Energy  =      -1.5683526748551697 [Eh]
	 SCS Correlation Energy    =      -1.7023246852285256 [Eh]
	 SCS Total Energy          =    -401.7885909218466622 [Eh]
	-----------------------------------------------------------

  Dipole Moment: [D]
     X:     2.7651      Y:     2.9931      Z:     1.5744     Total:     4.3684

*** Psi4 exiting successfully. Buy a developer a beer!
