                               Psi4 1.3.2 release

  ==> Input File <==

--------------------------------------------------------------------------
#psi4
#
memory 32 gb

molecule  {
0 1
  O       -2.5280957    -0.5881427    -0.1429739
  O       -0.0069960    -1.4050930    -0.3804930
  N        0.8845720     0.3685180     0.7343320
  C       -1.5404070     0.3017530     0.3325960
  C        2.2569670    -0.1011270     0.6035390
  C       -0.1282358    -0.2742642     0.2192331
  C       -1.6458490     1.6048030    -0.4506110
  C        2.8658230     0.2522360    -0.7461750
  H       -1.7322500     0.4923850     1.3997900
  H        2.8336360     0.3321260     1.4253690
  H        2.2399750    -1.1846720     0.7384180
  H        0.7096630     1.2770080     1.1428940
  H       -1.3913480     1.4204780    -1.4971700
  H       -0.9867360     2.3841060    -0.0548340
  H       -2.6752710     1.9656290    -0.4028710
  H        2.2847230    -0.2144000    -1.5438430
  H        2.8717410     1.3343490    -0.8997070
  H        3.8959980    -0.1107530    -0.8084670
  H       -1.9544520    -1.3731060    -0.4835650
units angstrom
no_reorient  #important for SAPT in psi4, default
symmetry c1  #important for SAPT in psi4, default
}

set PROPERTIES_ORIGIN ["COM"]
properties('MP2/aug-cc-pvtz', properties = ['dipole'])
--------------------------------------------------------------------------

    Molecular point group: c1
  Charge       = 0
  Multiplicity = 1
  Basis Set: AUG-CC-PVTZ
    Blend: AUG-CC-PVTZ
  Basis Set: (AUG-CC-PVTZ AUX)
    Blend: AUG-CC-PVTZ-JKFIT

    Orbital Energies [Eh]
    ---------------------

    Doubly Occupied:

       1A    -20.551444     2A    -20.523266     3A    -15.609815
       4A    -11.358872     5A    -11.297658     6A    -11.279782
       7A    -11.229774     8A    -11.226877     9A     -1.378669
      10A     -1.335509    11A     -1.254774    12A     -1.056537
      13A     -1.015990    14A     -0.906371    15A     -0.852013
      16A     -0.804892    17A     -0.737918    18A     -0.677622
      19A     -0.646941    20A     -0.632980    21A     -0.617045
      22A     -0.595858    23A     -0.572522    24A     -0.561854
      25A     -0.545713    26A     -0.533994    27A     -0.517652
      28A     -0.506457    29A     -0.502407    30A     -0.441502
      31A     -0.431073    32A     -0.406362

  @DF-RHF Final Energy:  -400.07486328979292

   => Energetics <=

    Nuclear Repulsion Energy =            400.0170155166118775
    One-Electron Energy =               -1338.9634660773506312
    Two-Electron Energy =                 538.8715872709458381
    Total Energy =                       -400.0748632897929156
  Basis Set: (AUG-CC-PVTZ AUX)
    Blend: AUG-CC-PVTZ-RI
    Molecular point group: c1

    Geometry (in Angstrom), charge = 0, multiplicity = 1:

       Center              X                  Y                   Z               Mass
    ------------   -----------------  -----------------  -----------------  -----------------
         O           -2.525371967395    -0.597129697093    -0.146573149421    15.994914619570
         O           -0.004272267395    -1.414079997093    -0.384092249421    15.994914619570
         N            0.887295732605     0.359531002907     0.730732750579    14.003074004430
         C           -1.537683267395     0.292766002907     0.328996750579    12.000000000000
         C            2.259690732605    -0.110113997093     0.599939750579    12.000000000000
         C           -0.125512067395    -0.283251197093     0.215633850579    12.000000000000
         C           -1.643125267395     1.595816002907    -0.454210249421    12.000000000000
         C            2.868546732605     0.243249002907    -0.749774249421    12.000000000000
         H           -1.729526267395     0.483398002907     1.396190750579     1.007825032230
         H            2.836359732605     0.323139002907     1.421769750579     1.007825032230
         H            2.242698732605    -1.193658997093     0.734818750579     1.007825032230
         H            0.712386732605     1.268021002907     1.139294750579     1.007825032230
         H           -1.388624267395     1.411491002907    -1.500769249421     1.007825032230
         H           -0.984012267395     2.375119002907    -0.058433249421     1.007825032230
         H           -2.672547267395     1.956642002907    -0.406470249421     1.007825032230
         H            2.287446732605    -0.223386997093    -1.547442249421     1.007825032230
         H            2.874464732605     1.325362002907    -0.903306249421     1.007825032230
         H            3.898721732605    -0.119739997093    -0.812066249421     1.007825032230
         H           -1.951728267395    -1.382092997093    -0.487164249421     1.007825032230

  Basis Set: AUG-CC-PVTZ
    Blend: AUG-CC-PVTZ
  Basis Set: (AUG-CC-PVTZ AUX)
    Blend: AUG-CC-PVTZ-JKFIT
	 Reference Energy          =    -400.0748632897929156 [Eh]
	 Singles Energy            =      -0.0000000000000000 [Eh]
	 Same-Spin Energy          =      -0.4037731549532158 [Eh]
	 Opposite-Spin Energy      =      -1.3110044402704693 [Eh]
	 Correlation Energy        =      -1.7147775952236850 [Eh]
	 Total Energy              =    -401.7896408850165813 [Eh]

	 ================> DF-SCS-MP2 Energies <==================
	-----------------------------------------------------------
	 SCS Same-Spin Scale       =       0.3333333333333333 [-]
	 SCS Opposite-Spin Scale   =       1.2000000000000000 [-]
	 SCS Same-Spin Energy      =      -0.1345910516510719 [Eh]
	 SCS Opposite-Spin Energy  =      -1.5732053283245631 [Eh]
	 SCS Correlation Energy    =      -1.7077963799756350 [Eh]
	 SCS Total Energy          =    -401.7826596697685773 [Eh]
	-----------------------------------------------------------

  Dipole Moment: [D]
     X:     3.2638      Y:     3.3586      Z:     1.7133     Total:     4.9868

*** Psi4 exiting successfully. Buy a developer a beer!
