                               Psi4 1.4a3.dev225

  ==> Input File <==

--------------------------------------------------------------------------
#psi4
#
memory 32 gb

molecule  {
0 1
  O       -2.5334200    -0.7491890    -0.0380440
  O       -0.0309920    -1.3916750    -0.5246560
  N        0.8474210     0.2516040     0.7908210
  C       -1.5793960     0.2040340     0.3844480
  C        2.2299320    -0.1523350     0.5631470
  C       -0.1821000    -0.3862620     0.1848690
  C       -1.7324805     1.5141064    -0.4249091
  C        2.7876300     0.3918150    -0.7462470
  H       -1.7371730     0.4054880     1.4537200
  H        2.8183710     0.1913570     1.4185970
  H        2.2480760    -1.2444890     0.5585260
  H        0.6595560     1.1005830     1.3085070
  H       -1.5202540     1.2971370    -1.4686150
  H       -1.0543700     2.2823790    -0.0604110
  H       -2.7592110     1.8535180    -0.3272230
  H        2.1936920     0.0168210    -1.5822170
  H        2.7616940     1.4848860    -0.7566670
  H        3.8242090     0.0700520    -0.8849050
  H       -2.0046360    -1.4186050    -0.5240660
units angstrom
no_reorient  #important for SAPT in psi4, default
symmetry c1  #important for SAPT in psi4, default
}

set PROPERTIES_ORIGIN ["COM"]
properties('MP2/aug-cc-pvtz', properties = ['dipole'])
--------------------------------------------------------------------------

    Molecular point group: c1
  Charge       = 0
  Multiplicity = 1
  Basis Set: AUG-CC-PVTZ
    Blend: AUG-CC-PVTZ
  Basis Set: (AUG-CC-PVTZ AUX)
    Blend: AUG-CC-PVTZ-JKFIT

    Orbital Energies [Eh]
    ---------------------

    Doubly Occupied:

       1A    -20.549629     2A    -20.532885     3A    -15.599127
       4A    -11.359077     5A    -11.299319     6A    -11.274357
       7A    -11.230098     8A    -11.223916     9A     -1.396940
      10A     -1.346508    11A     -1.244715    12A     -1.050030
      13A     -1.011403    14A     -0.903126    15A     -0.848858
      16A     -0.793752    17A     -0.744868    18A     -0.674506
      19A     -0.645173    20A     -0.636689    21A     -0.614319
      22A     -0.598010    23A     -0.578966    24A     -0.566713
      25A     -0.543628    26A     -0.534766    27A     -0.521617
      28A     -0.513457    29A     -0.502889    30A     -0.445944
      31A     -0.433157    32A     -0.403603

  @DF-RHF Final Energy:  -400.08745026951340

   => Energetics <=

    Nuclear Repulsion Energy =            400.0568627816887783
    One-Electron Energy =               -1339.0445364778458952
    Two-Electron Energy =                 538.9002234266437199
    Total Energy =                       -400.0874502695133970
  Basis Set: (AUG-CC-PVTZ AUX)
    Blend: AUG-CC-PVTZ-RI
    Molecular point group: c1

    Geometry (in Angstrom), charge = 0, multiplicity = 1:

       Center              X                  Y                   Z               Mass
    ------------   -----------------  -----------------  -----------------  -----------------
         O           -2.487335019476    -0.699846040520    -0.044345392545    15.994914619570
         O            0.015092980524    -1.342332040520    -0.530957392545    15.994914619570
         N            0.893505980524     0.300946959480     0.784519607455    14.003074004430
         C           -1.533311019476     0.253376959480     0.378146607455    12.000000000000
         C            2.276016980524    -0.102992040520     0.556845607455    12.000000000000
         C           -0.136015019476    -0.336919040520     0.178567607455    12.000000000000
         C           -1.686395519476     1.563449359480    -0.431210492545    12.000000000000
         C            2.833714980524     0.441157959480    -0.752548392545    12.000000000000
         H           -1.691088019476     0.454830959480     1.447418607455     1.007825032230
         H            2.864455980524     0.240699959480     1.412295607455     1.007825032230
         H            2.294160980524    -1.195146040520     0.552224607455     1.007825032230
         H            0.705640980524     1.149925959480     1.302205607455     1.007825032230
         H           -1.474169019476     1.346479959480    -1.474916392545     1.007825032230
         H           -1.008285019476     2.331721959480    -0.066712392545     1.007825032230
         H           -2.713126019476     1.902860959480    -0.333524392545     1.007825032230
         H            2.239776980524     0.066163959480    -1.588518392545     1.007825032230
         H            2.807778980524     1.534228959480    -0.762968392545     1.007825032230
         H            3.870293980524     0.119394959480    -0.891206392545     1.007825032230
         H           -1.958551019476    -1.369262040520    -0.530367392545     1.007825032230

  Basis Set: AUG-CC-PVTZ
    Blend: AUG-CC-PVTZ
  Basis Set: (AUG-CC-PVTZ AUX)
    Blend: AUG-CC-PVTZ-JKFIT
	 Reference Energy          =    -400.0874502695133970 [Eh]
	 Singles Energy            =      -0.0000000000000000 [Eh]
	 Same-Spin Energy          =      -0.4019135576986807 [Eh]
	 Opposite-Spin Energy      =      -1.3077350722575503 [Eh]
	 Correlation Energy        =      -1.7096486299562310 [Eh]
	 Total Energy              =    -401.7970988994696313 [Eh]

	 ================> DF-SCS-MP2 Energies <==================
	-----------------------------------------------------------
	 SCS Same-Spin Scale       =       0.3333333333333333 [-]
	 SCS Opposite-Spin Scale   =       1.2000000000000000 [-]
	 SCS Same-Spin Energy      =      -0.1339711858995602 [Eh]
	 SCS Opposite-Spin Energy  =      -1.5692820867090602 [Eh]
	 SCS Correlation Energy    =      -1.7032532726086205 [Eh]
	 SCS Total Energy          =    -401.7907035421220030 [Eh]
	-----------------------------------------------------------

  Dipole Moment: [D]
     X:     2.8628      Y:     3.1218      Z:     1.6140     Total:     4.5328

*** Psi4 exiting successfully. Buy a developer a beer!
