                               Psi4 1.4a3.dev225

  ==> Input File <==

--------------------------------------------------------------------------
#psi4
#
memory 32 gb

molecule  {
0 1
  O       -2.5334200    -0.7491890    -0.0380440
  O       -0.0309920    -1.3916750    -0.5246560
  N        0.8474210     0.2516040     0.7908210
  C       -1.5658949     0.2175237     0.3904270
  C        2.2299320    -0.1523350     0.5631470
  C       -0.1821000    -0.3862620     0.1848690
  C       -1.7305020     1.4971750    -0.4144490
  C        2.7876300     0.3918150    -0.7462470
  H       -1.7371730     0.4054880     1.4537200
  H        2.8183710     0.1913570     1.4185970
  H        2.2480760    -1.2444890     0.5585260
  H        0.6595560     1.1005830     1.3085070
  H       -1.5202540     1.2971370    -1.4686150
  H       -1.0543700     2.2823790    -0.0604110
  H       -2.7592110     1.8535180    -0.3272230
  H        2.1936920     0.0168210    -1.5822170
  H        2.7616940     1.4848860    -0.7566670
  H        3.8242090     0.0700520    -0.8849050
  H       -2.0046360    -1.4186050    -0.5240660
units angstrom
no_reorient  #important for SAPT in psi4, default
symmetry c1  #important for SAPT in psi4, default
}

set PROPERTIES_ORIGIN ["COM"]
properties('MP2/aug-cc-pvtz', properties = ['dipole'])
--------------------------------------------------------------------------

    Molecular point group: c1
  Charge       = 0
  Multiplicity = 1
  Basis Set: AUG-CC-PVTZ
    Blend: AUG-CC-PVTZ
  Basis Set: (AUG-CC-PVTZ AUX)
    Blend: AUG-CC-PVTZ-JKFIT

    Orbital Energies [Eh]
    ---------------------

    Doubly Occupied:

       1A    -20.547566     2A    -20.533478     3A    -15.599371
       4A    -11.359780     5A    -11.298332     6A    -11.274464
       7A    -11.231358     8A    -11.224088     9A     -1.395898
      10A     -1.340235    11A     -1.245365    12A     -1.053819
      13A     -1.013796    14A     -0.903782    15A     -0.848666
      16A     -0.794147    17A     -0.743370    18A     -0.674563
      19A     -0.644985    20A     -0.637169    21A     -0.614204
      22A     -0.597865    23A     -0.580037    24A     -0.565185
      25A     -0.540291    26A     -0.531992    27A     -0.521889
      28A     -0.512546    29A     -0.502936    30A     -0.448630
      31A     -0.435587    32A     -0.404012

  @DF-RHF Final Energy:  -400.08672382313853

   => Energetics <=

    Nuclear Repulsion Energy =            400.3461388907992955
    One-Electron Energy =               -1339.6269167451653175
    Two-Electron Energy =                 539.1940540312275516
    Total Energy =                       -400.0867238231385272
  Basis Set: (AUG-CC-PVTZ AUX)
    Blend: AUG-CC-PVTZ-RI
    Molecular point group: c1

    Geometry (in Angstrom), charge = 0, multiplicity = 1:

       Center              X                  Y                   Z               Mass
    ------------   -----------------  -----------------  -----------------  -----------------
         O           -2.488921599768    -0.699493283770    -0.046030316708    15.994914619570
         O            0.013506400232    -1.341979283770    -0.532642316708    15.994914619570
         N            0.891919400232     0.301299716230     0.782834683292    14.003074004430
         C           -1.521396499768     0.267219416230     0.382440683292    12.000000000000
         C            2.274430400232    -0.102639283770     0.555160683292    12.000000000000
         C           -0.137601599768    -0.336566283770     0.176882683292    12.000000000000
         C           -1.686003599768     1.546870716230    -0.422435316708    12.000000000000
         C            2.832128400232     0.441510716230    -0.754233316708    12.000000000000
         H           -1.692674599768     0.455183716230     1.445733683292     1.007825032230
         H            2.862869400232     0.241052716230     1.410610683292     1.007825032230
         H            2.292574400232    -1.194793283770     0.550539683292     1.007825032230
         H            0.704054400232     1.150278716230     1.300520683292     1.007825032230
         H           -1.475755599768     1.346832716230    -1.476601316708     1.007825032230
         H           -1.009871599768     2.332074716230    -0.068397316708     1.007825032230
         H           -2.714712599768     1.903213716230    -0.335209316708     1.007825032230
         H            2.238190400232     0.066516716230    -1.590203316708     1.007825032230
         H            2.806192400232     1.534581716230    -0.764653316708     1.007825032230
         H            3.868707400232     0.119747716230    -0.892891316708     1.007825032230
         H           -1.960137599768    -1.368909283770    -0.532052316708     1.007825032230

  Basis Set: AUG-CC-PVTZ
    Blend: AUG-CC-PVTZ
  Basis Set: (AUG-CC-PVTZ AUX)
    Blend: AUG-CC-PVTZ-JKFIT
	 Reference Energy          =    -400.0867238231385272 [Eh]
	 Singles Energy            =      -0.0000000000000000 [Eh]
	 Same-Spin Energy          =      -0.4021195437567453 [Eh]
	 Opposite-Spin Energy      =      -1.3082486831843352 [Eh]
	 Correlation Energy        =      -1.7103682269410805 [Eh]
	 Total Energy              =    -401.7970920500795842 [Eh]

	 ================> DF-SCS-MP2 Energies <==================
	-----------------------------------------------------------
	 SCS Same-Spin Scale       =       0.3333333333333333 [-]
	 SCS Opposite-Spin Scale   =       1.2000000000000000 [-]
	 SCS Same-Spin Energy      =      -0.1340398479189151 [Eh]
	 SCS Opposite-Spin Energy  =      -1.5698984198212023 [Eh]
	 SCS Correlation Energy    =      -1.7039382677401174 [Eh]
	 SCS Total Energy          =    -401.7906620908786408 [Eh]
	-----------------------------------------------------------

  Dipole Moment: [D]
     X:     2.9061      Y:     3.1803      Z:     1.6214     Total:     4.6032

*** Psi4 exiting successfully. Buy a developer a beer!
