                               Psi4 1.3.2 release

  ==> Input File <==

--------------------------------------------------------------------------
#psi4
#
memory 32 gb

molecule  {
0 1
  O       -2.4963632    -0.6122419    -0.1617431
  O       -0.0069960    -1.4050930    -0.3804930
  N        0.8845720     0.3685180     0.7343320
  C       -1.5404070     0.3017530     0.3325960
  C        2.2569670    -0.1011270     0.6035390
  C       -0.1490540    -0.3186880     0.1981930
  C       -1.6556899     1.5995756    -0.4578703
  C        2.8658230     0.2522360    -0.7461750
  H       -1.7322500     0.4923850     1.3997900
  H        2.8336360     0.3321260     1.4253690
  H        2.2399750    -1.1846720     0.7384180
  H        0.7096630     1.2770080     1.1428940
  H       -1.3913480     1.4204780    -1.4971700
  H       -0.9867360     2.3841060    -0.0548340
  H       -2.6752710     1.9656290    -0.4028710
  H        2.2847230    -0.2144000    -1.5438430
  H        2.8717410     1.3343490    -0.8997070
  H        3.8959980    -0.1107530    -0.8084670
  H       -1.9544520    -1.3731060    -0.4835650
units angstrom
no_reorient  #important for SAPT in psi4, default
symmetry c1  #important for SAPT in psi4, default
}

set PROPERTIES_ORIGIN ["COM"]
properties('MP2/aug-cc-pvtz', properties = ['dipole'])
--------------------------------------------------------------------------

    Molecular point group: c1
  Charge       = 0
  Multiplicity = 1
  Basis Set: AUG-CC-PVTZ
    Blend: AUG-CC-PVTZ
  Basis Set: (AUG-CC-PVTZ AUX)
    Blend: AUG-CC-PVTZ-JKFIT

    Orbital Energies [Eh]
    ---------------------

    Doubly Occupied:

       1A    -20.548740     2A    -20.533764     3A    -15.599003
       4A    -11.359399     5A    -11.297972     6A    -11.274128
       7A    -11.230760     8A    -11.223353     9A     -1.398256
      10A     -1.346001    11A     -1.245962    12A     -1.052311
      13A     -1.012536    14A     -0.902973    15A     -0.848941
      16A     -0.794211    17A     -0.744150    18A     -0.676583
      19A     -0.647851    20A     -0.641622    21A     -0.613339
      22A     -0.597543    23A     -0.576074    24A     -0.564431
      25A     -0.542360    26A     -0.533224    27A     -0.521641
      28A     -0.514815    29A     -0.502251    30A     -0.445172
      31A     -0.436747    32A     -0.403728

  @DF-RHF Final Energy:  -400.08713885590078

   => Energetics <=

    Nuclear Repulsion Energy =            400.5614107241867146
    One-Electron Energy =               -1340.0374117297185421
    Two-Electron Energy =                 539.3888621496309952
    Total Energy =                       -400.0871388559007755
  Basis Set: (AUG-CC-PVTZ AUX)
    Blend: AUG-CC-PVTZ-RI
    Molecular point group: c1

    Geometry (in Angstrom), charge = 0, multiplicity = 1:

       Center              X                  Y                   Z               Mass
    ------------   -----------------  -----------------  -----------------  -----------------
         O           -2.494832247088    -0.612847554361    -0.159877623310    15.994914619570
         O           -0.005465047088    -1.405698654361    -0.378627523310    15.994914619570
         N            0.886102952912     0.367912345639     0.736197476690    14.003074004430
         C           -1.538876047088     0.301147345639     0.334461476690    12.000000000000
         C            2.258497952912    -0.101732654361     0.605404476690    12.000000000000
         C           -0.147523047088    -0.319293654361     0.200058476690    12.000000000000
         C           -1.654158947088     1.598969945639    -0.456004823310    12.000000000000
         C            2.867353952912     0.251630345639    -0.744309523310    12.000000000000
         H           -1.730719047088     0.491779345639     1.401655476690     1.007825032230
         H            2.835166952912     0.331520345639     1.427234476690     1.007825032230
         H            2.241505952912    -1.185277654361     0.740283476690     1.007825032230
         H            0.711193952912     1.276402345639     1.144759476690     1.007825032230
         H           -1.389817047088     1.419872345639    -1.495304523310     1.007825032230
         H           -0.985205047088     2.383500345639    -0.052968523310     1.007825032230
         H           -2.673740047088     1.965023345639    -0.401005523310     1.007825032230
         H            2.286253952912    -0.215005654361    -1.541977523310     1.007825032230
         H            2.873271952912     1.333743345639    -0.897841523310     1.007825032230
         H            3.897528952912    -0.111358654361    -0.806601523310     1.007825032230
         H           -1.952921047088    -1.373711654361    -0.481699523310     1.007825032230

  Basis Set: AUG-CC-PVTZ
    Blend: AUG-CC-PVTZ
  Basis Set: (AUG-CC-PVTZ AUX)
    Blend: AUG-CC-PVTZ-JKFIT
	 Reference Energy          =    -400.0871388559007755 [Eh]
	 Singles Energy            =      -0.0000000000000000 [Eh]
	 Same-Spin Energy          =      -0.4022091077494041 [Eh]
	 Opposite-Spin Energy      =      -1.3079046851965681 [Eh]
	 Correlation Energy        =      -1.7101137929459722 [Eh]
	 Total Energy              =    -401.7972526488467224 [Eh]

	 ================> DF-SCS-MP2 Energies <==================
	-----------------------------------------------------------
	 SCS Same-Spin Scale       =       0.3333333333333333 [-]
	 SCS Opposite-Spin Scale   =       1.2000000000000000 [-]
	 SCS Same-Spin Energy      =      -0.1340697025831347 [Eh]
	 SCS Opposite-Spin Energy  =      -1.5694856222358817 [Eh]
	 SCS Correlation Energy    =      -1.7035553248190165 [Eh]
	 SCS Total Energy          =    -401.7906941807198109 [Eh]
	-----------------------------------------------------------

  Dipole Moment: [D]
     X:     2.9119      Y:     3.1226      Z:     1.5748     Total:     4.5508

*** Psi4 exiting successfully. Buy a developer a beer!
