                               Psi4 1.3.2 release

  ==> Input File <==

--------------------------------------------------------------------------
#psi4
#
memory 32 gb

molecule  {
0 1
  O       -2.4925410    -0.6205970    -0.1535330
  O       -0.0069960    -1.4050930    -0.3804930
  N        0.8845720     0.3685180     0.7343320
  C       -1.5404070     0.3017530     0.3325960
  C        2.2569670    -0.1011270     0.6035390
  C       -0.1490540    -0.3186880     0.1981930
  C       -1.6346152     1.5778880    -0.4950965
  C        2.8658230     0.2522360    -0.7461750
  H       -1.7269034     0.4549715     1.4067424
  H        2.8336360     0.3321260     1.4253690
  H        2.2399750    -1.1846720     0.7384180
  H        0.7096630     1.2770080     1.1428940
  H       -1.3913480     1.4204780    -1.4971700
  H       -0.9867360     2.3841060    -0.0548340
  H       -2.6752710     1.9656290    -0.4028710
  H        2.2847230    -0.2144000    -1.5438430
  H        2.8717410     1.3343490    -0.8997070
  H        3.8959980    -0.1107530    -0.8084670
  H       -1.9544520    -1.3731060    -0.4835650
units angstrom
no_reorient  #important for SAPT in psi4, default
symmetry c1  #important for SAPT in psi4, default
}

set PROPERTIES_ORIGIN ["COM"]
properties('MP2/aug-cc-pvtz', properties = ['dipole'])
--------------------------------------------------------------------------

    Molecular point group: c1
  Charge       = 0
  Multiplicity = 1
  Basis Set: AUG-CC-PVTZ
    Blend: AUG-CC-PVTZ
  Basis Set: (AUG-CC-PVTZ AUX)
    Blend: AUG-CC-PVTZ-JKFIT

    Orbital Energies [Eh]
    ---------------------

    Doubly Occupied:

       1A    -20.547290     2A    -20.532881     3A    -15.598435
       4A    -11.358063     5A    -11.298253     6A    -11.273842
       7A    -11.232135     8A    -11.223191     9A     -1.398031
      10A     -1.346318    11A     -1.245467    12A     -1.052490
      13A     -1.012443    14A     -0.903258    15A     -0.849751
      16A     -0.794002    17A     -0.744654    18A     -0.676497
      19A     -0.647628    20A     -0.640924    21A     -0.613830
      22A     -0.597915    23A     -0.582079    24A     -0.558790
      25A     -0.540950    26A     -0.535945    27A     -0.520124
      28A     -0.514008    29A     -0.501644    30A     -0.447014
      31A     -0.434345    32A     -0.403438

  @DF-RHF Final Energy:  -400.08420156610140

   => Energetics <=

    Nuclear Repulsion Energy =            400.8507644716855225
    One-Electron Energy =               -1340.6186612420044639
    Two-Electron Energy =                 539.6836952042174289
    Total Energy =                       -400.0842015661014557
  Basis Set: (AUG-CC-PVTZ AUX)
    Blend: AUG-CC-PVTZ-RI
    Molecular point group: c1

    Geometry (in Angstrom), charge = 0, multiplicity = 1:

       Center              X                  Y                   Z               Mass
    ------------   -----------------  -----------------  -----------------  -----------------
         O           -2.493738296034    -0.617516283176    -0.149033508627    15.994914619570
         O           -0.008193296034    -1.402012283176    -0.375993508627    15.994914619570
         N            0.883374703966     0.371598716824     0.738831491373    14.003074004430
         C           -1.541604296034     0.304833716824     0.337095491373    12.000000000000
         C            2.255769703966    -0.098046283176     0.608038491373    12.000000000000
         C           -0.150251296034    -0.315607283176     0.202692491373    12.000000000000
         C           -1.635812496034     1.580968716824    -0.490597008627    12.000000000000
         C            2.864625703966     0.255316716824    -0.741675508627    12.000000000000
         H           -1.728100696034     0.458052216824     1.411241891373     1.007825032230
         H            2.832438703966     0.335206716824     1.429868491373     1.007825032230
         H            2.238777703966    -1.181591283176     0.742917491373     1.007825032230
         H            0.708465703966     1.280088716824     1.147393491373     1.007825032230
         H           -1.392545296034     1.423558716824    -1.492670508627     1.007825032230
         H           -0.987933296034     2.387186716824    -0.050334508627     1.007825032230
         H           -2.676468296034     1.968709716824    -0.398371508627     1.007825032230
         H            2.283525703966    -0.211319283176    -1.539343508627     1.007825032230
         H            2.870543703966     1.337429716824    -0.895207508627     1.007825032230
         H            3.894800703966    -0.107672283176    -0.803967508627     1.007825032230
         H           -1.955649296034    -1.370025283176    -0.479065508627     1.007825032230

  Basis Set: AUG-CC-PVTZ
    Blend: AUG-CC-PVTZ
  Basis Set: (AUG-CC-PVTZ AUX)
    Blend: AUG-CC-PVTZ-JKFIT
	 Reference Energy          =    -400.0842015661013988 [Eh]
	 Singles Energy            =      -0.0000000000000000 [Eh]
	 Same-Spin Energy          =      -0.4021861887320636 [Eh]
	 Opposite-Spin Energy      =      -1.3078587231351948 [Eh]
	 Correlation Energy        =      -1.7100449118672585 [Eh]
	 Total Energy              =    -401.7942464779686702 [Eh]

	 ================> DF-SCS-MP2 Energies <==================
	-----------------------------------------------------------
	 SCS Same-Spin Scale       =       0.3333333333333333 [-]
	 SCS Opposite-Spin Scale   =       1.2000000000000000 [-]
	 SCS Same-Spin Energy      =      -0.1340620629106878 [Eh]
	 SCS Opposite-Spin Energy  =      -1.5694304677622337 [Eh]
	 SCS Correlation Energy    =      -1.7034925306729216 [Eh]
	 SCS Total Energy          =    -401.7876940967743167 [Eh]
	-----------------------------------------------------------

  Dipole Moment: [D]
     X:     2.8973      Y:     3.1375      Z:     1.5486     Total:     4.5427

*** Psi4 exiting successfully. Buy a developer a beer!
