                               Psi4 1.4a3.dev225

  ==> Input File <==

--------------------------------------------------------------------------
#psi4
#
memory 32 gb

molecule  {
0 1
  O       -2.5334200    -0.7491890    -0.0380440
  O       -0.0309920    -1.3916750    -0.5246560
  N        0.8474210     0.2516040     0.7908210
  C       -1.5928971     0.1905443     0.3784690
  C        2.2299320    -0.1523350     0.5631470
  C       -0.1821000    -0.3862620     0.1848690
  C       -1.7305020     1.4971750    -0.4144490
  C        2.7876300     0.3918150    -0.7462470
  H       -1.7371730     0.4054880     1.4537200
  H        2.8183710     0.1913570     1.4185970
  H        2.2480760    -1.2444890     0.5585260
  H        0.6595560     1.1005830     1.3085070
  H       -1.5202540     1.2971370    -1.4686150
  H       -1.0543700     2.2823790    -0.0604110
  H       -2.7592110     1.8535180    -0.3272230
  H        2.1936920     0.0168210    -1.5822170
  H        2.7616940     1.4848860    -0.7566670
  H        3.8242090     0.0700520    -0.8849050
  H       -2.0046360    -1.4186050    -0.5240660
units angstrom
no_reorient  #important for SAPT in psi4, default
symmetry c1  #important for SAPT in psi4, default
}

set PROPERTIES_ORIGIN ["COM"]
properties('MP2/aug-cc-pvtz', properties = ['dipole'])
--------------------------------------------------------------------------

    Molecular point group: c1
  Charge       = 0
  Multiplicity = 1
  Basis Set: AUG-CC-PVTZ
    Blend: AUG-CC-PVTZ
  Basis Set: (AUG-CC-PVTZ AUX)
    Blend: AUG-CC-PVTZ-JKFIT

    Orbital Energies [Eh]
    ---------------------

    Doubly Occupied:

       1A    -20.551518     2A    -20.532572     3A    -15.599021
       4A    -11.358587     5A    -11.298967     6A    -11.274314
       7A    -11.230070     8A    -11.223771     9A     -1.399036
      10A     -1.353123    11A     -1.244296    12A     -1.049662
      13A     -1.011609    14A     -0.900949    15A     -0.848189
      16A     -0.793484    17A     -0.747943    18A     -0.675350
      19A     -0.646137    20A     -0.637908    21A     -0.614994
      22A     -0.597950    23A     -0.583295    24A     -0.563897
      25A     -0.543552    26A     -0.533598    27A     -0.521086
      28A     -0.513485    29A     -0.502777    30A     -0.445638
      31A     -0.432037    32A     -0.403454

  @DF-RHF Final Energy:  -400.08772962271826

   => Energetics <=

    Nuclear Repulsion Energy =            400.4366199095835555
    One-Electron Energy =               -1339.7841644063244075
    Two-Electron Energy =                 539.2598148740225952
    Total Energy =                       -400.0877296227182569
  Basis Set: (AUG-CC-PVTZ AUX)
    Blend: AUG-CC-PVTZ-RI
    Molecular point group: c1

    Geometry (in Angstrom), charge = 0, multiplicity = 1:

       Center              X                  Y                   Z               Mass
    ------------   -----------------  -----------------  -----------------  -----------------
         O           -2.486154011565    -0.696728032451    -0.044804682510    15.994914619570
         O            0.016273988435    -1.339214032451    -0.531416682510    15.994914619570
         N            0.894686988435     0.304064967549     0.784060317490    14.003074004430
         C           -1.545631111565     0.243005267549     0.371708317490    12.000000000000
         C            2.277197988435    -0.099874032451     0.556386317490    12.000000000000
         C           -0.134834011565    -0.333801032451     0.178108317490    12.000000000000
         C           -1.683236011565     1.549635967549    -0.421209682510    12.000000000000
         C            2.834895988435     0.444275967549    -0.753007682510    12.000000000000
         H           -1.689907011565     0.457948967549     1.446959317490     1.007825032230
         H            2.865636988435     0.243817967549     1.411836317490     1.007825032230
         H            2.295341988435    -1.192028032451     0.551765317490     1.007825032230
         H            0.706821988435     1.153043967549     1.301746317490     1.007825032230
         H           -1.472988011565     1.349597967549    -1.475375682510     1.007825032230
         H           -1.007104011565     2.334839967549    -0.067171682510     1.007825032230
         H           -2.711945011565     1.905978967549    -0.333983682510     1.007825032230
         H            2.240957988435     0.069281967549    -1.588977682510     1.007825032230
         H            2.808959988435     1.537346967549    -0.763427682510     1.007825032230
         H            3.871474988435     0.122512967549    -0.891665682510     1.007825032230
         H           -1.957370011565    -1.366144032451    -0.530826682510     1.007825032230

  Basis Set: AUG-CC-PVTZ
    Blend: AUG-CC-PVTZ
  Basis Set: (AUG-CC-PVTZ AUX)
    Blend: AUG-CC-PVTZ-JKFIT
	 Reference Energy          =    -400.0877296227182569 [Eh]
	 Singles Energy            =      -0.0000000000000000 [Eh]
	 Same-Spin Energy          =      -0.4019529244176703 [Eh]
	 Opposite-Spin Energy      =      -1.3074209320946202 [Eh]
	 Correlation Energy        =      -1.7093738565122905 [Eh]
	 Total Energy              =    -401.7971034792305431 [Eh]

	 ================> DF-SCS-MP2 Energies <==================
	-----------------------------------------------------------
	 SCS Same-Spin Scale       =       0.3333333333333333 [-]
	 SCS Opposite-Spin Scale   =       1.2000000000000000 [-]
	 SCS Same-Spin Energy      =      -0.1339843081392234 [Eh]
	 SCS Opposite-Spin Energy  =      -1.5689051185135441 [Eh]
	 SCS Correlation Energy    =      -1.7028894266527674 [Eh]
	 SCS Total Energy          =    -401.7906190493710028 [Eh]
	-----------------------------------------------------------

  Dipole Moment: [D]
     X:     2.8279      Y:     3.0773      Z:     1.5964     Total:     4.4738

*** Psi4 exiting successfully. Buy a developer a beer!
