                               Psi4 1.3.2 release

  ==> Input File <==

--------------------------------------------------------------------------
#psi4
#
memory 32 gb

molecule  {
0 1
  O       -2.4925410    -0.6205970    -0.1535330
  O       -0.0069960    -1.4050930    -0.3804930
  N        0.8845720     0.3685180     0.7343320
  C       -1.5404070     0.3017530     0.3325960
  C        2.0685048    -0.0366337     0.6215000
  C       -0.1490540    -0.3186880     0.1981930
  C       -1.6458490     1.6048030    -0.4506110
  C        2.8658230     0.2522360    -0.7461750
  H       -1.7322500     0.4923850     1.3997900
  H        2.8336360     0.3321260     1.4253690
  H        2.2399750    -1.1846720     0.7384180
  H        0.7096630     1.2770080     1.1428940
  H       -1.3913480     1.4204780    -1.4971700
  H       -0.9867360     2.3841060    -0.0548340
  H       -2.6752710     1.9656290    -0.4028710
  H        2.2847230    -0.2144000    -1.5438430
  H        2.8717410     1.3343490    -0.8997070
  H        3.8959980    -0.1107530    -0.8084670
  H       -1.9544520    -1.3731060    -0.4835650
units angstrom
no_reorient  #important for SAPT in psi4, default
symmetry c1  #important for SAPT in psi4, default
}

set PROPERTIES_ORIGIN ["COM"]
properties('MP2/aug-cc-pvtz', properties = ['dipole'])
--------------------------------------------------------------------------

    Molecular point group: c1
  Charge       = 0
  Multiplicity = 1
  Basis Set: AUG-CC-PVTZ
    Blend: AUG-CC-PVTZ
  Basis Set: (AUG-CC-PVTZ AUX)
    Blend: AUG-CC-PVTZ-JKFIT

    Orbital Energies [Eh]
    ---------------------

    Doubly Occupied:

       1A    -20.553730     2A    -20.543946     3A    -15.605742
       4A    -11.367787     5A    -11.304439     6A    -11.273609
       7A    -11.235903     8A    -11.218348     9A     -1.412747
      10A     -1.355940    11A     -1.300923    12A     -1.058043
      13A     -0.996843    14A     -0.919473    15A     -0.851051
      16A     -0.816943    17A     -0.749230    18A     -0.701686
      19A     -0.666790    20A     -0.650287    21A     -0.625766
      22A     -0.585117    23A     -0.577268    24A     -0.569448
      25A     -0.545885    26A     -0.537695    27A     -0.525669
      28A     -0.503961    29A     -0.471465    30A     -0.450541
      31A     -0.445557    32A     -0.383860

  @DF-RHF Final Energy:  -400.03735998693543

   => Energetics <=

    Nuclear Repulsion Energy =            403.7717437239202809
    One-Electron Energy =               -1346.0068238856683820
    Two-Electron Energy =                 542.1977201748127300
    Total Energy =                       -400.0373599869353711
  Basis Set: (AUG-CC-PVTZ AUX)
    Blend: AUG-CC-PVTZ-RI
    Molecular point group: c1

    Geometry (in Angstrom), charge = 0, multiplicity = 1:

       Center              X                  Y                   Z               Mass
    ------------   -----------------  -----------------  -----------------  -----------------
         O           -2.473224447467    -0.627207227490    -0.155374110553    15.994914619570
         O            0.012320552533    -1.411703227490    -0.382334110553    15.994914619570
         N            0.903888552533     0.361907772510     0.732490889447    14.003074004430
         C           -1.521090447467     0.295142772510     0.330754889447    12.000000000000
         C            2.087821352533    -0.043243927490     0.619658889447    12.000000000000
         C           -0.129737447467    -0.325298227490     0.196351889447    12.000000000000
         C           -1.626532447467     1.598192772510    -0.452452110553    12.000000000000
         C            2.885139552533     0.245625772510    -0.748016110553    12.000000000000
         H           -1.712933447467     0.485774772510     1.397948889447     1.007825032230
         H            2.852952552533     0.325515772510     1.423527889447     1.007825032230
         H            2.259291552533    -1.191282227490     0.736576889447     1.007825032230
         H            0.728979552533     1.270397772510     1.141052889447     1.007825032230
         H           -1.372031447467     1.413867772510    -1.499011110553     1.007825032230
         H           -0.967419447467     2.377495772510    -0.056675110553     1.007825032230
         H           -2.655954447467     1.959018772510    -0.404712110553     1.007825032230
         H            2.304039552533    -0.221010227490    -1.545684110553     1.007825032230
         H            2.891057552533     1.327738772510    -0.901548110553     1.007825032230
         H            3.915314552533    -0.117363227490    -0.810308110553     1.007825032230
         H           -1.935135447467    -1.379716227490    -0.485406110553     1.007825032230

  Basis Set: AUG-CC-PVTZ
    Blend: AUG-CC-PVTZ
  Basis Set: (AUG-CC-PVTZ AUX)
    Blend: AUG-CC-PVTZ-JKFIT
	 Reference Energy          =    -400.0373599869354280 [Eh]
	 Singles Energy            =      -0.0000000000000000 [Eh]
	 Same-Spin Energy          =      -0.4047595902903683 [Eh]
	 Opposite-Spin Energy      =      -1.3106464570693308 [Eh]
	 Correlation Energy        =      -1.7154060473596990 [Eh]
	 Total Energy              =    -401.7527660342951208 [Eh]

	 ================> DF-SCS-MP2 Energies <==================
	-----------------------------------------------------------
	 SCS Same-Spin Scale       =       0.3333333333333333 [-]
	 SCS Opposite-Spin Scale   =       1.2000000000000000 [-]
	 SCS Same-Spin Energy      =      -0.1349198634301228 [Eh]
	 SCS Opposite-Spin Energy  =      -1.5727757484831970 [Eh]
	 SCS Correlation Energy    =      -1.7076956119133198 [Eh]
	 SCS Total Energy          =    -401.7450555988487508 [Eh]
	-----------------------------------------------------------

  Dipole Moment: [D]
     X:     2.1769      Y:     3.1922      Z:     1.6205     Total:     4.1899

*** Psi4 exiting successfully. Buy a developer a beer!
