                               Psi4 1.3.2 release

  ==> Input File <==

--------------------------------------------------------------------------
#psi4
#
memory 32 gb

molecule  {
0 1
  O       -2.4925410    -0.6205970    -0.1535330
  O       -0.0069960    -1.4050930    -0.3804930
  N        0.8845720     0.3685180     0.7343320
  C       -1.5404070     0.3017530     0.3325960
  C        2.2569670    -0.1011270     0.6035390
  C       -0.1490540    -0.3186880     0.1981930
  C       -1.6402473     1.5915419    -0.4729764
  C        2.8658230     0.2522360    -0.7461750
  H       -1.7296055     0.4737044     1.4034293
  H        2.8336360     0.3321260     1.4253690
  H        2.2399750    -1.1846720     0.7384180
  H        0.7096630     1.2770080     1.1428940
  H       -1.3913480     1.4204780    -1.4971700
  H       -0.9867360     2.3841060    -0.0548340
  H       -2.6752710     1.9656290    -0.4028710
  H        2.2847230    -0.2144000    -1.5438430
  H        2.8717410     1.3343490    -0.8997070
  H        3.8959980    -0.1107530    -0.8084670
  H       -1.9544520    -1.3731060    -0.4835650
units angstrom
no_reorient  #important for SAPT in psi4, default
symmetry c1  #important for SAPT in psi4, default
}

set PROPERTIES_ORIGIN ["COM"]
properties('MP2/aug-cc-pvtz', properties = ['dipole'])
--------------------------------------------------------------------------

    Molecular point group: c1
  Charge       = 0
  Multiplicity = 1
  Basis Set: AUG-CC-PVTZ
    Blend: AUG-CC-PVTZ
  Basis Set: (AUG-CC-PVTZ AUX)
    Blend: AUG-CC-PVTZ-JKFIT

    Orbital Energies [Eh]
    ---------------------

    Doubly Occupied:

       1A    -20.547897     2A    -20.533128     3A    -15.598623
       4A    -11.358532     5A    -11.298159     6A    -11.273926
       7A    -11.231484     8A    -11.223235     9A     -1.398165
      10A     -1.346446    11A     -1.245629    12A     -1.052586
      13A     -1.012564    14A     -0.902937    15A     -0.849368
      16A     -0.794026    17A     -0.744691    18A     -0.676617
      19A     -0.647782    20A     -0.641209    21A     -0.613411
      22A     -0.597645    23A     -0.578740    24A     -0.560587
      25A     -0.542652    26A     -0.535828    27A     -0.520786
      28A     -0.514352    29A     -0.501922    30A     -0.446469
      31A     -0.435283    32A     -0.403497

  @DF-RHF Final Energy:  -400.08695443922397

   => Energetics <=

    Nuclear Repulsion Energy =            400.7362970943284495
    One-Electron Energy =               -1340.3901490595626456
    Two-Electron Energy =                 539.5668975260102798
    Total Energy =                       -400.0869544392239732
  Basis Set: (AUG-CC-PVTZ AUX)
    Blend: AUG-CC-PVTZ-RI
    Molecular point group: c1

    Geometry (in Angstrom), charge = 0, multiplicity = 1:

       Center              X                  Y                   Z               Mass
    ------------   -----------------  -----------------  -----------------  -----------------
         O           -2.493137774533    -0.619076992774    -0.151272186979    15.994914619570
         O           -0.007592774533    -1.403572992774    -0.378232186979    15.994914619570
         N            0.883975225467     0.370038007226     0.736592813021    14.003074004430
         C           -1.541003774533     0.303273007226     0.334856813021    12.000000000000
         C            2.256370225467    -0.099606992774     0.605799813021    12.000000000000
         C           -0.149650774533    -0.317167992774     0.200453813021    12.000000000000
         C           -1.640844074533     1.593061907226    -0.470715586979    12.000000000000
         C            2.865226225467     0.253756007226    -0.743914186979    12.000000000000
         H           -1.730202274533     0.475224407226     1.405690113021     1.007825032230
         H            2.833039225467     0.333646007226     1.427629813021     1.007825032230
         H            2.239378225467    -1.183151992774     0.740678813021     1.007825032230
         H            0.709066225467     1.278528007226     1.145154813021     1.007825032230
         H           -1.391944774533     1.421998007226    -1.494909186979     1.007825032230
         H           -0.987332774533     2.385626007226    -0.052573186979     1.007825032230
         H           -2.675867774533     1.967149007226    -0.400610186979     1.007825032230
         H            2.284126225467    -0.212879992774    -1.541582186979     1.007825032230
         H            2.871144225467     1.335869007226    -0.897446186979     1.007825032230
         H            3.895401225467    -0.109232992774    -0.806206186979     1.007825032230
         H           -1.955048774533    -1.371585992774    -0.481304186979     1.007825032230

  Basis Set: AUG-CC-PVTZ
    Blend: AUG-CC-PVTZ
  Basis Set: (AUG-CC-PVTZ AUX)
    Blend: AUG-CC-PVTZ-JKFIT
	 Reference Energy          =    -400.0869544392239732 [Eh]
	 Singles Energy            =      -0.0000000000000000 [Eh]
	 Same-Spin Energy          =      -0.4021344508129167 [Eh]
	 Opposite-Spin Energy      =      -1.3077272411886625 [Eh]
	 Correlation Energy        =      -1.7098616920015792 [Eh]
	 Total Energy              =    -401.7968161312255688 [Eh]

	 ================> DF-SCS-MP2 Energies <==================
	-----------------------------------------------------------
	 SCS Same-Spin Scale       =       0.3333333333333333 [-]
	 SCS Opposite-Spin Scale   =       1.2000000000000000 [-]
	 SCS Same-Spin Energy      =      -0.1340448169376389 [Eh]
	 SCS Opposite-Spin Energy  =      -1.5692726894263949 [Eh]
	 SCS Correlation Energy    =      -1.7033175063640338 [Eh]
	 SCS Total Energy          =    -401.7902719455880174 [Eh]
	-----------------------------------------------------------

  Dipole Moment: [D]
     X:     2.9003      Y:     3.1438      Z:     1.5534     Total:     4.5506

*** Psi4 exiting successfully. Buy a developer a beer!
