                               Psi4 1.3.2 release

  ==> Input File <==

--------------------------------------------------------------------------
#psi4
#
memory 32 gb

molecule  {
0 1
  O       -2.4925410    -0.6205970    -0.1535330
  O       -0.0069960    -1.4050930    -0.3804930
  N        0.8845720     0.3685180     0.7343320
  C       -1.4055393     0.4324019     0.4014551
  C        2.2569670    -0.1011270     0.6035390
  C       -0.1490540    -0.3186880     0.1981930
  C       -1.6458490     1.6048030    -0.4506110
  C        2.8658230     0.2522360    -0.7461750
  H       -1.7322500     0.4923850     1.3997900
  H        2.8336360     0.3321260     1.4253690
  H        2.2399750    -1.1846720     0.7384180
  H        0.7096630     1.2770080     1.1428940
  H       -1.3913480     1.4204780    -1.4971700
  H       -0.9867360     2.3841060    -0.0548340
  H       -2.6752710     1.9656290    -0.4028710
  H        2.2847230    -0.2144000    -1.5438430
  H        2.8717410     1.3343490    -0.8997070
  H        3.8959980    -0.1107530    -0.8084670
  H       -1.9544520    -1.3731060    -0.4835650
units angstrom
no_reorient  #important for SAPT in psi4, default
symmetry c1  #important for SAPT in psi4, default
}

set PROPERTIES_ORIGIN ["COM"]
properties('MP2/aug-cc-pvtz', properties = ['dipole'])
--------------------------------------------------------------------------

    Molecular point group: c1
  Charge       = 0
  Multiplicity = 1
  Basis Set: AUG-CC-PVTZ
    Blend: AUG-CC-PVTZ
  Basis Set: (AUG-CC-PVTZ AUX)
    Blend: AUG-CC-PVTZ-JKFIT

    Orbital Energies [Eh]
    ---------------------

    Doubly Occupied:

       1A    -20.538344     2A    -20.528567     3A    -15.600816
       4A    -11.365677     5A    -11.301945     6A    -11.274750
       7A    -11.237940     8A    -11.224833     9A     -1.395457
      10A     -1.287015    11A     -1.252463    12A     -1.074000
      13A     -1.020968    14A     -0.917335    15A     -0.851636
      16A     -0.798959    17A     -0.736912    18A     -0.673807
      19A     -0.648540    20A     -0.633737    21A     -0.613790
      22A     -0.601453    23A     -0.583568    24A     -0.562701
      25A     -0.539513    26A     -0.529021    27A     -0.523768
      28A     -0.504848    29A     -0.475589    30A     -0.446652
      31A     -0.445066    32A     -0.406154

  @DF-RHF Final Energy:  -400.05049516804371

   => Energetics <=

    Nuclear Repulsion Energy =            400.2480669268144879
    One-Electron Energy =               -1339.4054733056025270
    Two-Electron Energy =                 539.1069112107442152
    Total Energy =                       -400.0504951680437671
  Basis Set: (AUG-CC-PVTZ AUX)
    Blend: AUG-CC-PVTZ-RI
    Molecular point group: c1

    Geometry (in Angstrom), charge = 0, multiplicity = 1:

       Center              X                  Y                   Z               Mass
    ------------   -----------------  -----------------  -----------------  -----------------
         O           -2.506364118196    -0.633987840111    -0.160590907004    15.994914619570
         O           -0.020819118196    -1.418483840111    -0.387550907004    15.994914619570
         N            0.870748881804     0.355127159889     0.727274092996    14.003074004430
         C           -1.419362418196     0.419011059889     0.394397192996    12.000000000000
         C            2.243143881804    -0.114517840111     0.596481092996    12.000000000000
         C           -0.162877118196    -0.332078840111     0.191135092996    12.000000000000
         C           -1.659672118196     1.591412159889    -0.457668907004    12.000000000000
         C            2.851999881804     0.238845159889    -0.753232907004    12.000000000000
         H           -1.746073118196     0.478994159889     1.392732092996     1.007825032230
         H            2.819812881804     0.318735159889     1.418311092996     1.007825032230
         H            2.226151881804    -1.198062840111     0.731360092996     1.007825032230
         H            0.695839881804     1.263617159889     1.135836092996     1.007825032230
         H           -1.405171118196     1.407087159889    -1.504227907004     1.007825032230
         H           -1.000559118196     2.370715159889    -0.061891907004     1.007825032230
         H           -2.689094118196     1.952238159889    -0.409928907004     1.007825032230
         H            2.270899881804    -0.227790840111    -1.550900907004     1.007825032230
         H            2.857917881804     1.320958159889    -0.906764907004     1.007825032230
         H            3.882174881804    -0.124143840111    -0.815524907004     1.007825032230
         H           -1.968275118196    -1.386496840111    -0.490622907004     1.007825032230

  Basis Set: AUG-CC-PVTZ
    Blend: AUG-CC-PVTZ
  Basis Set: (AUG-CC-PVTZ AUX)
    Blend: AUG-CC-PVTZ-JKFIT
	 Reference Energy          =    -400.0504951680437102 [Eh]
	 Singles Energy            =      -0.0000000000000000 [Eh]
	 Same-Spin Energy          =      -0.4044558775759934 [Eh]
	 Opposite-Spin Energy      =      -1.3146392666322781 [Eh]
	 Correlation Energy        =      -1.7190951442082716 [Eh]
	 Total Energy              =    -401.7695903122519780 [Eh]

	 ================> DF-SCS-MP2 Energies <==================
	-----------------------------------------------------------
	 SCS Same-Spin Scale       =       0.3333333333333333 [-]
	 SCS Opposite-Spin Scale   =       1.2000000000000000 [-]
	 SCS Same-Spin Energy      =      -0.1348186258586645 [Eh]
	 SCS Opposite-Spin Energy  =      -1.5775671199587338 [Eh]
	 SCS Correlation Energy    =      -1.7123857458173983 [Eh]
	 SCS Total Energy          =    -401.7628809138611246 [Eh]
	-----------------------------------------------------------

  Dipole Moment: [D]
     X:     3.2358      Y:     3.5465      Z:     1.6708     Total:     5.0833

*** Psi4 exiting successfully. Buy a developer a beer!
