                               Psi4 1.3.2 release

  ==> Input File <==

--------------------------------------------------------------------------
#psi4
#
memory 32 gb

molecule  {
0 1
  O       -2.4925410    -0.6205970    -0.1535330
  O       -0.0069960    -1.4050930    -0.3804930
  N        0.8845720     0.3685180     0.7343320
  C       -1.5404070     0.3017530     0.3325960
  C        2.2569670    -0.1011270     0.6035390
  C       -0.1490540    -0.3186880     0.1981930
  C       -1.6430521     1.5982218    -0.4618240
  C        2.8658230     0.2522360    -0.7461750
  H       -1.7309350     0.4830516     1.4016504
  H        2.8336360     0.3321260     1.4253690
  H        2.2399750    -1.1846720     0.7384180
  H        0.7096630     1.2770080     1.1428940
  H       -1.3913480     1.4204780    -1.4971700
  H       -0.9867360     2.3841060    -0.0548340
  H       -2.6752710     1.9656290    -0.4028710
  H        2.2847230    -0.2144000    -1.5438430
  H        2.8717410     1.3343490    -0.8997070
  H        3.8959980    -0.1107530    -0.8084670
  H       -1.9544520    -1.3731060    -0.4835650
units angstrom
no_reorient  #important for SAPT in psi4, default
symmetry c1  #important for SAPT in psi4, default
}

set PROPERTIES_ORIGIN ["COM"]
properties('MP2/aug-cc-pvtz', properties = ['dipole'])
--------------------------------------------------------------------------

    Molecular point group: c1
  Charge       = 0
  Multiplicity = 1
  Basis Set: AUG-CC-PVTZ
    Blend: AUG-CC-PVTZ
  Basis Set: (AUG-CC-PVTZ AUX)
    Blend: AUG-CC-PVTZ-JKFIT

    Orbital Energies [Eh]
    ---------------------

    Doubly Occupied:

       1A    -20.548215     2A    -20.533259     3A    -15.598721
       4A    -11.358778     5A    -11.298158     6A    -11.273970
       7A    -11.231259     8A    -11.223257     9A     -1.398243
      10A     -1.346528    11A     -1.245715    12A     -1.052665
      13A     -1.012659    14A     -0.902836    15A     -0.849221
      16A     -0.794053    17A     -0.744754    18A     -0.676670
      19A     -0.647868    20A     -0.641340    21A     -0.613341
      22A     -0.597647    23A     -0.577695    24A     -0.561878
      25A     -0.543011    26A     -0.535148    27A     -0.521068
      28A     -0.514472    29A     -0.502041    30A     -0.446110
      31A     -0.435729    32A     -0.403527

  @DF-RHF Final Energy:  -400.08761303908312

   => Energetics <=

    Nuclear Repulsion Energy =            400.6807224204804356
    One-Electron Energy =               -1340.2769983793807569
    Two-Electron Energy =                 539.5086629198171977
    Total Energy =                       -400.0876130390831804
  Basis Set: (AUG-CC-PVTZ AUX)
    Blend: AUG-CC-PVTZ-RI
    Molecular point group: c1

    Geometry (in Angstrom), charge = 0, multiplicity = 1:

       Center              X                  Y                   Z               Mass
    ------------   -----------------  -----------------  -----------------  -----------------
         O           -2.492838852354    -0.619842109990    -0.152399938362    15.994914619570
         O           -0.007293852354    -1.404338109990    -0.379359938362    15.994914619570
         N            0.884274147646     0.369272890010     0.735465061638    14.003074004430
         C           -1.540704852354     0.302507890010     0.333729061638    12.000000000000
         C            2.256669147646    -0.100372109990     0.604672061638    12.000000000000
         C           -0.149351852354    -0.317933109990     0.199326061638    12.000000000000
         C           -1.643349952354     1.598976690010    -0.460690938362    12.000000000000
         C            2.865525147646     0.252990890010    -0.745041938362    12.000000000000
         H           -1.731232852354     0.483806490010     1.402783461638     1.007825032230
         H            2.833338147646     0.332880890010     1.426502061638     1.007825032230
         H            2.239677147646    -1.183917109990     0.739551061638     1.007825032230
         H            0.709365147646     1.277762890010     1.144027061638     1.007825032230
         H           -1.391645852354     1.421232890010    -1.496036938362     1.007825032230
         H           -0.987033852354     2.384860890010    -0.053700938362     1.007825032230
         H           -2.675568852354     1.966383890010    -0.401737938362     1.007825032230
         H            2.284425147646    -0.213645109990    -1.542709938362     1.007825032230
         H            2.871443147646     1.335103890010    -0.898573938362     1.007825032230
         H            3.895700147646    -0.109998109990    -0.807333938362     1.007825032230
         H           -1.954749852354    -1.372351109990    -0.482431938362     1.007825032230

  Basis Set: AUG-CC-PVTZ
    Blend: AUG-CC-PVTZ
  Basis Set: (AUG-CC-PVTZ AUX)
    Blend: AUG-CC-PVTZ-JKFIT
	 Reference Energy          =    -400.0876130390831236 [Eh]
	 Singles Energy            =      -0.0000000000000000 [Eh]
	 Same-Spin Energy          =      -0.4021216464305187 [Eh]
	 Opposite-Spin Energy      =      -1.3076958861151566 [Eh]
	 Correlation Energy        =      -1.7098175325456753 [Eh]
	 Total Energy              =    -401.7974305716288086 [Eh]

	 ================> DF-SCS-MP2 Energies <==================
	-----------------------------------------------------------
	 SCS Same-Spin Scale       =       0.3333333333333333 [-]
	 SCS Opposite-Spin Scale   =       1.2000000000000000 [-]
	 SCS Same-Spin Energy      =      -0.1340405488101729 [Eh]
	 SCS Opposite-Spin Energy  =      -1.5692350633381880 [Eh]
	 SCS Correlation Energy    =      -1.7032756121483610 [Eh]
	 SCS Total Energy          =    -401.7908886512315121 [Eh]
	-----------------------------------------------------------

  Dipole Moment: [D]
     X:     2.9016      Y:     3.1463      Z:     1.5565     Total:     4.5542

*** Psi4 exiting successfully. Buy a developer a beer!
