                               Psi4 1.3.2 release

  ==> Input File <==

--------------------------------------------------------------------------
#psi4
#
memory 32 gb

molecule  {
0 1
  O       -2.5454244    -0.5715065    -0.1374763
  O       -0.0069960    -1.4050930    -0.3804930
  N        0.8845720     0.3685180     0.7343320
  C       -1.5404070     0.3017530     0.3325960
  C        2.2569670    -0.1011270     0.6035390
  C       -0.1184704    -0.2517857     0.2298066
  C       -1.6458490     1.6048030    -0.4506110
  C        2.8658230     0.2522360    -0.7461750
  H       -1.7322500     0.4923850     1.3997900
  H        2.8336360     0.3321260     1.4253690
  H        2.2399750    -1.1846720     0.7384180
  H        0.7096630     1.2770080     1.1428940
  H       -1.3913480     1.4204780    -1.4971700
  H       -0.9867360     2.3841060    -0.0548340
  H       -2.6752710     1.9656290    -0.4028710
  H        2.2847230    -0.2144000    -1.5438430
  H        2.8717410     1.3343490    -0.8997070
  H        3.8959980    -0.1107530    -0.8084670
  H       -1.9544520    -1.3731060    -0.4835650
units angstrom
no_reorient  #important for SAPT in psi4, default
symmetry c1  #important for SAPT in psi4, default
}

set PROPERTIES_ORIGIN ["COM"]
properties('MP2/aug-cc-pvtz', properties = ['dipole'])
--------------------------------------------------------------------------

    Molecular point group: c1
  Charge       = 0
  Multiplicity = 1
  Basis Set: AUG-CC-PVTZ
    Blend: AUG-CC-PVTZ
  Basis Set: (AUG-CC-PVTZ AUX)
    Blend: AUG-CC-PVTZ-JKFIT

    Orbital Energies [Eh]
    ---------------------

    Doubly Occupied:

       1A    -20.552672     2A    -20.518208     3A    -15.615077
       4A    -11.358414     5A    -11.297633     6A    -11.282634
       7A    -11.229138     8A    -11.228666     9A     -1.372420
      10A     -1.332419    11A     -1.254936    12A     -1.059060
      13A     -1.017168    14A     -0.908542    15A     -0.853390
      16A     -0.810441    17A     -0.734818    18A     -0.679904
      19A     -0.645708    20A     -0.630366    21A     -0.619392
      22A     -0.593267    23A     -0.571054    24A     -0.560228
      25A     -0.547426    26A     -0.534138    27A     -0.517550
      28A     -0.504230    29A     -0.499143    30A     -0.439422
      31A     -0.427380    32A     -0.406490

  @DF-RHF Final Energy:  -400.06366842444658

   => Energetics <=

    Nuclear Repulsion Energy =            399.7542957976529578
    One-Electron Energy =               -1338.4332645863946709
    Two-Electron Energy =                 538.6153003642950807
    Total Energy =                       -400.0636684244466323
  Basis Set: (AUG-CC-PVTZ AUX)
    Blend: AUG-CC-PVTZ-RI
    Molecular point group: c1

    Geometry (in Angstrom), charge = 0, multiplicity = 1:

       Center              X                  Y                   Z               Mass
    ------------   -----------------  -----------------  -----------------  -----------------
         O           -2.541334185735    -0.585070207661    -0.142910342013    15.994914619570
         O           -0.002905785735    -1.418656707661    -0.385927042013    15.994914619570
         N            0.888662214265     0.354954292339     0.728897957987    14.003074004430
         C           -1.536316785735     0.288189292339     0.327161957987    12.000000000000
         C            2.261057214265    -0.114690707661     0.598104957987    12.000000000000
         C           -0.114380185735    -0.265349407661     0.224372557987    12.000000000000
         C           -1.641758785735     1.591239292339    -0.456045042013    12.000000000000
         C            2.869913214265     0.238672292339    -0.751609042013    12.000000000000
         H           -1.728159785735     0.478821292339     1.394355957987     1.007825032230
         H            2.837726214265     0.318562292339     1.419934957987     1.007825032230
         H            2.244065214265    -1.198235707661     0.732983957987     1.007825032230
         H            0.713753214265     1.263444292339     1.137459957987     1.007825032230
         H           -1.387257785735     1.406914292339    -1.502604042013     1.007825032230
         H           -0.982645785735     2.370542292339    -0.060268042013     1.007825032230
         H           -2.671180785735     1.952065292339    -0.408305042013     1.007825032230
         H            2.288813214265    -0.227963707661    -1.549277042013     1.007825032230
         H            2.875831214265     1.320785292339    -0.905141042013     1.007825032230
         H            3.900088214265    -0.124316707661    -0.813901042013     1.007825032230
         H           -1.950361785735    -1.386669707661    -0.488999042013     1.007825032230

  Basis Set: AUG-CC-PVTZ
    Blend: AUG-CC-PVTZ
  Basis Set: (AUG-CC-PVTZ AUX)
    Blend: AUG-CC-PVTZ-JKFIT
	 Reference Energy          =    -400.0636684244465755 [Eh]
	 Singles Energy            =      -0.0000000000000000 [Eh]
	 Same-Spin Energy          =      -0.4046154077914003 [Eh]
	 Opposite-Spin Energy      =      -1.3127289699048674 [Eh]
	 Correlation Energy        =      -1.7173443776962678 [Eh]
	 Total Energy              =    -401.7810128021428682 [Eh]

	 ================> DF-SCS-MP2 Energies <==================
	-----------------------------------------------------------
	 SCS Same-Spin Scale       =       0.3333333333333333 [-]
	 SCS Opposite-Spin Scale   =       1.2000000000000000 [-]
	 SCS Same-Spin Energy      =      -0.1348718025971334 [Eh]
	 SCS Opposite-Spin Energy  =      -1.5752747638858409 [Eh]
	 SCS Correlation Energy    =      -1.7101465664829743 [Eh]
	 SCS Total Energy          =    -401.7738149909295657 [Eh]
	-----------------------------------------------------------

  Dipole Moment: [D]
     X:     3.4364      Y:     3.4625      Z:     1.7873     Total:     5.1954

*** Psi4 exiting successfully. Buy a developer a beer!
