                               Psi4 1.4a3.dev225

  ==> Input File <==

--------------------------------------------------------------------------
#psi4
#
memory 32 gb

molecule  {
0 1
  O       -2.5334200    -0.7491890    -0.0380440
  O       -0.0309920    -1.3916750    -0.5246560
  N        0.8474210     0.2516040     0.7908210
  C       -1.5793960     0.2040340     0.3844480
  C        2.2299320    -0.1523350     0.5631470
  C       -0.2201110    -0.4098127     0.1624966
  C       -1.7305020     1.4971750    -0.4144490
  C        2.7876300     0.3918150    -0.7462470
  H       -1.7371730     0.4054880     1.4537200
  H        2.8183710     0.1913570     1.4185970
  H        2.2480760    -1.2444890     0.5585260
  H        0.6595560     1.1005830     1.3085070
  H       -1.5202540     1.2971370    -1.4686150
  H       -1.0543700     2.2823790    -0.0604110
  H       -2.7592110     1.8535180    -0.3272230
  H        2.1936920     0.0168210    -1.5822170
  H        2.7616940     1.4848860    -0.7566670
  H        3.8242090     0.0700520    -0.8849050
  H       -2.0046360    -1.4186050    -0.5240660
units angstrom
no_reorient  #important for SAPT in psi4, default
symmetry c1  #important for SAPT in psi4, default
}

set PROPERTIES_ORIGIN ["COM"]
properties('MP2/aug-cc-pvtz', properties = ['dipole'])
--------------------------------------------------------------------------

    Molecular point group: c1
  Charge       = 0
  Multiplicity = 1
  Basis Set: AUG-CC-PVTZ
    Blend: AUG-CC-PVTZ
  Basis Set: (AUG-CC-PVTZ AUX)
    Blend: AUG-CC-PVTZ-JKFIT

    Orbital Energies [Eh]
    ---------------------

    Doubly Occupied:

       1A    -20.551889     2A    -20.542577     3A    -15.589855
       4A    -11.361928     5A    -11.299649     6A    -11.269745
       7A    -11.232590     8A    -11.220687     9A     -1.413594
      10A     -1.353156    11A     -1.229514    12A     -1.051760
      13A     -1.008511    14A     -0.903236    15A     -0.845755
      16A     -0.783049    17A     -0.749674    18A     -0.676127
      19A     -0.649638    20A     -0.638150    21A     -0.613314
      22A     -0.596086    23A     -0.583635    24A     -0.563911
      25A     -0.541262    26A     -0.532204    27A     -0.526769
      28A     -0.518732    29A     -0.500670    30A     -0.451144
      31A     -0.438872    32A     -0.398155

  @DF-RHF Final Energy:  -400.08549784791484

   => Energetics <=

    Nuclear Repulsion Energy =            400.4251294004949955
    One-Electron Energy =               -1339.7495812407748872
    Two-Electron Energy =                 539.2389539923650545
    Total Energy =                       -400.0854978479147803
  Basis Set: (AUG-CC-PVTZ AUX)
    Blend: AUG-CC-PVTZ-RI
    Molecular point group: c1

    Geometry (in Angstrom), charge = 0, multiplicity = 1:

       Center              X                  Y                   Z               Mass
    ------------   -----------------  -----------------  -----------------  -----------------
         O           -2.483641871439    -0.695696831108    -0.043124442365    15.994914619570
         O            0.018786128561    -1.338182831108    -0.529736442365    15.994914619570
         N            0.897199128561     0.305096168892     0.785740557635    14.003074004430
         C           -1.529617871439     0.257526168892     0.379367557635    12.000000000000
         C            2.279710128561    -0.098842831108     0.558066557635    12.000000000000
         C           -0.170332871439    -0.356320531108     0.157416157635    12.000000000000
         C           -1.680723871439     1.550667168892    -0.419529442365    12.000000000000
         C            2.837408128561     0.445307168892    -0.751327442365    12.000000000000
         H           -1.687394871439     0.458980168892     1.448639557635     1.007825032230
         H            2.868149128561     0.244849168892     1.413516557635     1.007825032230
         H            2.297854128561    -1.190996831108     0.553445557635     1.007825032230
         H            0.709334128561     1.154075168892     1.303426557635     1.007825032230
         H           -1.470475871439     1.350629168892    -1.473695442365     1.007825032230
         H           -1.004591871439     2.335871168892    -0.065491442365     1.007825032230
         H           -2.709432871439     1.907010168892    -0.332303442365     1.007825032230
         H            2.243470128561     0.070313168892    -1.587297442365     1.007825032230
         H            2.811472128561     1.538378168892    -0.761747442365     1.007825032230
         H            3.873987128561     0.123544168892    -0.889985442365     1.007825032230
         H           -1.954857871439    -1.365112831108    -0.529146442365     1.007825032230

  Basis Set: AUG-CC-PVTZ
    Blend: AUG-CC-PVTZ
  Basis Set: (AUG-CC-PVTZ AUX)
    Blend: AUG-CC-PVTZ-JKFIT
	 Reference Energy          =    -400.0854978479148372 [Eh]
	 Singles Energy            =      -0.0000000000000000 [Eh]
	 Same-Spin Energy          =      -0.4017107810743200 [Eh]
	 Opposite-Spin Energy      =      -1.3073514973702065 [Eh]
	 Correlation Energy        =      -1.7090622784445264 [Eh]
	 Total Energy              =    -401.7945601263593858 [Eh]

	 ================> DF-SCS-MP2 Energies <==================
	-----------------------------------------------------------
	 SCS Same-Spin Scale       =       0.3333333333333333 [-]
	 SCS Opposite-Spin Scale   =       1.2000000000000000 [-]
	 SCS Same-Spin Energy      =      -0.1339035936914400 [Eh]
	 SCS Opposite-Spin Energy  =      -1.5688217968442477 [Eh]
	 SCS Correlation Energy    =      -1.7027253905356876 [Eh]
	 SCS Total Energy          =    -401.7882232384505414 [Eh]
	-----------------------------------------------------------

  Dipole Moment: [D]
     X:     2.5280      Y:     2.9455      Z:     1.4391     Total:     4.1398

*** Psi4 exiting successfully. Buy a developer a beer!
