                               Psi4 1.3.2 release

  ==> Input File <==

--------------------------------------------------------------------------
#psi4
#
memory 32 gb

molecule  {
0 1
  O       -2.4925410    -0.6205970    -0.1535330
  O       -0.0069960    -1.4050930    -0.3804930
  N        0.8845720     0.3685180     0.7343320
  C       -1.6752747     0.1711041     0.2637369
  C        2.2569670    -0.1011270     0.6035390
  C       -0.1490540    -0.3186880     0.1981930
  C       -1.6458490     1.6048030    -0.4506110
  C        2.8658230     0.2522360    -0.7461750
  H       -1.7322500     0.4923850     1.3997900
  H        2.8336360     0.3321260     1.4253690
  H        2.2399750    -1.1846720     0.7384180
  H        0.7096630     1.2770080     1.1428940
  H       -1.3913480     1.4204780    -1.4971700
  H       -0.9867360     2.3841060    -0.0548340
  H       -2.6752710     1.9656290    -0.4028710
  H        2.2847230    -0.2144000    -1.5438430
  H        2.8717410     1.3343490    -0.8997070
  H        3.8959980    -0.1107530    -0.8084670
  H       -1.9544520    -1.3731060    -0.4835650
units angstrom
no_reorient  #important for SAPT in psi4, default
symmetry c1  #important for SAPT in psi4, default
}

set PROPERTIES_ORIGIN ["COM"]
properties('MP2/aug-cc-pvtz', properties = ['dipole'])
--------------------------------------------------------------------------

    Molecular point group: c1
  Charge       = 0
  Multiplicity = 1
  Basis Set: AUG-CC-PVTZ
    Blend: AUG-CC-PVTZ
  Basis Set: (AUG-CC-PVTZ AUX)
    Blend: AUG-CC-PVTZ-JKFIT

    Orbital Energies [Eh]
    ---------------------

    Doubly Occupied:

       1A    -20.572692     2A    -20.529659     3A    -15.596859
       4A    -11.352972     5A    -11.308450     6A    -11.272997
       7A    -11.223484     8A    -11.221687     9A     -1.473081
      10A     -1.379219    11A     -1.240991    12A     -1.035696
      13A     -0.997775    14A     -0.889217    15A     -0.849115
      16A     -0.797091    17A     -0.783888    18A     -0.687990
      19A     -0.656367    20A     -0.644288    21A     -0.635727
      22A     -0.602398    23A     -0.598396    24A     -0.558573
      25A     -0.547627    26A     -0.537267    27A     -0.522386
      28A     -0.508181    29A     -0.501349    30A     -0.415321
      31A     -0.411169    32A     -0.396690

  @DF-RHF Final Energy:  -400.04147421782329

   => Energetics <=

    Nuclear Repulsion Energy =            401.3739636987795052
    One-Electron Energy =               -1341.3336645014385340
    Two-Electron Energy =                 539.9182265848356792
    Total Energy =                       -400.0414742178232927
  Basis Set: (AUG-CC-PVTZ AUX)
    Blend: AUG-CC-PVTZ-RI
    Molecular point group: c1

    Geometry (in Angstrom), charge = 0, multiplicity = 1:

       Center              X                  Y                   Z               Mass
    ------------   -----------------  -----------------  -----------------  -----------------
         O           -2.478717611208    -0.607206144221    -0.146475491753    15.994914619570
         O            0.006827388792    -1.391702144221    -0.373435491753    15.994914619570
         N            0.898395388792     0.381908855779     0.741389508247    14.003074004430
         C           -1.661451311208     0.184494955779     0.270794408247    12.000000000000
         C            2.270790388792    -0.087736144221     0.610596508247    12.000000000000
         C           -0.135230611208    -0.305297144221     0.205250508247    12.000000000000
         C           -1.632025611208     1.618193855779    -0.443553491753    12.000000000000
         C            2.879646388792     0.265626855779    -0.739117491753    12.000000000000
         H           -1.718426611208     0.505775855779     1.406847508247     1.007825032230
         H            2.847459388792     0.345516855779     1.432426508247     1.007825032230
         H            2.253798388792    -1.171281144221     0.745475508247     1.007825032230
         H            0.723486388792     1.290398855779     1.149951508247     1.007825032230
         H           -1.377524611208     1.433868855779    -1.490112491753     1.007825032230
         H           -0.972912611208     2.397496855779    -0.047776491753     1.007825032230
         H           -2.661447611208     1.979019855779    -0.395813491753     1.007825032230
         H            2.298546388792    -0.201009144221    -1.536785491753     1.007825032230
         H            2.885564388792     1.347739855779    -0.892649491753     1.007825032230
         H            3.909821388792    -0.097362144221    -0.801409491753     1.007825032230
         H           -1.940628611208    -1.359715144221    -0.476507491753     1.007825032230

  Basis Set: AUG-CC-PVTZ
    Blend: AUG-CC-PVTZ
  Basis Set: (AUG-CC-PVTZ AUX)
    Blend: AUG-CC-PVTZ-JKFIT
	 Reference Energy          =    -400.0414742178232927 [Eh]
	 Singles Energy            =      -0.0000000000000000 [Eh]
	 Same-Spin Energy          =      -0.4029974261183588 [Eh]
	 Opposite-Spin Energy      =      -1.3065932092466011 [Eh]
	 Correlation Energy        =      -1.7095906353649597 [Eh]
	 Total Energy              =    -401.7510648531882680 [Eh]

	 ================> DF-SCS-MP2 Energies <==================
	-----------------------------------------------------------
	 SCS Same-Spin Scale       =       0.3333333333333333 [-]
	 SCS Opposite-Spin Scale   =       1.2000000000000000 [-]
	 SCS Same-Spin Energy      =      -0.1343324753727863 [Eh]
	 SCS Opposite-Spin Energy  =      -1.5679118510959211 [Eh]
	 SCS Correlation Energy    =      -1.7022443264687075 [Eh]
	 SCS Total Energy          =    -401.7437185442919940 [Eh]
	-----------------------------------------------------------

  Dipole Moment: [D]
     X:     2.4184      Y:     2.5000      Z:     1.3030     Total:     3.7143

*** Psi4 exiting successfully. Buy a developer a beer!
