                               Psi4 1.3.2 release

  ==> Input File <==

--------------------------------------------------------------------------
#psi4
#
memory 32 gb

molecule  {
0 1
  O       -2.4925410    -0.6205970    -0.1535330
  O       -0.0069960    -1.4050930    -0.3804930
  N        0.8724483     0.3419220     0.6927393
  C       -1.5404070     0.3017530     0.3325960
  C        2.2569670    -0.1011270     0.6035390
  C       -0.1490540    -0.3186880     0.1981930
  C       -1.6458490     1.6048030    -0.4506110
  C        2.8658230     0.2522360    -0.7461750
  H       -1.7322500     0.4923850     1.3997900
  H        2.8646335     0.3141703     1.4121980
  H        2.2399750    -1.1846720     0.7384180
  H        0.7096630     1.2770080     1.1428940
  H       -1.3913480     1.4204780    -1.4971700
  H       -0.9867360     2.3841060    -0.0548340
  H       -2.6752710     1.9656290    -0.4028710
  H        2.2847230    -0.2144000    -1.5438430
  H        2.8717410     1.3343490    -0.8997070
  H        3.8959980    -0.1107530    -0.8084670
  H       -1.9544520    -1.3731060    -0.4835650
units angstrom
no_reorient  #important for SAPT in psi4, default
symmetry c1  #important for SAPT in psi4, default
}

set PROPERTIES_ORIGIN ["COM"]
properties('MP2/aug-cc-pvtz', properties = ['dipole'])
--------------------------------------------------------------------------

    Molecular point group: c1
  Charge       = 0
  Multiplicity = 1
  Basis Set: AUG-CC-PVTZ
    Blend: AUG-CC-PVTZ
  Basis Set: (AUG-CC-PVTZ AUX)
    Blend: AUG-CC-PVTZ-JKFIT

    Orbital Energies [Eh]
    ---------------------

    Doubly Occupied:

       1A    -20.547342     2A    -20.525467     3A    -15.603746
       4A    -11.352759     5A    -11.297411     6A    -11.276079
       7A    -11.230424     8A    -11.223861     9A     -1.398050
      10A     -1.346005    11A     -1.249287    12A     -1.054913
      13A     -1.014341    14A     -0.903543    15A     -0.850477
      16A     -0.790215    17A     -0.745109    18A     -0.678578
      19A     -0.650870    20A     -0.639511    21A     -0.616167
      22A     -0.593807    23A     -0.576313    24A     -0.562904
      25A     -0.543312    26A     -0.534333    27A     -0.520834
      28A     -0.510626    29A     -0.501964    30A     -0.444645
      31A     -0.433605    32A     -0.403663

  @DF-RHF Final Energy:  -400.08427801752009

   => Energetics <=

    Nuclear Repulsion Energy =            401.4759091147935806
    One-Electron Energy =               -1341.8800550712335280
    Two-Electron Energy =                 540.3198679389198560
    Total Energy =                       -400.0842780175200915
  Basis Set: (AUG-CC-PVTZ AUX)
    Blend: AUG-CC-PVTZ-RI
    Molecular point group: c1

    Geometry (in Angstrom), charge = 0, multiplicity = 1:

       Center              X                  Y                   Z               Mass
    ------------   -----------------  -----------------  -----------------  -----------------
         O           -2.491357654756    -0.617261449229    -0.148445183351    15.994914619570
         O           -0.005812654756    -1.401757449229    -0.375405183351    15.994914619570
         N            0.873631645244     0.345257550771     0.697827116649    14.003074004430
         C           -1.539223654756     0.305088550771     0.337683816649    12.000000000000
         C            2.258150345244    -0.097791449229     0.608626816649    12.000000000000
         C           -0.147870654756    -0.315352449229     0.203280816649    12.000000000000
         C           -1.644665654756     1.608138550771    -0.445523183351    12.000000000000
         C            2.867006345244     0.255571550771    -0.741087183351    12.000000000000
         H           -1.731066654756     0.495720550771     1.404877816649     1.007825032230
         H            2.865816845244     0.317505850771     1.417285816649     1.007825032230
         H            2.241158345244    -1.181336449229     0.743505816649     1.007825032230
         H            0.710846345244     1.280343550771     1.147981816649     1.007825032230
         H           -1.390164654756     1.423813550771    -1.492082183351     1.007825032230
         H           -0.985552654756     2.387441550771    -0.049746183351     1.007825032230
         H           -2.674087654756     1.968964550771    -0.397783183351     1.007825032230
         H            2.285906345244    -0.211064449229    -1.538755183351     1.007825032230
         H            2.872924345244     1.337684550771    -0.894619183351     1.007825032230
         H            3.897181345244    -0.107417449229    -0.803379183351     1.007825032230
         H           -1.953268654756    -1.369770449229    -0.478477183351     1.007825032230

  Basis Set: AUG-CC-PVTZ
    Blend: AUG-CC-PVTZ
  Basis Set: (AUG-CC-PVTZ AUX)
    Blend: AUG-CC-PVTZ-JKFIT
	 Reference Energy          =    -400.0842780175200915 [Eh]
	 Singles Energy            =      -0.0000000000000000 [Eh]
	 Same-Spin Energy          =      -0.4023267059882606 [Eh]
	 Opposite-Spin Energy      =      -1.3077562448315128 [Eh]
	 Correlation Energy        =      -1.7100829508197735 [Eh]
	 Total Energy              =    -401.7943609683398449 [Eh]

	 ================> DF-SCS-MP2 Energies <==================
	-----------------------------------------------------------
	 SCS Same-Spin Scale       =       0.3333333333333333 [-]
	 SCS Opposite-Spin Scale   =       1.2000000000000000 [-]
	 SCS Same-Spin Energy      =      -0.1341089019960869 [Eh]
	 SCS Opposite-Spin Energy  =      -1.5693074937978153 [Eh]
	 SCS Correlation Energy    =      -1.7034163957939021 [Eh]
	 SCS Total Energy          =    -401.7876944133140000 [Eh]
	-----------------------------------------------------------

  Dipole Moment: [D]
     X:     3.0495      Y:     3.2575      Z:     1.6915     Total:     4.7720

*** Psi4 exiting successfully. Buy a developer a beer!
