                               Psi4 1.3.2 release

  ==> Input File <==

--------------------------------------------------------------------------
#psi4
#
memory 32 gb

molecule  {
0 1
  O       -2.4873326    -0.6200139    -0.1646844
  O       -0.0069960    -1.4050930    -0.3804930
  N        0.8845720     0.3685180     0.7343320
  C       -1.5404070     0.3017530     0.3325960
  C        2.2569670    -0.1011270     0.6035390
  C       -0.1490540    -0.3186880     0.1981930
  C       -1.6458490     1.6048030    -0.4506110
  C        2.8658230     0.2522360    -0.7461750
  H       -1.7247974     0.4984442     1.4000041
  H        2.8336360     0.3321260     1.4253690
  H        2.2399750    -1.1846720     0.7384180
  H        0.7096630     1.2770080     1.1428940
  H       -1.3913480     1.4204780    -1.4971700
  H       -0.9867360     2.3841060    -0.0548340
  H       -2.6752710     1.9656290    -0.4028710
  H        2.2847230    -0.2144000    -1.5438430
  H        2.8717410     1.3343490    -0.8997070
  H        3.8959980    -0.1107530    -0.8084670
  H       -1.9544520    -1.3731060    -0.4835650
units angstrom
no_reorient  #important for SAPT in psi4, default
symmetry c1  #important for SAPT in psi4, default
}

set PROPERTIES_ORIGIN ["COM"]
properties('MP2/aug-cc-pvtz', properties = ['dipole'])
--------------------------------------------------------------------------

    Molecular point group: c1
  Charge       = 0
  Multiplicity = 1
  Basis Set: AUG-CC-PVTZ
    Blend: AUG-CC-PVTZ
  Basis Set: (AUG-CC-PVTZ AUX)
    Blend: AUG-CC-PVTZ-JKFIT

    Orbital Energies [Eh]
    ---------------------

    Doubly Occupied:

       1A    -20.548263     2A    -20.533117     3A    -15.598680
       4A    -11.358794     5A    -11.298463     6A    -11.273926
       7A    -11.230984     8A    -11.223195     9A     -1.398536
      10A     -1.347433    11A     -1.245681    12A     -1.052991
      13A     -1.012872    14A     -0.902765    15A     -0.849213
      16A     -0.794012    17A     -0.745119    18A     -0.677469
      19A     -0.648877    20A     -0.641254    21A     -0.613333
      22A     -0.597557    23A     -0.577087    24A     -0.563409
      25A     -0.543069    26A     -0.534174    27A     -0.521128
      28A     -0.514580    29A     -0.502016    30A     -0.446141
      31A     -0.435907    32A     -0.403414

  @DF-RHF Final Energy:  -400.08811703219766

   => Energetics <=

    Nuclear Repulsion Energy =            400.7375826352660511
    One-Electron Energy =               -1340.3844726311101567
    Two-Electron Energy =                 539.5587729636463337
    Total Energy =                       -400.0881170321977152
  Basis Set: (AUG-CC-PVTZ AUX)
    Blend: AUG-CC-PVTZ-RI
    Molecular point group: c1

    Geometry (in Angstrom), charge = 0, multiplicity = 1:

       Center              X                  Y                   Z               Mass
    ------------   -----------------  -----------------  -----------------  -----------------
         O           -2.488108170394    -0.620145711288    -0.163162977669    15.994914619570
         O           -0.007771570394    -1.405224811288    -0.378971577669    15.994914619570
         N            0.883796429606     0.368386188712     0.735853422331    14.003074004430
         C           -1.541182570394     0.301621188712     0.334117422331    12.000000000000
         C            2.256191429606    -0.101258811288     0.605060422331    12.000000000000
         C           -0.149829570394    -0.318819811288     0.199714422331    12.000000000000
         C           -1.646624570394     1.604671188712    -0.449089577669    12.000000000000
         C            2.865047429606     0.252104188712    -0.744653577669    12.000000000000
         H           -1.725572970394     0.498312388712     1.401525522331     1.007825032230
         H            2.832860429606     0.331994188712     1.426890422331     1.007825032230
         H            2.239199429606    -1.184803811288     0.739939422331     1.007825032230
         H            0.708887429606     1.276876188712     1.144415422331     1.007825032230
         H           -1.392123570394     1.420346188712    -1.495648577669     1.007825032230
         H           -0.987511570394     2.383974188712    -0.053312577669     1.007825032230
         H           -2.676046570394     1.965497188712    -0.401349577669     1.007825032230
         H            2.283947429606    -0.214531811288    -1.542321577669     1.007825032230
         H            2.870965429606     1.334217188712    -0.898185577669     1.007825032230
         H            3.895222429606    -0.110884811288    -0.806945577669     1.007825032230
         H           -1.955227570394    -1.373237811288    -0.482043577669     1.007825032230

  Basis Set: AUG-CC-PVTZ
    Blend: AUG-CC-PVTZ
  Basis Set: (AUG-CC-PVTZ AUX)
    Blend: AUG-CC-PVTZ-JKFIT
	 Reference Energy          =    -400.0881170321976583 [Eh]
	 Singles Energy            =      -0.0000000000000000 [Eh]
	 Same-Spin Energy          =      -0.4020342927145573 [Eh]
	 Opposite-Spin Energy      =      -1.3074808921822707 [Eh]
	 Correlation Energy        =      -1.7095151848968280 [Eh]
	 Total Energy              =    -401.7976322170944741 [Eh]

	 ================> DF-SCS-MP2 Energies <==================
	-----------------------------------------------------------
	 SCS Same-Spin Scale       =       0.3333333333333333 [-]
	 SCS Opposite-Spin Scale   =       1.2000000000000000 [-]
	 SCS Same-Spin Energy      =      -0.1340114309048524 [Eh]
	 SCS Opposite-Spin Energy  =      -1.5689770706187247 [Eh]
	 SCS Correlation Energy    =      -1.7029885015235771 [Eh]
	 SCS Total Energy          =    -401.7911055337212360 [Eh]
	-----------------------------------------------------------

  Dipole Moment: [D]
     X:     2.8875      Y:     3.1439      Z:     1.5809     Total:     4.5521

*** Psi4 exiting successfully. Buy a developer a beer!
