                               Psi4 1.3.2 release

  ==> Input File <==

--------------------------------------------------------------------------
#psi4
#
memory 32 gb

molecule  {
0 1
  O       -2.4925410    -0.6205970    -0.1535330
  O       -0.0069960    -1.4050930    -0.3804930
  N        0.8845720     0.3685180     0.7343320
  C       -1.5548974     0.3280562     0.3765021
  C        2.2569670    -0.1011270     0.6035390
  C       -0.1490540    -0.3186880     0.1981930
  C       -1.6458490     1.6048030    -0.4506110
  C        2.8658230     0.2522360    -0.7461750
  H       -1.7322500     0.4923850     1.3997900
  H        2.8336360     0.3321260     1.4253690
  H        2.2399750    -1.1846720     0.7384180
  H        0.7096630     1.2770080     1.1428940
  H       -1.3974249     1.4574196    -1.5044591
  H       -0.9867360     2.3841060    -0.0548340
  H       -2.6752710     1.9656290    -0.4028710
  H        2.2847230    -0.2144000    -1.5438430
  H        2.8717410     1.3343490    -0.8997070
  H        3.8959980    -0.1107530    -0.8084670
  H       -1.9544520    -1.3731060    -0.4835650
units angstrom
no_reorient  #important for SAPT in psi4, default
symmetry c1  #important for SAPT in psi4, default
}

set PROPERTIES_ORIGIN ["COM"]
properties('MP2/aug-cc-pvtz', properties = ['dipole'])
--------------------------------------------------------------------------

    Molecular point group: c1
  Charge       = 0
  Multiplicity = 1
  Basis Set: AUG-CC-PVTZ
    Blend: AUG-CC-PVTZ
  Basis Set: (AUG-CC-PVTZ AUX)
    Blend: AUG-CC-PVTZ-JKFIT

    Orbital Energies [Eh]
    ---------------------

    Doubly Occupied:

       1A    -20.545040     2A    -20.533736     3A    -15.598560
       4A    -11.359784     5A    -11.298019     6A    -11.273621
       7A    -11.231610     8A    -11.223121     9A     -1.394825
      10A     -1.337809    11A     -1.245557    12A     -1.052267
      13A     -1.013142    14A     -0.901307    15A     -0.850745
      16A     -0.795106    17A     -0.740754    18A     -0.676870
      19A     -0.649487    20A     -0.640090    21A     -0.612299
      22A     -0.597252    23A     -0.577780    24A     -0.562827
      25A     -0.539925    26A     -0.535960    27A     -0.520893
      28A     -0.510240    29A     -0.501192    30A     -0.450259
      31A     -0.432722    32A     -0.403709

  @DF-RHF Final Energy:  -400.08405082157566

   => Energetics <=

    Nuclear Repulsion Energy =            399.8787549092720610
    One-Electron Energy =               -1338.7125940556941259
    Two-Electron Energy =                 538.7497883248463495
    Total Energy =                       -400.0840508215757154
  Basis Set: (AUG-CC-PVTZ AUX)
    Blend: AUG-CC-PVTZ-RI
    Molecular point group: c1

    Geometry (in Angstrom), charge = 0, multiplicity = 1:

       Center              X                  Y                   Z               Mass
    ------------   -----------------  -----------------  -----------------  -----------------
         O           -2.491003361949    -0.623610932614    -0.157970606236    15.994914619570
         O           -0.005458361949    -1.408106932614    -0.384930606236    15.994914619570
         N            0.886109638051     0.365504067386     0.729894393764    14.003074004430
         C           -1.553359761949     0.325042267386     0.372064493764    12.000000000000
         C            2.258504638051    -0.104140932614     0.599101393764    12.000000000000
         C           -0.147516361949    -0.321701932614     0.193755393764    12.000000000000
         C           -1.644311361949     1.601789067386    -0.455048606236    12.000000000000
         C            2.867360638051     0.249222067386    -0.750612606236    12.000000000000
         H           -1.730712361949     0.489371067386     1.395352393764     1.007825032230
         H            2.835173638051     0.329112067386     1.420931393764     1.007825032230
         H            2.241512638051    -1.187685932614     0.733980393764     1.007825032230
         H            0.711200638051     1.273994067386     1.138456393764     1.007825032230
         H           -1.395887261949     1.454405667386    -1.508896706236     1.007825032230
         H           -0.985198361949     2.381092067386    -0.059271606236     1.007825032230
         H           -2.673733361949     1.962615067386    -0.407308606236     1.007825032230
         H            2.286260638051    -0.217413932614    -1.548280606236     1.007825032230
         H            2.873278638051     1.331335067386    -0.904144606236     1.007825032230
         H            3.897535638051    -0.113766932614    -0.812904606236     1.007825032230
         H           -1.952914361949    -1.376119932614    -0.488002606236     1.007825032230

  Basis Set: AUG-CC-PVTZ
    Blend: AUG-CC-PVTZ
  Basis Set: (AUG-CC-PVTZ AUX)
    Blend: AUG-CC-PVTZ-JKFIT
	 Reference Energy          =    -400.0840508215756586 [Eh]
	 Singles Energy            =      -0.0000000000000000 [Eh]
	 Same-Spin Energy          =      -0.4020333137793271 [Eh]
	 Opposite-Spin Energy      =      -1.3080216469348209 [Eh]
	 Correlation Energy        =      -1.7100549607141480 [Eh]
	 Total Energy              =    -401.7941057822898188 [Eh]

	 ================> DF-SCS-MP2 Energies <==================
	-----------------------------------------------------------
	 SCS Same-Spin Scale       =       0.3333333333333333 [-]
	 SCS Opposite-Spin Scale   =       1.2000000000000000 [-]
	 SCS Same-Spin Energy      =      -0.1340111045931090 [Eh]
	 SCS Opposite-Spin Energy  =      -1.5696259763217850 [Eh]
	 SCS Correlation Energy    =      -1.7036370809148940 [Eh]
	 SCS Total Energy          =    -401.7876879024905747 [Eh]
	-----------------------------------------------------------

  Dipole Moment: [D]
     X:     2.9486      Y:     3.2051      Z:     1.6190     Total:     4.6463

*** Psi4 exiting successfully. Buy a developer a beer!
