                               Psi4 1.3.2 release

  ==> Input File <==

--------------------------------------------------------------------------
#psi4
#
memory 32 gb

molecule  {
0 1
  O       -2.4925410    -0.6205970    -0.1535330
  O       -0.0069960    -1.4050930    -0.3804930
  N        0.9278280     0.3169994     0.7123005
  C       -1.5700414     0.2386666     0.2931929
  C        2.2569670    -0.1011270     0.6035390
  C       -0.1490540    -0.3186880     0.1981930
  C       -1.6458490     1.6048030    -0.4506110
  C        2.8658230     0.2522360    -0.7461750
  H       -1.7322500     0.4923850     1.3997900
  H        2.8336360     0.3321260     1.4253690
  H        2.2399750    -1.1846720     0.7384180
  H        0.7096630     1.2770080     1.1428940
  H       -1.3913480     1.4204780    -1.4971700
  H       -0.9867360     2.3841060    -0.0548340
  H       -2.6752710     1.9656290    -0.4028710
  H        2.2847230    -0.2144000    -1.5438430
  H        2.8717410     1.3343490    -0.8997070
  H        3.8959980    -0.1107530    -0.8084670
  H       -1.9544520    -1.3731060    -0.4835650
units angstrom
no_reorient  #important for SAPT in psi4, default
symmetry c1  #important for SAPT in psi4, default
}

set PROPERTIES_ORIGIN ["COM"]
properties('MP2/aug-cc-pvtz', properties = ['dipole'])
--------------------------------------------------------------------------

    Molecular point group: c1
  Charge       = 0
  Multiplicity = 1
  Basis Set: AUG-CC-PVTZ
    Blend: AUG-CC-PVTZ
  Basis Set: (AUG-CC-PVTZ AUX)
    Blend: AUG-CC-PVTZ-JKFIT

    Orbital Energies [Eh]
    ---------------------

    Doubly Occupied:

       1A    -20.559573     2A    -20.529402     3A    -15.601780
       4A    -11.357302     5A    -11.304812     6A    -11.268841
       7A    -11.230902     8A    -11.220489     9A     -1.413978
      10A     -1.370777    11A     -1.248666    12A     -1.048440
      13A     -1.007187    14A     -0.904444    15A     -0.852061
      16A     -0.776480    17A     -0.761187    18A     -0.682635
      19A     -0.657972    20A     -0.641558    21A     -0.619338
      22A     -0.592112    23A     -0.587216    24A     -0.564236
      25A     -0.548901    26A     -0.535850    27A     -0.520871
      28A     -0.515446    29A     -0.498827    30A     -0.435544
      31A     -0.433471    32A     -0.396662

  @DF-RHF Final Energy:  -400.07293240047505

   => Energetics <=

    Nuclear Repulsion Energy =            401.7735358205837315
    One-Electron Energy =               -1342.3190268424295937
    Two-Electron Energy =                 540.4725586213709221
    Total Energy =                       -400.0729324004749969
  Basis Set: (AUG-CC-PVTZ AUX)
    Blend: AUG-CC-PVTZ-RI
    Molecular point group: c1

    Geometry (in Angstrom), charge = 0, multiplicity = 1:

       Center              X                  Y                   Z               Mass
    ------------   -----------------  -----------------  -----------------  -----------------
         O           -2.494677065172    -0.607969143972    -0.146859534009    15.994914619570
         O           -0.009132065172    -1.392465143972    -0.373819534009    15.994914619570
         N            0.925691934828     0.329627256028     0.718973965991    14.003074004430
         C           -1.572177465172     0.251294456028     0.299866365991    12.000000000000
         C            2.254830934828    -0.088499143972     0.610212465991    12.000000000000
         C           -0.151190065172    -0.306060143972     0.204866465991    12.000000000000
         C           -1.647985065172     1.617430856028    -0.443937534009    12.000000000000
         C            2.863686934828     0.264863856028    -0.739501534009    12.000000000000
         H           -1.734386065172     0.505012856028     1.406463465991     1.007825032230
         H            2.831499934828     0.344753856028     1.432042465991     1.007825032230
         H            2.237838934828    -1.172044143972     0.745091465991     1.007825032230
         H            0.707526934828     1.289635856028     1.149567465991     1.007825032230
         H           -1.393484065172     1.433105856028    -1.490496534009     1.007825032230
         H           -0.988872065172     2.396733856028    -0.048160534009     1.007825032230
         H           -2.677407065172     1.978256856028    -0.396197534009     1.007825032230
         H            2.282586934828    -0.201772143972    -1.537169534009     1.007825032230
         H            2.869604934828     1.346976856028    -0.893033534009     1.007825032230
         H            3.893861934828    -0.098125143972    -0.801793534009     1.007825032230
         H           -1.956588065172    -1.360478143972    -0.476891534009     1.007825032230

  Basis Set: AUG-CC-PVTZ
    Blend: AUG-CC-PVTZ
  Basis Set: (AUG-CC-PVTZ AUX)
    Blend: AUG-CC-PVTZ-JKFIT
	 Reference Energy          =    -400.0729324004750538 [Eh]
	 Singles Energy            =      -0.0000000000000000 [Eh]
	 Same-Spin Energy          =      -0.4030702433409014 [Eh]
	 Opposite-Spin Energy      =      -1.3080193438980858 [Eh]
	 Correlation Energy        =      -1.7110895872389873 [Eh]
	 Total Energy              =    -401.7840219877140271 [Eh]

	 ================> DF-SCS-MP2 Energies <==================
	-----------------------------------------------------------
	 SCS Same-Spin Scale       =       0.3333333333333333 [-]
	 SCS Opposite-Spin Scale   =       1.2000000000000000 [-]
	 SCS Same-Spin Energy      =      -0.1343567477803005 [Eh]
	 SCS Opposite-Spin Energy  =      -1.5696232126777030 [Eh]
	 SCS Correlation Energy    =      -1.7039799604580035 [Eh]
	 SCS Total Energy          =    -401.7769123609330677 [Eh]
	-----------------------------------------------------------

  Dipole Moment: [D]
     X:     2.5859      Y:     2.9993      Z:     1.5040     Total:     4.2361

*** Psi4 exiting successfully. Buy a developer a beer!
