                               Psi4 1.3.2 release

  ==> Input File <==

--------------------------------------------------------------------------
#psi4
#
memory 32 gb

molecule  {
0 1
  O       -2.4925410    -0.6205970    -0.1535330
  O       -0.0069960    -1.4050930    -0.3804930
  N        0.8845720     0.3685180     0.7343320
  C       -1.5046699     0.2704297     0.3195338
  C        2.2569670    -0.1011270     0.6035390
  C       -0.1490540    -0.3186880     0.1981930
  C       -1.6458490     1.6048030    -0.4506110
  C        2.8658230     0.2522360    -0.7461750
  H       -1.7322500     0.4923850     1.3997900
  H        2.8336360     0.3321260     1.4253690
  H        2.2399750    -1.1846720     0.7384180
  H        0.7096630     1.2770080     1.1428940
  H       -1.3913480     1.4204780    -1.4971700
  H       -0.9867360     2.3841060    -0.0548340
  H       -2.6752710     1.9656290    -0.4028710
  H        2.2847230    -0.2144000    -1.5438430
  H        2.8717410     1.3343490    -0.8997070
  H        3.8959980    -0.1107530    -0.8084670
  H       -1.9261457    -1.3562275    -0.4741180
units angstrom
no_reorient  #important for SAPT in psi4, default
symmetry c1  #important for SAPT in psi4, default
}

set PROPERTIES_ORIGIN ["COM"]
properties('MP2/aug-cc-pvtz', properties = ['dipole'])
--------------------------------------------------------------------------

    Molecular point group: c1
  Charge       = 0
  Multiplicity = 1
  Basis Set: AUG-CC-PVTZ
    Blend: AUG-CC-PVTZ
  Basis Set: (AUG-CC-PVTZ AUX)
    Blend: AUG-CC-PVTZ-JKFIT

    Orbital Energies [Eh]
    ---------------------

    Doubly Occupied:

       1A    -20.550303     2A    -20.534707     3A    -15.599775
       4A    -11.359546     5A    -11.298172     6A    -11.274877
       7A    -11.232629     8A    -11.223804     9A     -1.402787
      10A     -1.348757    11A     -1.247461    12A     -1.054260
      13A     -1.010541    14A     -0.908277    15A     -0.850778
      16A     -0.794540    17A     -0.747699    18A     -0.676803
      19A     -0.646055    20A     -0.642360    21A     -0.614471
      22A     -0.598594    23A     -0.572133    24A     -0.562687
      25A     -0.546062    26A     -0.532634    27A     -0.523009
      28A     -0.519256    29A     -0.502973    30A     -0.443269
      31A     -0.440132    32A     -0.404263

  @DF-RHF Final Energy:  -400.08415194271157

   => Energetics <=

    Nuclear Repulsion Energy =            401.3162871967646197
    One-Electron Energy =               -1341.4736474252852076
    Two-Electron Energy =                 540.0732082858089598
    Total Energy =                       -400.0841519427116282
  Basis Set: (AUG-CC-PVTZ AUX)
    Blend: AUG-CC-PVTZ-RI
    Molecular point group: c1

    Geometry (in Angstrom), charge = 0, multiplicity = 1:

       Center              X                  Y                   Z               Mass
    ------------   -----------------  -----------------  -----------------  -----------------
         O           -2.496447398592    -0.617531804636    -0.152275710812    15.994914619570
         O           -0.010902398592    -1.402027804636    -0.379235710812    15.994914619570
         N            0.880665601408     0.371583195364     0.735589289188    14.003074004430
         C           -1.508576298592     0.273494895364     0.320791089188    12.000000000000
         C            2.253060601408    -0.098061804636     0.604796289188    12.000000000000
         C           -0.152960398592    -0.315622804636     0.199450289188    12.000000000000
         C           -1.649755398592     1.607868195364    -0.449353710812    12.000000000000
         C            2.861916601408     0.255301195364    -0.744917710812    12.000000000000
         H           -1.736156398592     0.495450195364     1.401047289188     1.007825032230
         H            2.829729601408     0.335191195364     1.426626289188     1.007825032230
         H            2.236068601408    -1.181606804636     0.739675289188     1.007825032230
         H            0.705756601408     1.280073195364     1.144151289188     1.007825032230
         H           -1.395254398592     1.423543195364    -1.495912710812     1.007825032230
         H           -0.990642398592     2.387171195364    -0.053576710812     1.007825032230
         H           -2.679177398592     1.968694195364    -0.401613710812     1.007825032230
         H            2.280816601408    -0.211334804636    -1.542585710812     1.007825032230
         H            2.867834601408     1.337414195364    -0.898449710812     1.007825032230
         H            3.892091601408    -0.107687804636    -0.807209710812     1.007825032230
         H           -1.930052098592    -1.353162304636    -0.472860710812     1.007825032230

  Basis Set: AUG-CC-PVTZ
    Blend: AUG-CC-PVTZ
  Basis Set: (AUG-CC-PVTZ AUX)
    Blend: AUG-CC-PVTZ-JKFIT
	 Reference Energy          =    -400.0841519427115713 [Eh]
	 Singles Energy            =      -0.0000000000000000 [Eh]
	 Same-Spin Energy          =      -0.4025322035170840 [Eh]
	 Opposite-Spin Energy      =      -1.3083711047057895 [Eh]
	 Correlation Energy        =      -1.7109033082228735 [Eh]
	 Total Energy              =    -401.7950552509344675 [Eh]

	 ================> DF-SCS-MP2 Energies <==================
	-----------------------------------------------------------
	 SCS Same-Spin Scale       =       0.3333333333333333 [-]
	 SCS Opposite-Spin Scale   =       1.2000000000000000 [-]
	 SCS Same-Spin Energy      =      -0.1341774011723613 [Eh]
	 SCS Opposite-Spin Energy  =      -1.5700453256469473 [Eh]
	 SCS Correlation Energy    =      -1.7042227268193086 [Eh]
	 SCS Total Energy          =    -401.7883746695308673 [Eh]
	-----------------------------------------------------------

  Dipole Moment: [D]
     X:     2.9407      Y:     3.1512      Z:     1.5626     Total:     4.5847

*** Psi4 exiting successfully. Buy a developer a beer!
