                               Psi4 1.3.2 release

  ==> Input File <==

--------------------------------------------------------------------------
#psi4
#
memory 32 gb

molecule  {
0 1
  O       -2.4925410    -0.6205970    -0.1535330
  O       -0.0069960    -1.4050930    -0.3804930
  N        0.8845720     0.3685180     0.7343320
  C       -1.5404070     0.3017530     0.3325960
  C        2.2569670    -0.1011270     0.6035390
  C       -0.0580765    -0.3592573     0.1894047
  C       -1.6458490     1.6048030    -0.4506110
  C        2.8658230     0.2522360    -0.7461750
  H       -1.7322500     0.4923850     1.3997900
  H        2.8336360     0.3321260     1.4253690
  H        2.2399750    -1.1846720     0.7384180
  H        0.7096630     1.2770080     1.1428940
  H       -1.3913480     1.4204780    -1.4971700
  H       -0.9867360     2.3841060    -0.0548340
  H       -2.6752710     1.9656290    -0.4028710
  H        2.2847230    -0.2144000    -1.5438430
  H        2.8717410     1.3343490    -0.8997070
  H        3.8959980    -0.1107530    -0.8084670
  H       -1.9544520    -1.3731060    -0.4835650
units angstrom
no_reorient  #important for SAPT in psi4, default
symmetry c1  #important for SAPT in psi4, default
}

set PROPERTIES_ORIGIN ["COM"]
properties('MP2/aug-cc-pvtz', properties = ['dipole'])
--------------------------------------------------------------------------

    Molecular point group: c1
  Charge       = 0
  Multiplicity = 1
  Basis Set: AUG-CC-PVTZ
    Blend: AUG-CC-PVTZ
  Basis Set: (AUG-CC-PVTZ AUX)
    Blend: AUG-CC-PVTZ-JKFIT

    Orbital Energies [Eh]
    ---------------------

    Doubly Occupied:

       1A    -20.543640     2A    -20.536174     3A    -15.601353
       4A    -11.352228     5A    -11.290899     6A    -11.275854
       7A    -11.226446     8A    -11.224274     9A     -1.420435
      10A     -1.345266    11A     -1.266341    12A     -1.045572
      13A     -1.009157    14A     -0.894919    15A     -0.839293
      16A     -0.811227    17A     -0.735587    18A     -0.678452
      19A     -0.650449    20A     -0.642902    21A     -0.616984
      22A     -0.609228    23A     -0.574267    24A     -0.559079
      25A     -0.545746    26A     -0.531811    27A     -0.529565
      28A     -0.517561    29A     -0.506983    30A     -0.440229
      31A     -0.414408    32A     -0.411544

  @DF-RHF Final Energy:  -400.08056576570118

   => Energetics <=

    Nuclear Repulsion Energy =            400.9868606696826419
    One-Electron Energy =               -1340.8391105892001178
    Two-Electron Energy =                 539.7716841538162953
    Total Energy =                       -400.0805657657011807
  Basis Set: (AUG-CC-PVTZ AUX)
    Blend: AUG-CC-PVTZ-RI
    Molecular point group: c1

    Geometry (in Angstrom), charge = 0, multiplicity = 1:

       Center              X                  Y                   Z               Mass
    ------------   -----------------  -----------------  -----------------  -----------------
         O           -2.501865595863    -0.616438845197    -0.152632443314    15.994914619570
         O           -0.016320595863    -1.400934845197    -0.379592443314    15.994914619570
         N            0.875247404137     0.372676154803     0.735232556686    14.003074004430
         C           -1.549731595863     0.305911154803     0.333496556686    12.000000000000
         C            2.247642404137    -0.096968845197     0.604439556686    12.000000000000
         C           -0.067401095863    -0.355099145197     0.190305256686    12.000000000000
         C           -1.655173595863     1.608961154803    -0.449710443314    12.000000000000
         C            2.856498404137     0.256394154803    -0.745274443314    12.000000000000
         H           -1.741574595863     0.496543154803     1.400690556686     1.007825032230
         H            2.824311404137     0.336284154803     1.426269556686     1.007825032230
         H            2.230650404137    -1.180513845197     0.739318556686     1.007825032230
         H            0.700338404137     1.281166154803     1.143794556686     1.007825032230
         H           -1.400672595863     1.424636154803    -1.496269443314     1.007825032230
         H           -0.996060595863     2.388264154803    -0.053933443314     1.007825032230
         H           -2.684595595863     1.969787154803    -0.401970443314     1.007825032230
         H            2.275398404137    -0.210241845197    -1.542942443314     1.007825032230
         H            2.862416404137     1.338507154803    -0.898806443314     1.007825032230
         H            3.886673404137    -0.106594845197    -0.807566443314     1.007825032230
         H           -1.963776595863    -1.368947845197    -0.482664443314     1.007825032230

  Basis Set: AUG-CC-PVTZ
    Blend: AUG-CC-PVTZ
  Basis Set: (AUG-CC-PVTZ AUX)
    Blend: AUG-CC-PVTZ-JKFIT
	 Reference Energy          =    -400.0805657657011807 [Eh]
	 Singles Energy            =      -0.0000000000000000 [Eh]
	 Same-Spin Energy          =      -0.4012290263536595 [Eh]
	 Opposite-Spin Energy      =      -1.3057583329470275 [Eh]
	 Correlation Energy        =      -1.7069873593006870 [Eh]
	 Total Energy              =    -401.7875531250018639 [Eh]

	 ================> DF-SCS-MP2 Energies <==================
	-----------------------------------------------------------
	 SCS Same-Spin Scale       =       0.3333333333333333 [-]
	 SCS Opposite-Spin Scale   =       1.2000000000000000 [-]
	 SCS Same-Spin Energy      =      -0.1337430087845532 [Eh]
	 SCS Opposite-Spin Energy  =      -1.5669099995364328 [Eh]
	 SCS Correlation Energy    =      -1.7006530083209861 [Eh]
	 SCS Total Energy          =    -401.7812187740221930 [Eh]
	-----------------------------------------------------------

  Dipole Moment: [D]
     X:     3.3574      Y:     2.9610      Z:     1.5602     Total:     4.7407

*** Psi4 exiting successfully. Buy a developer a beer!
