                               Psi4 1.3.2 release

  ==> Input File <==

--------------------------------------------------------------------------
#psi4
#
memory 32 gb

molecule  {
0 1
  O       -2.4925410    -0.6205970    -0.1535330
  O       -0.0176487    -1.4054639    -0.3823107
  N        0.8770861     0.3769333     0.7378478
  C       -1.5404070     0.3017530     0.3325960
  C        2.2569670    -0.1011270     0.6035390
  C       -0.1490540    -0.3186880     0.1981930
  C       -1.6458490     1.6048030    -0.4506110
  C        2.8658230     0.2522360    -0.7461750
  H       -1.7322500     0.4923850     1.3997900
  H        2.8336360     0.3321260     1.4253690
  H        2.2399750    -1.1846720     0.7384180
  H        0.7096630     1.2770080     1.1428940
  H       -1.3913480     1.4204780    -1.4971700
  H       -0.9867360     2.3841060    -0.0548340
  H       -2.6752710     1.9656290    -0.4028710
  H        2.2847230    -0.2144000    -1.5438430
  H        2.8717410     1.3343490    -0.8997070
  H        3.8959980    -0.1107530    -0.8084670
  H       -1.9544520    -1.3731060    -0.4835650
units angstrom
no_reorient  #important for SAPT in psi4, default
symmetry c1  #important for SAPT in psi4, default
}

set PROPERTIES_ORIGIN ["COM"]
properties('MP2/aug-cc-pvtz', properties = ['dipole'])
--------------------------------------------------------------------------

    Molecular point group: c1
  Charge       = 0
  Multiplicity = 1
  Basis Set: AUG-CC-PVTZ
    Blend: AUG-CC-PVTZ
  Basis Set: (AUG-CC-PVTZ AUX)
    Blend: AUG-CC-PVTZ-JKFIT

    Orbital Energies [Eh]
    ---------------------

    Doubly Occupied:

       1A    -20.547434     2A    -20.534076     3A    -15.598826
       4A    -11.359253     5A    -11.296947     6A    -11.275307
       7A    -11.230537     8A    -11.223991     9A     -1.398267
      10A     -1.345519    11A     -1.246177    12A     -1.052282
      13A     -1.012989    14A     -0.902119    15A     -0.848747
      16A     -0.797377    17A     -0.744145    18A     -0.676141
      19A     -0.646619    20A     -0.641529    21A     -0.613399
      22A     -0.599104    23A     -0.576417    24A     -0.562943
      25A     -0.543016    26A     -0.533728    27A     -0.521705
      28A     -0.513800    29A     -0.502856    30A     -0.444986
      31A     -0.435735    32A     -0.404917

  @DF-RHF Final Energy:  -400.08780891921606

   => Energetics <=

    Nuclear Repulsion Energy =            400.5399305775086418
    One-Electron Energy =               -1339.9937018425634960
    Two-Electron Energy =                 539.3659623458388523
    Total Energy =                       -400.0878089192160587
  Basis Set: (AUG-CC-PVTZ AUX)
    Blend: AUG-CC-PVTZ-RI
    Molecular point group: c1

    Geometry (in Angstrom), charge = 0, multiplicity = 1:

       Center              X                  Y                   Z               Mass
    ------------   -----------------  -----------------  -----------------  -----------------
         O           -2.490190189611    -0.621552821779    -0.153705374192    15.994914619570
         O           -0.015297889611    -1.406419721779    -0.382483074192    15.994914619570
         N            0.879436910389     0.375977478221     0.737675425808    14.003074004430
         C           -1.538056189611     0.300797178221     0.332423625808    12.000000000000
         C            2.259317810389    -0.102082821779     0.603366625808    12.000000000000
         C           -0.146703189611    -0.319643821779     0.198020625808    12.000000000000
         C           -1.643498189611     1.603847178221    -0.450783374192    12.000000000000
         C            2.868173810389     0.251280178221    -0.746347374192    12.000000000000
         H           -1.729899189611     0.491429178221     1.399617625808     1.007825032230
         H            2.835986810389     0.331170178221     1.425196625808     1.007825032230
         H            2.242325810389    -1.185627821779     0.738245625808     1.007825032230
         H            0.712013810389     1.276052178221     1.142721625808     1.007825032230
         H           -1.388997189611     1.419522178221    -1.497342374192     1.007825032230
         H           -0.984385189611     2.383150178221    -0.055006374192     1.007825032230
         H           -2.672920189611     1.964673178221    -0.403043374192     1.007825032230
         H            2.287073810389    -0.215355821779    -1.544015374192     1.007825032230
         H            2.874091810389     1.333393178221    -0.899879374192     1.007825032230
         H            3.898348810389    -0.111708821779    -0.808639374192     1.007825032230
         H           -1.952101189611    -1.374061821779    -0.483737374192     1.007825032230

  Basis Set: AUG-CC-PVTZ
    Blend: AUG-CC-PVTZ
  Basis Set: (AUG-CC-PVTZ AUX)
    Blend: AUG-CC-PVTZ-JKFIT
	 Reference Energy          =    -400.0878089192160587 [Eh]
	 Singles Energy            =      -0.0000000000000000 [Eh]
	 Same-Spin Energy          =      -0.4020201456777966 [Eh]
	 Opposite-Spin Energy      =      -1.3075795106449095 [Eh]
	 Correlation Energy        =      -1.7095996563227061 [Eh]
	 Total Energy              =    -401.7974085755387819 [Eh]

	 ================> DF-SCS-MP2 Energies <==================
	-----------------------------------------------------------
	 SCS Same-Spin Scale       =       0.3333333333333333 [-]
	 SCS Opposite-Spin Scale   =       1.2000000000000000 [-]
	 SCS Same-Spin Energy      =      -0.1340067152259322 [Eh]
	 SCS Opposite-Spin Energy  =      -1.5690954127738914 [Eh]
	 SCS Correlation Energy    =      -1.7031021279998235 [Eh]
	 SCS Total Energy          =    -401.7909110472159000 [Eh]
	-----------------------------------------------------------

  Dipole Moment: [D]
     X:     2.9691      Y:     3.1342      Z:     1.5576     Total:     4.5897

*** Psi4 exiting successfully. Buy a developer a beer!
