                               Psi4 1.3.2 release

  ==> Input File <==

--------------------------------------------------------------------------
#psi4
#
memory 32 gb

molecule  {
0 1
  O       -2.4925410    -0.6205970    -0.1535330
  O       -0.0069960    -1.4050930    -0.3804930
  N        0.8845720     0.3685180     0.7343320
  C       -1.5404070     0.3017530     0.3325960
  C        2.2569670    -0.1011270     0.6035390
  C       -0.1563435    -0.3098677     0.2010706
  C       -1.6458490     1.6048030    -0.4506110
  C        2.8658230     0.2522360    -0.7461750
  H       -1.7322500     0.4923850     1.3997900
  H        2.8336360     0.3321260     1.4253690
  H        2.2399750    -1.1846720     0.7384180
  H        0.7011112     1.2762367     1.1408526
  H       -1.3913480     1.4204780    -1.4971700
  H       -0.9867360     2.3841060    -0.0548340
  H       -2.6752710     1.9656290    -0.4028710
  H        2.2847230    -0.2144000    -1.5438430
  H        2.8717410     1.3343490    -0.8997070
  H        3.8959980    -0.1107530    -0.8084670
  H       -1.9544520    -1.3731060    -0.4835650
units angstrom
no_reorient  #important for SAPT in psi4, default
symmetry c1  #important for SAPT in psi4, default
}

set PROPERTIES_ORIGIN ["COM"]
properties('MP2/aug-cc-pvtz', properties = ['dipole'])
--------------------------------------------------------------------------

    Molecular point group: c1
  Charge       = 0
  Multiplicity = 1
  Basis Set: AUG-CC-PVTZ
    Blend: AUG-CC-PVTZ
  Basis Set: (AUG-CC-PVTZ AUX)
    Blend: AUG-CC-PVTZ-JKFIT

    Orbital Energies [Eh]
    ---------------------

    Doubly Occupied:

       1A    -20.548950     2A    -20.531865     3A    -15.599633
       4A    -11.359608     5A    -11.298790     6A    -11.274529
       7A    -11.231870     8A    -11.223303     9A     -1.394361
      10A     -1.345396    11A     -1.244882    12A     -1.054492
      13A     -1.013497    14A     -0.904302    15A     -0.850430
      16A     -0.792818    17A     -0.745566    18A     -0.677011
      19A     -0.648734    20A     -0.639790    21A     -0.613284
      22A     -0.596376    23A     -0.577068    24A     -0.564073
      25A     -0.543240    26A     -0.534358    27A     -0.519531
      28A     -0.513895    29A     -0.501669    30A     -0.446093
      31A     -0.437079    32A     -0.402937

  @DF-RHF Final Energy:  -400.08669479995791

   => Energetics <=

    Nuclear Repulsion Energy =            400.5966367107730548
    One-Electron Energy =               -1340.1078034498211764
    Two-Electron Energy =                 539.4244719390901537
    Total Energy =                       -400.0866947999579679
  Basis Set: (AUG-CC-PVTZ AUX)
    Blend: AUG-CC-PVTZ-RI
    Molecular point group: c1

    Geometry (in Angstrom), charge = 0, multiplicity = 1:

       Center              X                  Y                   Z               Mass
    ------------   -----------------  -----------------  -----------------  -----------------
         O           -2.491720113451    -0.621494388657    -0.153810566216    15.994914619570
         O           -0.006175113451    -1.405990388657    -0.380770566216    15.994914619570
         N            0.885392886549     0.367620611343     0.734054433784    14.003074004430
         C           -1.539586113451     0.300855611343     0.332318433784    12.000000000000
         C            2.257787886549    -0.102024388657     0.603261433784    12.000000000000
         C           -0.155522613451    -0.310765088657     0.200793033784    12.000000000000
         C           -1.645028113451     1.603905611343    -0.450888566216    12.000000000000
         C            2.866643886549     0.251338611343    -0.746452566216    12.000000000000
         H           -1.731429113451     0.491487611343     1.399512433784     1.007825032230
         H            2.834456886549     0.331228611343     1.425091433784     1.007825032230
         H            2.240795886549    -1.185569388657     0.738140433784     1.007825032230
         H            0.701932086549     1.275339311343     1.140575033784     1.007825032230
         H           -1.390527113451     1.419580611343    -1.497447566216     1.007825032230
         H           -0.985915113451     2.383208611343    -0.055111566216     1.007825032230
         H           -2.674450113451     1.964731611343    -0.403148566216     1.007825032230
         H            2.285543886549    -0.215297388657    -1.544120566216     1.007825032230
         H            2.872561886549     1.333451611343    -0.899984566216     1.007825032230
         H            3.896818886549    -0.111650388657    -0.808744566216     1.007825032230
         H           -1.953631113451    -1.374003388657    -0.483842566216     1.007825032230

  Basis Set: AUG-CC-PVTZ
    Blend: AUG-CC-PVTZ
  Basis Set: (AUG-CC-PVTZ AUX)
    Blend: AUG-CC-PVTZ-JKFIT
	 Reference Energy          =    -400.0866947999579111 [Eh]
	 Singles Energy            =      -0.0000000000000000 [Eh]
	 Same-Spin Energy          =      -0.4023744069003733 [Eh]
	 Opposite-Spin Energy      =      -1.3081759289434518 [Eh]
	 Correlation Energy        =      -1.7105503358438252 [Eh]
	 Total Energy              =    -401.7972451358017452 [Eh]

	 ================> DF-SCS-MP2 Energies <==================
	-----------------------------------------------------------
	 SCS Same-Spin Scale       =       0.3333333333333333 [-]
	 SCS Opposite-Spin Scale   =       1.2000000000000000 [-]
	 SCS Same-Spin Energy      =      -0.1341248023001244 [Eh]
	 SCS Opposite-Spin Energy  =      -1.5698111147321421 [Eh]
	 SCS Correlation Energy    =      -1.7039359170322665 [Eh]
	 SCS Total Energy          =    -401.7906307169901652 [Eh]
	-----------------------------------------------------------

  Dipole Moment: [D]
     X:     2.8816      Y:     3.1935      Z:     1.5737     Total:     4.5802

*** Psi4 exiting successfully. Buy a developer a beer!
