                               Psi4 1.4a3.dev225

  ==> Input File <==

--------------------------------------------------------------------------
#psi4
#
memory 32 gb

molecule  {
0 1
  O       -2.5334200    -0.7491890    -0.0380440
  O       -0.0309920    -1.3916750    -0.5246560
  N        0.8474210     0.2516040     0.7908210
  C       -1.5793960     0.2040340     0.3844480
  C        2.2299320    -0.1523350     0.5631470
  C       -0.1881940    -0.3457148     0.2134834
  C       -1.7305020     1.4971750    -0.4144490
  C        2.7876300     0.3918150    -0.7462470
  H       -1.7371730     0.4054880     1.4537200
  H        2.8183710     0.1913570     1.4185970
  H        2.2480760    -1.2444890     0.5585260
  H        0.6595560     1.1005830     1.3085070
  H       -1.5202540     1.2971370    -1.4686150
  H       -1.0543700     2.2823790    -0.0604110
  H       -2.7592110     1.8535180    -0.3272230
  H        2.1936920     0.0168210    -1.5822170
  H        2.7616940     1.4848860    -0.7566670
  H        3.8242090     0.0700520    -0.8849050
  H       -2.0046360    -1.4186050    -0.5240660
units angstrom
no_reorient  #important for SAPT in psi4, default
symmetry c1  #important for SAPT in psi4, default
}

set PROPERTIES_ORIGIN ["COM"]
properties('MP2/aug-cc-pvtz', properties = ['dipole'])
--------------------------------------------------------------------------

    Molecular point group: c1
  Charge       = 0
  Multiplicity = 1
  Basis Set: AUG-CC-PVTZ
    Blend: AUG-CC-PVTZ
  Basis Set: (AUG-CC-PVTZ AUX)
    Blend: AUG-CC-PVTZ-JKFIT

    Orbital Energies [Eh]
    ---------------------

    Doubly Occupied:

       1A    -20.549642     2A    -20.522687     3A    -15.607032
       4A    -11.360009     5A    -11.300014     6A    -11.278157
       7A    -11.232209     8A    -11.225709     9A     -1.380608
      10A     -1.337933    11A     -1.246607    12A     -1.057789
      13A     -1.017032    14A     -0.907761    15A     -0.853938
      16A     -0.797663    17A     -0.745785    18A     -0.676919
      19A     -0.646037    20A     -0.631779    21A     -0.616201
      22A     -0.594269    23A     -0.577582    24A     -0.566300
      25A     -0.543689    26A     -0.534311    27A     -0.514955
      28A     -0.507587    29A     -0.501174    30A     -0.446080
      31A     -0.432592    32A     -0.402888

  @DF-RHF Final Energy:  -400.08011726908671

   => Energetics <=

    Nuclear Repulsion Energy =            400.2505869365297713
    One-Electron Energy =               -1339.4355351296142089
    Two-Electron Energy =                 539.1048309239977243
    Total Energy =                       -400.0801172690867133
  Basis Set: (AUG-CC-PVTZ AUX)
    Blend: AUG-CC-PVTZ-RI
    Molecular point group: c1

    Geometry (in Angstrom), charge = 0, multiplicity = 1:

       Center              X                  Y                   Z               Mass
    ------------   -----------------  -----------------  -----------------  -----------------
         O           -2.486913201652    -0.702266539942    -0.048350330115    15.994914619570
         O            0.015514798348    -1.344752539942    -0.534962330115    15.994914619570
         N            0.893927798348     0.298526460058     0.780514669885    14.003074004430
         C           -1.532889201652     0.250956460058     0.374141669885    12.000000000000
         C            2.276438798348    -0.105412539942     0.552840669885    12.000000000000
         C           -0.141687201652    -0.298792339942     0.203177069885    12.000000000000
         C           -1.683995201652     1.544097460058    -0.424755330115    12.000000000000
         C            2.834136798348     0.438737460058    -0.756553330115    12.000000000000
         H           -1.690666201652     0.452410460058     1.443413669885     1.007825032230
         H            2.864877798348     0.238279460058     1.408290669885     1.007825032230
         H            2.294582798348    -1.197566539942     0.548219669885     1.007825032230
         H            0.706062798348     1.147505460058     1.298200669885     1.007825032230
         H           -1.473747201652     1.344059460058    -1.478921330115     1.007825032230
         H           -1.007863201652     2.329301460058    -0.070717330115     1.007825032230
         H           -2.712704201652     1.900440460058    -0.337529330115     1.007825032230
         H            2.240198798348     0.063743460058    -1.592523330115     1.007825032230
         H            2.808200798348     1.531808460058    -0.766973330115     1.007825032230
         H            3.870715798348     0.116974460058    -0.895211330115     1.007825032230
         H           -1.958129201652    -1.371682539942    -0.534372330115     1.007825032230

  Basis Set: AUG-CC-PVTZ
    Blend: AUG-CC-PVTZ
  Basis Set: (AUG-CC-PVTZ AUX)
    Blend: AUG-CC-PVTZ-JKFIT
	 Reference Energy          =    -400.0801172690867133 [Eh]
	 Singles Energy            =      -0.0000000000000000 [Eh]
	 Same-Spin Energy          =      -0.4030899671541088 [Eh]
	 Opposite-Spin Energy      =      -1.3098236765234277 [Eh]
	 Correlation Energy        =      -1.7129136436775365 [Eh]
	 Total Energy              =    -401.7930309127642658 [Eh]

	 ================> DF-SCS-MP2 Energies <==================
	-----------------------------------------------------------
	 SCS Same-Spin Scale       =       0.3333333333333333 [-]
	 SCS Opposite-Spin Scale   =       1.2000000000000000 [-]
	 SCS Same-Spin Energy      =      -0.1343633223847029 [Eh]
	 SCS Opposite-Spin Energy  =      -1.5717884118281131 [Eh]
	 SCS Correlation Energy    =      -1.7061517342128161 [Eh]
	 SCS Total Energy          =    -401.7862690032995374 [Eh]
	-----------------------------------------------------------

  Dipole Moment: [D]
     X:     2.9816      Y:     3.3781      Z:     1.7683     Total:     4.8403

*** Psi4 exiting successfully. Buy a developer a beer!
