                               Psi4 1.3.2 release

  ==> Input File <==

--------------------------------------------------------------------------
#psi4
#
memory 32 gb

molecule  {
0 1
  O       -2.4925410    -0.6205970    -0.1535330
  O       -0.0069960    -1.4050930    -0.3804930
  N        0.8845720     0.3685180     0.7343320
  C       -1.5404070     0.3017530     0.3325960
  C        2.2486095    -0.1211908     0.5903589
  C       -0.1338557    -0.3348153     0.1900828
  C       -1.6458490     1.6048030    -0.4506110
  C        2.8658230     0.2522360    -0.7461750
  H       -1.7322500     0.4923850     1.3997900
  H        2.8336360     0.3321260     1.4253690
  H        2.2399750    -1.1846720     0.7384180
  H        0.7096630     1.2770080     1.1428940
  H       -1.3913480     1.4204780    -1.4971700
  H       -0.9867360     2.3841060    -0.0548340
  H       -2.6752710     1.9656290    -0.4028710
  H        2.2847230    -0.2144000    -1.5438430
  H        2.8717410     1.3343490    -0.8997070
  H        3.8959980    -0.1107530    -0.8084670
  H       -1.9544520    -1.3731060    -0.4835650
units angstrom
no_reorient  #important for SAPT in psi4, default
symmetry c1  #important for SAPT in psi4, default
}

set PROPERTIES_ORIGIN ["COM"]
properties('MP2/aug-cc-pvtz', properties = ['dipole'])
--------------------------------------------------------------------------

    Molecular point group: c1
  Charge       = 0
  Multiplicity = 1
  Basis Set: AUG-CC-PVTZ
    Blend: AUG-CC-PVTZ
  Basis Set: (AUG-CC-PVTZ AUX)
    Blend: AUG-CC-PVTZ-JKFIT

    Orbital Energies [Eh]
    ---------------------

    Doubly Occupied:

       1A    -20.547741     2A    -20.536318     3A    -15.597312
       4A    -11.357220     5A    -11.296779     6A    -11.273684
       7A    -11.229725     8A    -11.223264     9A     -1.407672
      10A     -1.348310    11A     -1.247627    12A     -1.049892
      13A     -1.011902    14A     -0.899286    15A     -0.846375
      16A     -0.796652    17A     -0.743029    18A     -0.677695
      19A     -0.646257    20A     -0.644764    21A     -0.612957
      22A     -0.601579    23A     -0.577100    24A     -0.562800
      25A     -0.543262    26A     -0.533866    27A     -0.523476
      28A     -0.516789    29A     -0.502954    30A     -0.444884
      31A     -0.433080    32A     -0.405090

  @DF-RHF Final Energy:  -400.08788526381932

   => Energetics <=

    Nuclear Repulsion Energy =            400.8758623814785551
    One-Electron Energy =               -1340.6488129835918244
    Two-Electron Energy =                 539.6850653382939527
    Total Energy =                       -400.0878852638193166
  Basis Set: (AUG-CC-PVTZ AUX)
    Blend: AUG-CC-PVTZ-RI
    Molecular point group: c1

    Geometry (in Angstrom), charge = 0, multiplicity = 1:

       Center              X                  Y                   Z               Mass
    ------------   -----------------  -----------------  -----------------  -----------------
         O           -2.493242011919    -0.616887588435    -0.151351051882    15.994914619570
         O           -0.007697011919    -1.401383588435    -0.378311051882    15.994914619570
         N            0.883870988081     0.372227411565     0.736513948118    14.003074004430
         C           -1.541108011919     0.305462411565     0.334777948118    12.000000000000
         C            2.247908488081    -0.117481388435     0.592540848118    12.000000000000
         C           -0.134556711919    -0.331105888435     0.192264748118    12.000000000000
         C           -1.646550011919     1.608512411565    -0.448429051882    12.000000000000
         C            2.865121988081     0.255945411565    -0.743993051882    12.000000000000
         H           -1.732951011919     0.496094411565     1.401971948118     1.007825032230
         H            2.832934988081     0.335835411565     1.427550948118     1.007825032230
         H            2.239273988081    -1.180962588435     0.740599948118     1.007825032230
         H            0.708961988081     1.280717411565     1.145075948118     1.007825032230
         H           -1.392049011919     1.424187411565    -1.494988051882     1.007825032230
         H           -0.987437011919     2.387815411565    -0.052652051882     1.007825032230
         H           -2.675972011919     1.969338411565    -0.400689051882     1.007825032230
         H            2.284021988081    -0.210690588435    -1.541661051882     1.007825032230
         H            2.871039988081     1.338058411565    -0.897525051882     1.007825032230
         H            3.895296988081    -0.107043588435    -0.806285051882     1.007825032230
         H           -1.955153011919    -1.369396588435    -0.481383051882     1.007825032230

  Basis Set: AUG-CC-PVTZ
    Blend: AUG-CC-PVTZ
  Basis Set: (AUG-CC-PVTZ AUX)
    Blend: AUG-CC-PVTZ-JKFIT
	 Reference Energy          =    -400.0878852638193166 [Eh]
	 Singles Energy            =      -0.0000000000000000 [Eh]
	 Same-Spin Energy          =      -0.4016747688808911 [Eh]
	 Opposite-Spin Energy      =      -1.3068268546761335 [Eh]
	 Correlation Energy        =      -1.7085016235570245 [Eh]
	 Total Energy              =    -401.7963868873763431 [Eh]

	 ================> DF-SCS-MP2 Energies <==================
	-----------------------------------------------------------
	 SCS Same-Spin Scale       =       0.3333333333333333 [-]
	 SCS Opposite-Spin Scale   =       1.2000000000000000 [-]
	 SCS Same-Spin Energy      =      -0.1338915896269637 [Eh]
	 SCS Opposite-Spin Energy  =      -1.5681922256113601 [Eh]
	 SCS Correlation Energy    =      -1.7020838152383237 [Eh]
	 SCS Total Energy          =    -401.7899690790576415 [Eh]
	-----------------------------------------------------------

  Dipole Moment: [D]
     X:     2.9336      Y:     3.0431      Z:     1.5114     Total:     4.4890

*** Psi4 exiting successfully. Buy a developer a beer!
