                               Psi4 1.4a3.dev225

  ==> Input File <==

--------------------------------------------------------------------------
#psi4
#
memory 32 gb

molecule  {
0 1
  O       -2.5334200    -0.7491890    -0.0380440
  O       -0.0309920    -1.3916750    -0.5246560
  N        0.8474210     0.2516040     0.7908210
  C       -1.5793960     0.2040340     0.3844480
  C        2.2299320    -0.1523350     0.5631470
  C       -0.1821000    -0.3862620     0.1848690
  C       -1.7305020     1.4971750    -0.4144490
  C        2.7876300     0.3918150    -0.7462470
  H       -1.7371730     0.4054880     1.4537200
  H        2.8183710     0.1913570     1.4185970
  H        2.2480760    -1.2444890     0.5585260
  H        0.6595560     1.1005830     1.3085070
  H       -1.5202540     1.2971370    -1.4686150
  H       -1.0543700     2.2823790    -0.0604110
  H       -2.7592110     1.8535180    -0.3272230
  H        2.1936920     0.0168210    -1.5822170
  H        2.7616940     1.4848860    -0.7566670
  H        3.8242090     0.0700520    -0.8849050
  H       -2.0154076    -1.4049686    -0.5141655
units angstrom
no_reorient  #important for SAPT in psi4, default
symmetry c1  #important for SAPT in psi4, default
}

set PROPERTIES_ORIGIN ["COM"]
properties('MP2/aug-cc-pvtz', properties = ['dipole'])
--------------------------------------------------------------------------

    Molecular point group: c1
  Charge       = 0
  Multiplicity = 1
  Basis Set: AUG-CC-PVTZ
    Blend: AUG-CC-PVTZ
  Basis Set: (AUG-CC-PVTZ AUX)
    Blend: AUG-CC-PVTZ-JKFIT

    Orbital Energies [Eh]
    ---------------------

    Doubly Occupied:

       1A    -20.548727     2A    -20.532593     3A    -15.599072
       4A    -11.359086     5A    -11.298955     6A    -11.274312
       7A    -11.230941     8A    -11.223852     9A     -1.397981
      10A     -1.350408    11A     -1.244668    12A     -1.052321
      13A     -1.013148    14A     -0.902493    15A     -0.849015
      16A     -0.793874    17A     -0.747704    18A     -0.675328
      19A     -0.646431    20A     -0.637811    21A     -0.614616
      22A     -0.597877    23A     -0.582450    24A     -0.564893
      25A     -0.542227    26A     -0.533167    27A     -0.521617
      28A     -0.514749    29A     -0.502779    30A     -0.448103
      31A     -0.433669    32A     -0.403560

  @DF-RHF Final Energy:  -400.08853977066735

   => Energetics <=

    Nuclear Repulsion Energy =            400.4865556342649029
    One-Electron Energy =               -1339.8733376733466685
    Two-Electron Energy =                 539.2982422684143557
    Total Energy =                       -400.0885397706673530
  Basis Set: (AUG-CC-PVTZ AUX)
    Blend: AUG-CC-PVTZ-RI
    Molecular point group: c1

    Geometry (in Angstrom), charge = 0, multiplicity = 1:

       Center              X                  Y                   Z               Mass
    ------------   -----------------  -----------------  -----------------  -----------------
         O           -2.487445082888    -0.698228041312    -0.045502723890    15.994914619570
         O            0.014982917112    -1.340714041312    -0.532114723890    15.994914619570
         N            0.893395917112     0.302564958688     0.783362276110    14.003074004430
         C           -1.533421082888     0.254994958688     0.376989276110    12.000000000000
         C            2.275906917112    -0.101374041312     0.555688276110    12.000000000000
         C           -0.136125082888    -0.335301041312     0.177410276110    12.000000000000
         C           -1.684527082888     1.548135958688    -0.421907723890    12.000000000000
         C            2.833604917112     0.442775958688    -0.753705723890    12.000000000000
         H           -1.691198082888     0.456448958688     1.446261276110     1.007825032230
         H            2.864345917112     0.242317958688     1.411138276110     1.007825032230
         H            2.294050917112    -1.193528041312     0.551067276110     1.007825032230
         H            0.705530917112     1.151543958688     1.301048276110     1.007825032230
         H           -1.474279082888     1.348097958688    -1.476073723890     1.007825032230
         H           -1.008395082888     2.333339958688    -0.067869723890     1.007825032230
         H           -2.713236082888     1.904478958688    -0.334681723890     1.007825032230
         H            2.239666917112     0.067781958688    -1.589675723890     1.007825032230
         H            2.807668917112     1.535846958688    -0.764125723890     1.007825032230
         H            3.870183917112     0.121012958688    -0.892363723890     1.007825032230
         H           -1.969432682888    -1.354007641312    -0.521624223890     1.007825032230

  Basis Set: AUG-CC-PVTZ
    Blend: AUG-CC-PVTZ
  Basis Set: (AUG-CC-PVTZ AUX)
    Blend: AUG-CC-PVTZ-JKFIT
	 Reference Energy          =    -400.0885397706673530 [Eh]
	 Singles Energy            =      -0.0000000000000000 [Eh]
	 Same-Spin Energy          =      -0.4017137856934108 [Eh]
	 Opposite-Spin Energy      =      -1.3071921542445102 [Eh]
	 Correlation Energy        =      -1.7089059399379209 [Eh]
	 Total Energy              =    -401.7974457106053023 [Eh]

	 ================> DF-SCS-MP2 Energies <==================
	-----------------------------------------------------------
	 SCS Same-Spin Scale       =       0.3333333333333333 [-]
	 SCS Opposite-Spin Scale   =       1.2000000000000000 [-]
	 SCS Same-Spin Energy      =      -0.1339045952311369 [Eh]
	 SCS Opposite-Spin Energy  =      -1.5686305850934121 [Eh]
	 SCS Correlation Energy    =      -1.7025351803245490 [Eh]
	 SCS Total Energy          =    -401.7910749509919128 [Eh]
	-----------------------------------------------------------

  Dipole Moment: [D]
     X:     2.8419      Y:     3.1470      Z:     1.6192     Total:     4.5389

*** Psi4 exiting successfully. Buy a developer a beer!
