                               Psi4 1.3.2 release

  ==> Input File <==

--------------------------------------------------------------------------
#psi4
#
memory 32 gb

molecule  {
0 1
  O       -2.4925410    -0.6205970    -0.1535330
  O       -0.0069960    -1.4050930    -0.3804930
  N        0.8845720     0.3685180     0.7343320
  C       -1.5404070     0.3017530     0.3325960
  C        2.2569670    -0.1011270     0.6035390
  C       -0.1490540    -0.3186880     0.1981930
  C       -1.6458490     1.6048030    -0.4506110
  C        2.8658230     0.2522360    -0.7461750
  H       -1.7671011     0.5270161     1.5936613
  H        2.8336360     0.3321260     1.4253690
  H        2.2399750    -1.1846720     0.7384180
  H        0.7096630     1.2770080     1.1428940
  H       -1.3913480     1.4204780    -1.4971700
  H       -0.9867360     2.3841060    -0.0548340
  H       -2.6752710     1.9656290    -0.4028710
  H        2.2847230    -0.2144000    -1.5438430
  H        2.8717410     1.3343490    -0.8997070
  H        3.8959980    -0.1107530    -0.8084670
  H       -1.9544520    -1.3731060    -0.4835650
units angstrom
no_reorient  #important for SAPT in psi4, default
symmetry c1  #important for SAPT in psi4, default
}

set PROPERTIES_ORIGIN ["COM"]
properties('MP2/aug-cc-pvtz', properties = ['dipole'])
--------------------------------------------------------------------------

    Molecular point group: c1
  Charge       = 0
  Multiplicity = 1
  Basis Set: AUG-CC-PVTZ
    Blend: AUG-CC-PVTZ
  Basis Set: (AUG-CC-PVTZ AUX)
    Blend: AUG-CC-PVTZ-JKFIT

    Orbital Energies [Eh]
    ---------------------

    Doubly Occupied:

       1A    -20.553717     2A    -20.535101     3A    -15.598591
       4A    -11.361546     5A    -11.321172     6A    -11.274048
       7A    -11.233762     8A    -11.223424     9A     -1.400214
      10A     -1.349755    11A     -1.245850    12A     -1.050497
      13A     -1.011909    14A     -0.901687    15A     -0.843753
      16A     -0.792146    17A     -0.741110    18A     -0.671181
      19A     -0.645208    20A     -0.634781    21A     -0.612860
      22A     -0.598188    23A     -0.579065    24A     -0.564904
      25A     -0.544059    26A     -0.529444    27A     -0.522174
      28A     -0.513025    29A     -0.502433    30A     -0.441277
      31A     -0.433216    32A     -0.402603

  @DF-RHF Final Energy:  -400.06779592642988

   => Energetics <=

    Nuclear Repulsion Energy =            399.6547980360289216
    One-Electron Energy =               -1338.1797882265420867
    Two-Electron Energy =                 538.4571942640832276
    Total Energy =                       -400.0677959264298806
  Basis Set: (AUG-CC-PVTZ AUX)
    Blend: AUG-CC-PVTZ-RI
    Molecular point group: c1

    Geometry (in Angstrom), charge = 0, multiplicity = 1:

       Center              X                  Y                   Z               Mass
    ------------   -----------------  -----------------  -----------------  -----------------
         O           -2.492240863699    -0.620895099391    -0.155202058737    15.994914619570
         O           -0.006695863699    -1.405391099391    -0.382162058737    15.994914619570
         N            0.884872136301     0.368219900609     0.732662941263    14.003074004430
         C           -1.540106863699     0.301454900609     0.330926941263    12.000000000000
         C            2.257267136301    -0.101425099391     0.601869941263    12.000000000000
         C           -0.148753863699    -0.318986099391     0.196523941263    12.000000000000
         C           -1.645548863699     1.604504900609    -0.452280058737    12.000000000000
         C            2.866123136301     0.251937900609    -0.747844058737    12.000000000000
         H           -1.766800963699     0.526718000609     1.591992241263     1.007825032230
         H            2.833936136301     0.331827900609     1.423699941263     1.007825032230
         H            2.240275136301    -1.184970099391     0.736748941263     1.007825032230
         H            0.709963136301     1.276709900609     1.141224941263     1.007825032230
         H           -1.391047863699     1.420179900609    -1.498839058737     1.007825032230
         H           -0.986435863699     2.383807900609    -0.056503058737     1.007825032230
         H           -2.674970863699     1.965330900609    -0.404540058737     1.007825032230
         H            2.285023136301    -0.214698099391    -1.545512058737     1.007825032230
         H            2.872041136301     1.334050900609    -0.901376058737     1.007825032230
         H            3.896298136301    -0.111051099391    -0.810136058737     1.007825032230
         H           -1.954151863699    -1.373404099391    -0.485234058737     1.007825032230

  Basis Set: AUG-CC-PVTZ
    Blend: AUG-CC-PVTZ
  Basis Set: (AUG-CC-PVTZ AUX)
    Blend: AUG-CC-PVTZ-JKFIT
	 Reference Energy          =    -400.0677959264298806 [Eh]
	 Singles Energy            =      -0.0000000000000000 [Eh]
	 Same-Spin Energy          =      -0.4024848651876343 [Eh]
	 Opposite-Spin Energy      =      -1.3097033019245670 [Eh]
	 Correlation Energy        =      -1.7121881671122012 [Eh]
	 Total Energy              =    -401.7799840935420548 [Eh]

	 ================> DF-SCS-MP2 Energies <==================
	-----------------------------------------------------------
	 SCS Same-Spin Scale       =       0.3333333333333333 [-]
	 SCS Opposite-Spin Scale   =       1.2000000000000000 [-]
	 SCS Same-Spin Energy      =      -0.1341616217292114 [Eh]
	 SCS Opposite-Spin Energy  =      -1.5716439623094802 [Eh]
	 SCS Correlation Energy    =      -1.7058055840386916 [Eh]
	 SCS Total Energy          =    -401.7736015104685521 [Eh]
	-----------------------------------------------------------

  Dipole Moment: [D]
     X:     2.8877      Y:     3.0865      Z:     1.3816     Total:     4.4468

*** Psi4 exiting successfully. Buy a developer a beer!
