                               Psi4 1.4a3.dev225

  ==> Input File <==

--------------------------------------------------------------------------
#psi4
#
memory 32 gb

molecule  {
0 1
  O       -2.5334200    -0.7491890    -0.0380440
  O       -0.0309920    -1.3916750    -0.5246560
  N        0.8474210     0.2516040     0.7908210
  C       -1.5793960     0.2040340     0.3844480
  C        2.2299320    -0.1523350     0.5631470
  C       -0.1821000    -0.3862620     0.1848690
  C       -1.7305020     1.4971750    -0.4144490
  C        2.7876300     0.3918150    -0.7462470
  H       -1.7299978     0.3963265     1.4050930
  H        2.8183710     0.1913570     1.4185970
  H        2.2480760    -1.2444890     0.5585260
  H        0.6595560     1.1005830     1.3085070
  H       -1.5202540     1.2971370    -1.4686150
  H       -1.0543700     2.2823790    -0.0604110
  H       -2.7592110     1.8535180    -0.3272230
  H        2.1936920     0.0168210    -1.5822170
  H        2.7616940     1.4848860    -0.7566670
  H        3.8242090     0.0700520    -0.8849050
  H       -2.0046360    -1.4186050    -0.5240660
units angstrom
no_reorient  #important for SAPT in psi4, default
symmetry c1  #important for SAPT in psi4, default
}

set PROPERTIES_ORIGIN ["COM"]
properties('MP2/aug-cc-pvtz', properties = ['dipole'])
--------------------------------------------------------------------------

    Molecular point group: c1
  Charge       = 0
  Multiplicity = 1
  Basis Set: AUG-CC-PVTZ
    Blend: AUG-CC-PVTZ
  Basis Set: (AUG-CC-PVTZ AUX)
    Blend: AUG-CC-PVTZ-JKFIT

    Orbital Energies [Eh]
    ---------------------

    Doubly Occupied:

       1A    -20.548609     2A    -20.532700     3A    -15.599345
       4A    -11.358731     5A    -11.292357     6A    -11.274441
       7A    -11.230244     8A    -11.223944     9A     -1.396868
      10A     -1.346290    11A     -1.244913    12A     -1.052988
      13A     -1.013341    14A     -0.903115    15A     -0.850831
      16A     -0.794698    17A     -0.747527    18A     -0.676588
      19A     -0.646495    20A     -0.639027    21A     -0.614547
      22A     -0.597825    23A     -0.581214    24A     -0.564331
      25A     -0.541831    26A     -0.534391    27A     -0.521293
      28A     -0.513660    29A     -0.502847    30A     -0.448779
      31A     -0.433550    32A     -0.403884

  @DF-RHF Final Energy:  -400.08694033725311

   => Energetics <=

    Nuclear Repulsion Energy =            400.6634220081641047
    One-Electron Energy =               -1340.2383170950129170
    Two-Electron Energy =                 539.4879547495955876
    Total Energy =                       -400.0869403372531679
  Basis Set: (AUG-CC-PVTZ AUX)
    Blend: AUG-CC-PVTZ-RI
    Molecular point group: c1

    Geometry (in Angstrom), charge = 0, multiplicity = 1:

       Center              X                  Y                   Z               Mass
    ------------   -----------------  -----------------  -----------------  -----------------
         O           -2.487599570351    -0.698031795200    -0.044998914578    15.994914619570
         O            0.014828429649    -1.340517795200    -0.531610914578    15.994914619570
         N            0.893241429649     0.302761204800     0.783866085422    14.003074004430
         C           -1.533575570351     0.255191204800     0.377493085422    12.000000000000
         C            2.275752429649    -0.101177795200     0.556192085422    12.000000000000
         C           -0.136279570351    -0.335104795200     0.177914085422    12.000000000000
         C           -1.684681570351     1.548332204800    -0.421403914578    12.000000000000
         C            2.833450429649     0.442972204800    -0.753201914578    12.000000000000
         H           -1.684177370351     0.447483704800     1.398138085422     1.007825032230
         H            2.864191429649     0.242514204800     1.411642085422     1.007825032230
         H            2.293896429649    -1.193331795200     0.551571085422     1.007825032230
         H            0.705376429649     1.151740204800     1.301552085422     1.007825032230
         H           -1.474433570351     1.348294204800    -1.475569914578     1.007825032230
         H           -1.008549570351     2.333536204800    -0.067365914578     1.007825032230
         H           -2.713390570351     1.904675204800    -0.334177914578     1.007825032230
         H            2.239512429649     0.067978204800    -1.589171914578     1.007825032230
         H            2.807514429649     1.536043204800    -0.763621914578     1.007825032230
         H            3.870029429649     0.121209204800    -0.891859914578     1.007825032230
         H           -1.958815570351    -1.367447795200    -0.531020914578     1.007825032230

  Basis Set: AUG-CC-PVTZ
    Blend: AUG-CC-PVTZ
  Basis Set: (AUG-CC-PVTZ AUX)
    Blend: AUG-CC-PVTZ-JKFIT
	 Reference Energy          =    -400.0869403372531110 [Eh]
	 Singles Energy            =      -0.0000000000000000 [Eh]
	 Same-Spin Energy          =      -0.4019561273357809 [Eh]
	 Opposite-Spin Energy      =      -1.3074545819155587 [Eh]
	 Correlation Energy        =      -1.7094107092513395 [Eh]
	 Total Energy              =    -401.7963510465044692 [Eh]

	 ================> DF-SCS-MP2 Energies <==================
	-----------------------------------------------------------
	 SCS Same-Spin Scale       =       0.3333333333333333 [-]
	 SCS Opposite-Spin Scale   =       1.2000000000000000 [-]
	 SCS Same-Spin Energy      =      -0.1339853757785936 [Eh]
	 SCS Opposite-Spin Energy  =      -1.5689454982986704 [Eh]
	 SCS Correlation Energy    =      -1.7029308740772640 [Eh]
	 SCS Total Energy          =    -401.7898712113303645 [Eh]
	-----------------------------------------------------------

  Dipole Moment: [D]
     X:     2.8754      Y:     3.1421      Z:     1.6373     Total:     4.5631

*** Psi4 exiting successfully. Buy a developer a beer!
