                               Psi4 1.3.2 release

  ==> Input File <==

--------------------------------------------------------------------------
#psi4
#
memory 32 gb

molecule  {
0 1
  O       -2.4925410    -0.6205970    -0.1535330
  O       -0.0069960    -1.4050930    -0.3804930
  N        0.8845720     0.3685180     0.7343320
  C       -1.5404070     0.3017530     0.3325960
  C        2.2569670    -0.1011270     0.6035390
  C       -0.1528704    -0.3287991     0.2060235
  C       -1.6584784     1.6060944    -0.4466493
  C        2.8658230     0.2522360    -0.7461750
  H       -1.7322500     0.4923850     1.3997900
  H        2.8336360     0.3321260     1.4253690
  H        2.2399750    -1.1846720     0.7384180
  H        0.7096630     1.2770080     1.1428940
  H       -1.3913480     1.4204780    -1.4971700
  H       -0.9867360     2.3841060    -0.0548340
  H       -2.6752710     1.9656290    -0.4028710
  H        2.2847230    -0.2144000    -1.5438430
  H        2.8717410     1.3343490    -0.8997070
  H        3.8959980    -0.1107530    -0.8084670
  H       -1.9544520    -1.3731060    -0.4835650
units angstrom
no_reorient  #important for SAPT in psi4, default
symmetry c1  #important for SAPT in psi4, default
}

set PROPERTIES_ORIGIN ["COM"]
properties('MP2/aug-cc-pvtz', properties = ['dipole'])
--------------------------------------------------------------------------

    Molecular point group: c1
  Charge       = 0
  Multiplicity = 1
  Basis Set: AUG-CC-PVTZ
    Blend: AUG-CC-PVTZ
  Basis Set: (AUG-CC-PVTZ AUX)
    Blend: AUG-CC-PVTZ-JKFIT

    Orbital Energies [Eh]
    ---------------------

    Doubly Occupied:

       1A    -20.548459     2A    -20.534840     3A    -15.597849
       4A    -11.359516     5A    -11.298093     6A    -11.273534
       7A    -11.231270     8A    -11.222913     9A     -1.400806
      10A     -1.347410    11A     -1.244545    12A     -1.052007
      13A     -1.012238    14A     -0.902936    15A     -0.848691
      16A     -0.793176    17A     -0.744823    18A     -0.676522
      19A     -0.647605    20A     -0.642770    21A     -0.612866
      22A     -0.597699    23A     -0.576702    24A     -0.566362
      25A     -0.542133    26A     -0.532057    27A     -0.522649
      28A     -0.515152    29A     -0.502156    30A     -0.445373
      31A     -0.437267    32A     -0.403153

  @DF-RHF Final Energy:  -400.08781107865462

   => Energetics <=

    Nuclear Repulsion Energy =            400.5267993400227056
    One-Electron Energy =               -1339.9620798035737153
    Two-Electron Energy =                 539.3474693848962715
    Total Energy =                       -400.0878110786546813
  Basis Set: (AUG-CC-PVTZ AUX)
    Blend: AUG-CC-PVTZ-RI
    Molecular point group: c1

    Geometry (in Angstrom), charge = 0, multiplicity = 1:

       Center              X                  Y                   Z               Mass
    ------------   -----------------  -----------------  -----------------  -----------------
         O           -2.490855253823    -0.619693017761    -0.154741839919    15.994914619570
         O           -0.005310253823    -1.404189017761    -0.381701839919    15.994914619570
         N            0.886257746177     0.369421982239     0.733123160081    14.003074004430
         C           -1.538721253823     0.302656982239     0.331387160081    12.000000000000
         C            2.258652746177    -0.100223017761     0.602330160081    12.000000000000
         C           -0.151184653823    -0.327895117761     0.204814660081    12.000000000000
         C           -1.656792653823     1.606998382239    -0.447858139919    12.000000000000
         C            2.867508746177     0.253139982239    -0.747383839919    12.000000000000
         H           -1.730564253823     0.493288982239     1.398581160081     1.007825032230
         H            2.835321746177     0.333029982239     1.424160160081     1.007825032230
         H            2.241660746177    -1.183768017761     0.737209160081     1.007825032230
         H            0.711348746177     1.277911982239     1.141685160081     1.007825032230
         H           -1.389662253823     1.421381982239    -1.498378839919     1.007825032230
         H           -0.985050253823     2.385009982239    -0.056042839919     1.007825032230
         H           -2.673585253823     1.966532982239    -0.404079839919     1.007825032230
         H            2.286408746177    -0.213496017761    -1.545051839919     1.007825032230
         H            2.873426746177     1.335252982239    -0.900915839919     1.007825032230
         H            3.897683746177    -0.109849017761    -0.809675839919     1.007825032230
         H           -1.952766253823    -1.372202017761    -0.484773839919     1.007825032230

  Basis Set: AUG-CC-PVTZ
    Blend: AUG-CC-PVTZ
  Basis Set: (AUG-CC-PVTZ AUX)
    Blend: AUG-CC-PVTZ-JKFIT
	 Reference Energy          =    -400.0878110786546245 [Eh]
	 Singles Energy            =      -0.0000000000000000 [Eh]
	 Same-Spin Energy          =      -0.4020075207356950 [Eh]
	 Opposite-Spin Energy      =      -1.3075242395701063 [Eh]
	 Correlation Energy        =      -1.7095317603058013 [Eh]
	 Total Energy              =    -401.7973428389604464 [Eh]

	 ================> DF-SCS-MP2 Energies <==================
	-----------------------------------------------------------
	 SCS Same-Spin Scale       =       0.3333333333333333 [-]
	 SCS Opposite-Spin Scale   =       1.2000000000000000 [-]
	 SCS Same-Spin Energy      =      -0.1340025069118983 [Eh]
	 SCS Opposite-Spin Energy  =      -1.5690290874841275 [Eh]
	 SCS Correlation Energy    =      -1.7030315943960259 [Eh]
	 SCS Total Energy          =    -401.7908426730506335 [Eh]
	-----------------------------------------------------------

  Dipole Moment: [D]
     X:     2.8724      Y:     3.1136      Z:     1.5481     Total:     4.5102

*** Psi4 exiting successfully. Buy a developer a beer!
