                               Psi4 1.3.2 release

  ==> Input File <==

--------------------------------------------------------------------------
#psi4
#
memory 32 gb

molecule  {
0 1
  O       -2.4925410    -0.6205970    -0.1535330
  O       -0.0069960    -1.4050930    -0.3804930
  N        0.8845720     0.3685180     0.7343320
  C       -1.5404070     0.3017530     0.3325960
  C        2.2569670    -0.1011270     0.6035390
  C       -0.1490540    -0.3186880     0.1981930
  C       -1.6569543     1.6301304    -0.4051713
  C        2.8658230     0.2522360    -0.7461750
  H       -1.7373629     0.5295663     1.3915374
  H        2.8336360     0.3321260     1.4253690
  H        2.2399750    -1.1846720     0.7384180
  H        0.7096630     1.2770080     1.1428940
  H       -1.3913480     1.4204780    -1.4971700
  H       -0.9867360     2.3841060    -0.0548340
  H       -2.6752710     1.9656290    -0.4028710
  H        2.2847230    -0.2144000    -1.5438430
  H        2.8717410     1.3343490    -0.8997070
  H        3.8959980    -0.1107530    -0.8084670
  H       -1.9544520    -1.3731060    -0.4835650
units angstrom
no_reorient  #important for SAPT in psi4, default
symmetry c1  #important for SAPT in psi4, default
}

set PROPERTIES_ORIGIN ["COM"]
properties('MP2/aug-cc-pvtz', properties = ['dipole'])
--------------------------------------------------------------------------

    Molecular point group: c1
  Charge       = 0
  Multiplicity = 1
  Basis Set: AUG-CC-PVTZ
    Blend: AUG-CC-PVTZ
  Basis Set: (AUG-CC-PVTZ AUX)
    Blend: AUG-CC-PVTZ-JKFIT

    Orbital Energies [Eh]
    ---------------------

    Doubly Occupied:

       1A    -20.549945     2A    -20.533977     3A    -15.599248
       4A    -11.360105     5A    -11.298604     6A    -11.274209
       7A    -11.231160     8A    -11.223365     9A     -1.398745
      10A     -1.347108    11A     -1.246192    12A     -1.053380
      13A     -1.013472    14A     -0.902812    15A     -0.848890
      16A     -0.794326    17A     -0.745525    18A     -0.676922
      19A     -0.648484    20A     -0.641767    21A     -0.613870
      22A     -0.598718    23A     -0.577873    24A     -0.572125
      25A     -0.542137    26A     -0.526014    27A     -0.522179
      28A     -0.513556    29A     -0.502506    30A     -0.443457
      31A     -0.437546    32A     -0.403654

  @DF-RHF Final Energy:  -400.08431846362993

   => Energetics <=

    Nuclear Repulsion Energy =            400.4176340848789550
    One-Electron Energy =               -1339.7201661532903927
    Two-Electron Energy =                 539.2182136047815675
    Total Energy =                       -400.0843184636298702
  Basis Set: (AUG-CC-PVTZ AUX)
    Blend: AUG-CC-PVTZ-RI
    Molecular point group: c1

    Geometry (in Angstrom), charge = 0, multiplicity = 1:

       Center              X                  Y                   Z               Mass
    ------------   -----------------  -----------------  -----------------  -----------------
         O           -2.491358615674    -0.623512981432    -0.158119498555    15.994914619570
         O           -0.005813615674    -1.408008981432    -0.385079498555    15.994914619570
         N            0.885754384326     0.365602018568     0.729745501445    14.003074004430
         C           -1.539224615674     0.298837018568     0.328009501445    12.000000000000
         C            2.258149384326    -0.104042981432     0.598952501445    12.000000000000
         C           -0.147871615674    -0.321603981432     0.193606501445    12.000000000000
         C           -1.655771915674     1.627214418568    -0.409757798555    12.000000000000
         C            2.867005384326     0.249320018568    -0.750761498555    12.000000000000
         H           -1.736180515674     0.526650318568     1.386950901445     1.007825032230
         H            2.834818384326     0.329210018568     1.420782501445     1.007825032230
         H            2.241157384326    -1.187587981432     0.733831501445     1.007825032230
         H            0.710845384326     1.274092018568     1.138307501445     1.007825032230
         H           -1.390165615674     1.417562018568    -1.501756498555     1.007825032230
         H           -0.985553615674     2.381190018568    -0.059420498555     1.007825032230
         H           -2.674088615674     1.962713018568    -0.407457498555     1.007825032230
         H            2.285905384326    -0.217315981432    -1.548429498555     1.007825032230
         H            2.872923384326     1.331433018568    -0.904293498555     1.007825032230
         H            3.897180384326    -0.113668981432    -0.813053498555     1.007825032230
         H           -1.953269615674    -1.376021981432    -0.488151498555     1.007825032230

  Basis Set: AUG-CC-PVTZ
    Blend: AUG-CC-PVTZ
  Basis Set: (AUG-CC-PVTZ AUX)
    Blend: AUG-CC-PVTZ-JKFIT
	 Reference Energy          =    -400.0843184636299270 [Eh]
	 Singles Energy            =      -0.0000000000000000 [Eh]
	 Same-Spin Energy          =      -0.4021868614480408 [Eh]
	 Opposite-Spin Energy      =      -1.3078677326020558 [Eh]
	 Correlation Energy        =      -1.7100545940500966 [Eh]
	 Total Energy              =    -401.7943730576800476 [Eh]

	 ================> DF-SCS-MP2 Energies <==================
	-----------------------------------------------------------
	 SCS Same-Spin Scale       =       0.3333333333333333 [-]
	 SCS Opposite-Spin Scale   =       1.2000000000000000 [-]
	 SCS Same-Spin Energy      =      -0.1340622871493469 [Eh]
	 SCS Opposite-Spin Energy  =      -1.5694412791224670 [Eh]
	 SCS Correlation Energy    =      -1.7035035662718139 [Eh]
	 SCS Total Energy          =    -401.7878220299017471 [Eh]
	-----------------------------------------------------------

  Dipole Moment: [D]
     X:     2.9056      Y:     3.1524      Z:     1.5799     Total:     4.5691

*** Psi4 exiting successfully. Buy a developer a beer!
