                               Psi4 1.3.2 release

  ==> Input File <==

--------------------------------------------------------------------------
#psi4
#
memory 32 gb

molecule  {
0 1
  O       -2.4925410    -0.6205970    -0.1535330
  O       -0.0069960    -1.4050930    -0.3804930
  N        0.8845720     0.3685180     0.7343320
  C       -1.5404070     0.3017530     0.3325960
  C        2.2569670    -0.1011270     0.6035390
  C       -0.1261245    -0.4940439     0.1047877
  C       -1.6458490     1.6048030    -0.4506110
  C        2.8658230     0.2522360    -0.7461750
  H       -1.7322500     0.4923850     1.3997900
  H        2.8336360     0.3321260     1.4253690
  H        2.2399750    -1.1846720     0.7384180
  H        0.7096630     1.2770080     1.1428940
  H       -1.3913480     1.4204780    -1.4971700
  H       -0.9867360     2.3841060    -0.0548340
  H       -2.6752710     1.9656290    -0.4028710
  H        2.2847230    -0.2144000    -1.5438430
  H        2.8717410     1.3343490    -0.8997070
  H        3.8959980    -0.1107530    -0.8084670
  H       -1.9544520    -1.3731060    -0.4835650
units angstrom
no_reorient  #important for SAPT in psi4, default
symmetry c1  #important for SAPT in psi4, default
}

set PROPERTIES_ORIGIN ["COM"]
properties('MP2/aug-cc-pvtz', properties = ['dipole'])
--------------------------------------------------------------------------

    Molecular point group: c1
  Charge       = 0
  Multiplicity = 1
  Basis Set: AUG-CC-PVTZ
    Blend: AUG-CC-PVTZ
  Basis Set: (AUG-CC-PVTZ AUX)
    Blend: AUG-CC-PVTZ-JKFIT

    Orbital Energies [Eh]
    ---------------------

    Doubly Occupied:

       1A    -20.575109     2A    -20.548337     3A    -15.565780
       4A    -11.351797     5A    -11.289109     6A    -11.259296
       7A    -11.224199     8A    -11.216739     9A     -1.551181
      10A     -1.356492    11A     -1.209475    12A     -1.029181
      13A     -0.996691    14A     -0.877642    15A     -0.830954
      16A     -0.785731    17A     -0.758598    18A     -0.717511
      19A     -0.678359    20A     -0.637643    21A     -0.631498
      22A     -0.602078    23A     -0.577860    24A     -0.565619
      25A     -0.557073    26A     -0.547820    27A     -0.532081
      28A     -0.525149    29A     -0.499783    30A     -0.442877
      31A     -0.402444    32A     -0.388560

  @DF-RHF Final Energy:  -400.01324572472811

   => Energetics <=

    Nuclear Repulsion Energy =            401.7986551662657462
    One-Electron Energy =               -1342.1584672848177888
    Two-Electron Energy =                 540.3465663938239913
    Total Energy =                       -400.0132457247281081
  Basis Set: (AUG-CC-PVTZ AUX)
    Blend: AUG-CC-PVTZ-RI
    Molecular point group: c1

    Geometry (in Angstrom), charge = 0, multiplicity = 1:

       Center              X                  Y                   Z               Mass
    ------------   -----------------  -----------------  -----------------  -----------------
         O           -2.494891021863    -0.602623904040    -0.143959631062    15.994914619570
         O           -0.009346021863    -1.387119904040    -0.370919631062    15.994914619570
         N            0.882221978137     0.386491095960     0.743905368938    14.003074004430
         C           -1.542757021863     0.319726095960     0.342169368938    12.000000000000
         C            2.254616978137    -0.083153904040     0.613112368938    12.000000000000
         C           -0.128474521863    -0.476070804040     0.114361068938    12.000000000000
         C           -1.648199021863     1.622776095960    -0.441037631062    12.000000000000
         C            2.863472978137     0.270209095960    -0.736601631062    12.000000000000
         H           -1.734600021863     0.510358095960     1.409363368938     1.007825032230
         H            2.831285978137     0.350099095960     1.434942368938     1.007825032230
         H            2.237624978137    -1.166698904040     0.747991368938     1.007825032230
         H            0.707312978137     1.294981095960     1.152467368938     1.007825032230
         H           -1.393698021863     1.438451095960    -1.487596631062     1.007825032230
         H           -0.989086021863     2.402079095960    -0.045260631062     1.007825032230
         H           -2.677621021863     1.983602095960    -0.393297631062     1.007825032230
         H            2.282372978137    -0.196426904040    -1.534269631062     1.007825032230
         H            2.869390978137     1.352322095960    -0.890133631062     1.007825032230
         H            3.893647978137    -0.092779904040    -0.798893631062     1.007825032230
         H           -1.956802021863    -1.355132904040    -0.473991631062     1.007825032230

  Basis Set: AUG-CC-PVTZ
    Blend: AUG-CC-PVTZ
  Basis Set: (AUG-CC-PVTZ AUX)
    Blend: AUG-CC-PVTZ-JKFIT
	 Reference Energy          =    -400.0132457247281081 [Eh]
	 Singles Energy            =      -0.0000000000000000 [Eh]
	 Same-Spin Energy          =      -0.3984186813040487 [Eh]
	 Opposite-Spin Energy      =      -1.3010022142024038 [Eh]
	 Correlation Energy        =      -1.6994208955064525 [Eh]
	 Total Energy              =    -401.7126666202345859 [Eh]

	 ================> DF-SCS-MP2 Energies <==================
	-----------------------------------------------------------
	 SCS Same-Spin Scale       =       0.3333333333333333 [-]
	 SCS Opposite-Spin Scale   =       1.2000000000000000 [-]
	 SCS Same-Spin Energy      =      -0.1328062271013495 [Eh]
	 SCS Opposite-Spin Energy  =      -1.5612026570428845 [Eh]
	 SCS Correlation Energy    =      -1.6940088841442340 [Eh]
	 SCS Total Energy          =    -401.7072546088723470 [Eh]
	-----------------------------------------------------------

  Dipole Moment: [D]
     X:     2.4179      Y:     1.8953      Z:     0.9151     Total:     3.2056

*** Psi4 exiting successfully. Buy a developer a beer!
