                               Psi4 1.3.2 release

  ==> Input File <==

--------------------------------------------------------------------------
#psi4
#
memory 32 gb

molecule  {
0 1
  O       -2.4925410    -0.6205970    -0.1535330
  O       -0.0069960    -1.4050930    -0.3804930
  N        0.8845720     0.3685180     0.7343320
  C       -1.5404070     0.3017530     0.3325960
  C        2.2569670    -0.1011270     0.6035390
  C       -0.1490540    -0.3186880     0.1981930
  C       -1.6514186     1.6176671    -0.4280070
  C        2.8658230     0.2522360    -0.7461750
  H       -1.7348360     0.5110075     1.3958256
  H        2.8336360     0.3321260     1.4253690
  H        2.2399750    -1.1846720     0.7384180
  H        0.7096630     1.2770080     1.1428940
  H       -1.3913480     1.4204780    -1.4971700
  H       -0.9867360     2.3841060    -0.0548340
  H       -2.6752710     1.9656290    -0.4028710
  H        2.2847230    -0.2144000    -1.5438430
  H        2.8717410     1.3343490    -0.8997070
  H        3.8959980    -0.1107530    -0.8084670
  H       -1.9544520    -1.3731060    -0.4835650
units angstrom
no_reorient  #important for SAPT in psi4, default
symmetry c1  #important for SAPT in psi4, default
}

set PROPERTIES_ORIGIN ["COM"]
properties('MP2/aug-cc-pvtz', properties = ['dipole'])
--------------------------------------------------------------------------

    Molecular point group: c1
  Charge       = 0
  Multiplicity = 1
  Basis Set: AUG-CC-PVTZ
    Blend: AUG-CC-PVTZ
  Basis Set: (AUG-CC-PVTZ AUX)
    Blend: AUG-CC-PVTZ-JKFIT

    Orbital Energies [Eh]
    ---------------------

    Doubly Occupied:

       1A    -20.549227     2A    -20.533678     3A    -15.599031
       4A    -11.359555     5A    -11.298338     6A    -11.274109
       7A    -11.230990     8A    -11.223323     9A     -1.398523
      10A     -1.346843    11A     -1.245992    12A     -1.053029
      13A     -1.013082    14A     -0.902735    15A     -0.848947
      16A     -0.794190    17A     -0.745125    18A     -0.676815
      19A     -0.648191    20A     -0.641652    21A     -0.613510
      22A     -0.598075    23A     -0.576971    24A     -0.567582
      25A     -0.542544    26A     -0.530494    27A     -0.521786
      28A     -0.514424    29A     -0.502343    30A     -0.444676
      31A     -0.436938    32A     -0.403610

  @DF-RHF Final Energy:  -400.08689408624736

   => Energetics <=

    Nuclear Repulsion Energy =            400.5201026934795436
    One-Electron Energy =               -1339.9413415660251303
    Two-Electron Energy =                 539.3343447862981748
    Total Energy =                       -400.0868940862474119
  Basis Set: (AUG-CC-PVTZ AUX)
    Blend: AUG-CC-PVTZ-RI
    Molecular point group: c1

    Geometry (in Angstrom), charge = 0, multiplicity = 1:

       Center              X                  Y                   Z               Mass
    ------------   -----------------  -----------------  -----------------  -----------------
         O           -2.491947748530    -0.622075800947    -0.155815868579    15.994914619570
         O           -0.006402748530    -1.406571800947    -0.382775868579    15.994914619570
         N            0.885165251470     0.367039199053     0.732049131421    14.003074004430
         C           -1.539813748530     0.300274199053     0.330313131421    12.000000000000
         C            2.257560251470    -0.102605800947     0.601256131421    12.000000000000
         C           -0.148460748530    -0.320166800947     0.195910131421    12.000000000000
         C           -1.650825348530     1.616188299053    -0.430289868579    12.000000000000
         C            2.866416251470     0.250757199053    -0.748457868579    12.000000000000
         H           -1.734242748530     0.509528699053     1.393542731421     1.007825032230
         H            2.834229251470     0.330647199053     1.423086131421     1.007825032230
         H            2.240568251470    -1.186150800947     0.736135131421     1.007825032230
         H            0.710256251470     1.275529199053     1.140611131421     1.007825032230
         H           -1.390754748530     1.418999199053    -1.499452868579     1.007825032230
         H           -0.986142748530     2.382627199053    -0.057116868579     1.007825032230
         H           -2.674677748530     1.964150199053    -0.405153868579     1.007825032230
         H            2.285316251470    -0.215878800947    -1.546125868579     1.007825032230
         H            2.872334251470     1.332870199053    -0.901989868579     1.007825032230
         H            3.896591251470    -0.112231800947    -0.810749868579     1.007825032230
         H           -1.953858748530    -1.374584800947    -0.485847868579     1.007825032230

  Basis Set: AUG-CC-PVTZ
    Blend: AUG-CC-PVTZ
  Basis Set: (AUG-CC-PVTZ AUX)
    Blend: AUG-CC-PVTZ-JKFIT
	 Reference Energy          =    -400.0868940862473551 [Eh]
	 Singles Energy            =      -0.0000000000000000 [Eh]
	 Same-Spin Energy          =      -0.4021350316441018 [Eh]
	 Opposite-Spin Energy      =      -1.3077345809313674 [Eh]
	 Correlation Energy        =      -1.7098696125754693 [Eh]
	 Total Energy              =    -401.7967636988228151 [Eh]

	 ================> DF-SCS-MP2 Energies <==================
	-----------------------------------------------------------
	 SCS Same-Spin Scale       =       0.3333333333333333 [-]
	 SCS Opposite-Spin Scale   =       1.2000000000000000 [-]
	 SCS Same-Spin Energy      =      -0.1340450105480339 [Eh]
	 SCS Opposite-Spin Energy  =      -1.5692814971176408 [Eh]
	 SCS Correlation Energy    =      -1.7033265076656747 [Eh]
	 SCS Total Energy          =    -401.7902205939130340 [Eh]
	-----------------------------------------------------------

  Dipole Moment: [D]
     X:     2.9045      Y:     3.1511      Z:     1.5691     Total:     4.5637

*** Psi4 exiting successfully. Buy a developer a beer!
