                               Psi4 1.3.2 release

  ==> Input File <==

--------------------------------------------------------------------------
#psi4
#
memory 32 gb

molecule  {
0 1
  O       -2.4925410    -0.6205970    -0.1535330
  O        0.0142804    -1.4040875    -0.3767536
  N        0.8845720     0.3685180     0.7343320
  C       -1.5296722     0.3224303     0.3456212
  C        2.2569670    -0.1011270     0.6035390
  C       -0.1490540    -0.3186880     0.1981930
  C       -1.6458490     1.6048030    -0.4506110
  C        2.8658230     0.2522360    -0.7461750
  H       -1.7322500     0.4923850     1.3997900
  H        2.8336360     0.3321260     1.4253690
  H        2.2399750    -1.1846720     0.7384180
  H        0.7096630     1.2770080     1.1428940
  H       -1.3913480     1.4204780    -1.4971700
  H       -0.9867360     2.3841060    -0.0548340
  H       -2.6752710     1.9656290    -0.4028710
  H        2.2847230    -0.2144000    -1.5438430
  H        2.8717410     1.3343490    -0.8997070
  H        3.8959980    -0.1107530    -0.8084670
  H       -1.9544520    -1.3731060    -0.4835650
units angstrom
no_reorient  #important for SAPT in psi4, default
symmetry c1  #important for SAPT in psi4, default
}

set PROPERTIES_ORIGIN ["COM"]
properties('MP2/aug-cc-pvtz', properties = ['dipole'])
--------------------------------------------------------------------------

    Molecular point group: c1
  Charge       = 0
  Multiplicity = 1
  Basis Set: AUG-CC-PVTZ
    Blend: AUG-CC-PVTZ
  Basis Set: (AUG-CC-PVTZ AUX)
    Blend: AUG-CC-PVTZ-JKFIT

    Orbital Energies [Eh]
    ---------------------

    Doubly Occupied:

       1A    -20.547189     2A    -20.533472     3A    -15.597830
       4A    -11.359561     5A    -11.299024     6A    -11.273228
       7A    -11.232305     8A    -11.222814     9A     -1.396197
      10A     -1.339517    11A     -1.244833    12A     -1.055276
      13A     -1.014069    14A     -0.903877    15A     -0.849277
      16A     -0.793783    17A     -0.742247    18A     -0.676130
      19A     -0.646894    20A     -0.641735    21A     -0.612436
      22A     -0.596904    23A     -0.576439    24A     -0.564420
      25A     -0.540582    26A     -0.533893    27A     -0.521242
      28A     -0.513948    29A     -0.501271    30A     -0.449087
      31A     -0.437211    32A     -0.402984

  @DF-RHF Final Energy:  -400.08633972273071

   => Energetics <=

    Nuclear Repulsion Energy =            400.4615585624633809
    One-Electron Energy =               -1339.8564527133808042
    Two-Electron Energy =                 539.3085544281867669
    Total Energy =                       -400.0863397227307132
  Basis Set: (AUG-CC-PVTZ AUX)
    Blend: AUG-CC-PVTZ-RI
    Molecular point group: c1

    Geometry (in Angstrom), charge = 0, multiplicity = 1:

       Center              X                  Y                   Z               Mass
    ------------   -----------------  -----------------  -----------------  -----------------
         O           -2.496547833391    -0.622853678121    -0.155379079709    15.994914619570
         O            0.010273566609    -1.406344178121    -0.378599679709    15.994914619570
         N            0.880565166609     0.366261321879     0.732485920291    14.003074004430
         C           -1.533679033391     0.320173621879     0.343775120291    12.000000000000
         C            2.252960166609    -0.103383678121     0.601692920291    12.000000000000
         C           -0.153060833391    -0.320944678121     0.196346920291    12.000000000000
         C           -1.649855833391     1.602546321879    -0.452457079709    12.000000000000
         C            2.861816166609     0.249979321879    -0.748021079709    12.000000000000
         H           -1.736256833391     0.490128321879     1.397943920291     1.007825032230
         H            2.829629166609     0.329869321879     1.423522920291     1.007825032230
         H            2.235968166609    -1.186928678121     0.736571920291     1.007825032230
         H            0.705656166609     1.274751321879     1.141047920291     1.007825032230
         H           -1.395354833391     1.418221321879    -1.499016079709     1.007825032230
         H           -0.990742833391     2.381849321879    -0.056680079709     1.007825032230
         H           -2.679277833391     1.963372321879    -0.404717079709     1.007825032230
         H            2.280716166609    -0.216656678121    -1.545689079709     1.007825032230
         H            2.867734166609     1.332092321879    -0.901553079709     1.007825032230
         H            3.891991166609    -0.113009678121    -0.810313079709     1.007825032230
         H           -1.958458833391    -1.375362678121    -0.485411079709     1.007825032230

  Basis Set: AUG-CC-PVTZ
    Blend: AUG-CC-PVTZ
  Basis Set: (AUG-CC-PVTZ AUX)
    Blend: AUG-CC-PVTZ-JKFIT
	 Reference Energy          =    -400.0863397227307132 [Eh]
	 Singles Energy            =      -0.0000000000000000 [Eh]
	 Same-Spin Energy          =      -0.4022055656043254 [Eh]
	 Opposite-Spin Energy      =      -1.3082411802466132 [Eh]
	 Correlation Energy        =      -1.7104467458509385 [Eh]
	 Total Energy              =    -401.7967864685816721 [Eh]

	 ================> DF-SCS-MP2 Energies <==================
	-----------------------------------------------------------
	 SCS Same-Spin Scale       =       0.3333333333333333 [-]
	 SCS Opposite-Spin Scale   =       1.2000000000000000 [-]
	 SCS Same-Spin Energy      =      -0.1340685218681085 [Eh]
	 SCS Opposite-Spin Energy  =      -1.5698894162959358 [Eh]
	 SCS Correlation Energy    =      -1.7039579381640442 [Eh]
	 SCS Total Energy          =    -401.7902976608947370 [Eh]
	-----------------------------------------------------------

  Dipole Moment: [D]
     X:     2.8733      Y:     3.2153      Z:     1.5764     Total:     4.5912

*** Psi4 exiting successfully. Buy a developer a beer!
