                               Psi4 1.3.2 release

  ==> Input File <==

--------------------------------------------------------------------------
#psi4
#
memory 32 gb

molecule  {
0 1
  O       -2.4925410    -0.6205970    -0.1535330
  O        0.0566774    -1.4010850    -0.3687506
  N        0.8845720     0.3685180     0.7343320
  C       -1.5069443     0.3631929     0.3715328
  C        2.2569670    -0.1011270     0.6035390
  C       -0.1490540    -0.3186880     0.1981930
  C       -1.6458490     1.6048030    -0.4506110
  C        2.8658230     0.2522360    -0.7461750
  H       -1.7322500     0.4923850     1.3997900
  H        2.8336360     0.3321260     1.4253690
  H        2.2399750    -1.1846720     0.7384180
  H        0.7096630     1.2770080     1.1428940
  H       -1.3913480     1.4204780    -1.4971700
  H       -0.9867360     2.3841060    -0.0548340
  H       -2.6752710     1.9656290    -0.4028710
  H        2.2847230    -0.2144000    -1.5438430
  H        2.8717410     1.3343490    -0.8997070
  H        3.8959980    -0.1107530    -0.8084670
  H       -1.9544520    -1.3731060    -0.4835650
units angstrom
no_reorient  #important for SAPT in psi4, default
symmetry c1  #important for SAPT in psi4, default
}

set PROPERTIES_ORIGIN ["COM"]
properties('MP2/aug-cc-pvtz', properties = ['dipole'])
--------------------------------------------------------------------------

    Molecular point group: c1
  Charge       = 0
  Multiplicity = 1
  Basis Set: AUG-CC-PVTZ
    Blend: AUG-CC-PVTZ
  Basis Set: (AUG-CC-PVTZ AUX)
    Blend: AUG-CC-PVTZ-JKFIT

    Orbital Energies [Eh]
    ---------------------

    Doubly Occupied:

       1A    -20.544415     2A    -20.533695     3A    -15.595924
       4A    -11.360921     5A    -11.301481     6A    -11.271687
       7A    -11.234771     8A    -11.221926     9A     -1.393971
      10A     -1.325400    11A     -1.242999    12A     -1.060809
      13A     -1.016044    14A     -0.906270    15A     -0.849760
      16A     -0.793402    17A     -0.739021    18A     -0.674664
      19A     -0.644840    20A     -0.642446    21A     -0.611135
      22A     -0.595582    23A     -0.577585    24A     -0.566029
      25A     -0.537384    26A     -0.533421    27A     -0.521305
      28A     -0.509710    29A     -0.499232    30A     -0.453474
      31A     -0.438634    32A     -0.401785

  @DF-RHF Final Energy:  -400.07839862846038

   => Energetics <=

    Nuclear Repulsion Energy =            400.1893807537848033
    One-Electron Energy =               -1339.3361132914194513
    Two-Electron Energy =                 539.0683339091742710
    Total Energy =                       -400.0783986284603770
  Basis Set: (AUG-CC-PVTZ AUX)
    Blend: AUG-CC-PVTZ-RI
    Molecular point group: c1

    Geometry (in Angstrom), charge = 0, multiplicity = 1:

       Center              X                  Y                   Z               Mass
    ------------   -----------------  -----------------  -----------------  -----------------
         O           -2.504669455278    -0.627441828253    -0.159128228420    15.994914619570
         O            0.044548944722    -1.407929828253    -0.374345828420    15.994914619570
         N            0.872443544722     0.361673171747     0.728736771580    14.003074004430
         C           -1.519072755278     0.356348071747     0.365937571580    12.000000000000
         C            2.244838544722    -0.107971828253     0.597943771580    12.000000000000
         C           -0.161182455278    -0.325532828253     0.192597771580    12.000000000000
         C           -1.657977455278     1.597958171747    -0.456206228420    12.000000000000
         C            2.853694544722     0.245391171747    -0.751770228420    12.000000000000
         H           -1.744378455278     0.485540171747     1.394194771580     1.007825032230
         H            2.821507544722     0.325281171747     1.419773771580     1.007825032230
         H            2.227846544722    -1.191516828253     0.732822771580     1.007825032230
         H            0.697534544722     1.270163171747     1.137298771580     1.007825032230
         H           -1.403476455278     1.413633171747    -1.502765228420     1.007825032230
         H           -0.998864455278     2.377261171747    -0.060429228420     1.007825032230
         H           -2.687399455278     1.958784171747    -0.408466228420     1.007825032230
         H            2.272594544722    -0.221244828253    -1.549438228420     1.007825032230
         H            2.859612544722     1.327504171747    -0.905302228420     1.007825032230
         H            3.883869544722    -0.117597828253    -0.814062228420     1.007825032230
         H           -1.966580455278    -1.379950828253    -0.489160228420     1.007825032230

  Basis Set: AUG-CC-PVTZ
    Blend: AUG-CC-PVTZ
  Basis Set: (AUG-CC-PVTZ AUX)
    Blend: AUG-CC-PVTZ-JKFIT
	 Reference Energy          =    -400.0783986284603770 [Eh]
	 Singles Energy            =      -0.0000000000000000 [Eh]
	 Same-Spin Energy          =      -0.4025936000540655 [Eh]
	 Opposite-Spin Energy      =      -1.3097564896098501 [Eh]
	 Correlation Energy        =      -1.7123500896639157 [Eh]
	 Total Energy              =    -401.7907487181242914 [Eh]

	 ================> DF-SCS-MP2 Energies <==================
	-----------------------------------------------------------
	 SCS Same-Spin Scale       =       0.3333333333333333 [-]
	 SCS Opposite-Spin Scale   =       1.2000000000000000 [-]
	 SCS Same-Spin Energy      =      -0.1341978666846885 [Eh]
	 SCS Opposite-Spin Energy  =      -1.5717077875318202 [Eh]
	 SCS Correlation Energy    =      -1.7059056542165087 [Eh]
	 SCS Total Energy          =    -401.7843042826768851 [Eh]
	-----------------------------------------------------------

  Dipole Moment: [D]
     X:     2.8131      Y:     3.3368      Z:     1.5994     Total:     4.6482

*** Psi4 exiting successfully. Buy a developer a beer!
