                               Psi4 1.3.2 release

  ==> Input File <==

--------------------------------------------------------------------------
#psi4
#
memory 32 gb

molecule  {
0 1
  O       -2.4925410    -0.6205970    -0.1535330
  O       -0.0069960    -1.4050930    -0.3804930
  N        0.8845720     0.3685180     0.7343320
  C       -1.5404070     0.3017530     0.3325960
  C        2.2569670    -0.1011270     0.6035390
  C       -0.1490540    -0.3186880     0.1981930
  C       -1.6596868     1.7758108    -0.5533964
  C        2.8658230     0.2522360    -0.7461750
  H       -1.7322500     0.4923850     1.3997900
  H        2.8336360     0.3321260     1.4253690
  H        2.2399750    -1.1846720     0.7384180
  H        0.7096630     1.2770080     1.1428940
  H       -1.3913480     1.4204780    -1.4971700
  H       -0.9867360     2.3841060    -0.0548340
  H       -2.6752710     1.9656290    -0.4028710
  H        2.2847230    -0.2144000    -1.5438430
  H        2.8717410     1.3343490    -0.8997070
  H        3.8959980    -0.1107530    -0.8084670
  H       -1.9544520    -1.3731060    -0.4835650
units angstrom
no_reorient  #important for SAPT in psi4, default
symmetry c1  #important for SAPT in psi4, default
}

set PROPERTIES_ORIGIN ["COM"]
properties('MP2/aug-cc-pvtz', properties = ['dipole'])
--------------------------------------------------------------------------

    Molecular point group: c1
  Charge       = 0
  Multiplicity = 1
  Basis Set: AUG-CC-PVTZ
    Blend: AUG-CC-PVTZ
  Basis Set: (AUG-CC-PVTZ AUX)
    Blend: AUG-CC-PVTZ-JKFIT

    Orbital Energies [Eh]
    ---------------------

    Doubly Occupied:

       1A    -20.550003     2A    -20.532179     3A    -15.598144
       4A    -11.358330     5A    -11.304138     6A    -11.273681
       7A    -11.230599     8A    -11.223100     9A     -1.396716
      10A     -1.344908    11A     -1.244810    12A     -1.042346
      13A     -1.000556    14A     -0.910189    15A     -0.851700
      16A     -0.793705    17A     -0.740236    18A     -0.673574
      19A     -0.646543    20A     -0.636290    21A     -0.613490
      22A     -0.602109    23A     -0.589655    24A     -0.568069
      25A     -0.552383    26A     -0.539164    27A     -0.518427
      28A     -0.513617    29A     -0.501874    30A     -0.439373
      31A     -0.416284    32A     -0.399124

  @DF-RHF Final Energy:  -400.06142622193227

   => Energetics <=

    Nuclear Repulsion Energy =            397.4257243453976116
    One-Electron Energy =               -1333.7636696132212819
    Two-Electron Energy =                 536.2765190458914049
    Total Energy =                       -400.0614262219322654
  Basis Set: (AUG-CC-PVTZ AUX)
    Blend: AUG-CC-PVTZ-RI
    Molecular point group: c1

    Geometry (in Angstrom), charge = 0, multiplicity = 1:

       Center              X                  Y                   Z               Mass
    ------------   -----------------  -----------------  -----------------  -----------------
         O           -2.491122560562    -0.638124422150    -0.142998218507    15.994914619570
         O           -0.005577560562    -1.422620422150    -0.369958218507    15.994914619570
         N            0.885990439438     0.350990577850     0.744866781493    14.003074004430
         C           -1.538988560562     0.284225577850     0.343130781493    12.000000000000
         C            2.258385439438    -0.118654422150     0.614073781493    12.000000000000
         C           -0.147635560562    -0.336215422150     0.208727781493    12.000000000000
         C           -1.658268360562     1.758283377850    -0.542861618507    12.000000000000
         C            2.867241439438     0.234708577850    -0.735640218507    12.000000000000
         H           -1.730831560562     0.474857577850     1.410324781493     1.007825032230
         H            2.835054439438     0.314598577850     1.435903781493     1.007825032230
         H            2.241393439438    -1.202199422150     0.748952781493     1.007825032230
         H            0.711081439438     1.259480577850     1.153428781493     1.007825032230
         H           -1.389929560562     1.402950577850    -1.486635218507     1.007825032230
         H           -0.985317560562     2.366578577850    -0.044299218507     1.007825032230
         H           -2.673852560562     1.948101577850    -0.392336218507     1.007825032230
         H            2.286141439438    -0.231927422150    -1.533308218507     1.007825032230
         H            2.873159439438     1.316821577850    -0.889172218507     1.007825032230
         H            3.897416439438    -0.128280422150    -0.797932218507     1.007825032230
         H           -1.953033560562    -1.390633422150    -0.473030218507     1.007825032230

  Basis Set: AUG-CC-PVTZ
    Blend: AUG-CC-PVTZ
  Basis Set: (AUG-CC-PVTZ AUX)
    Blend: AUG-CC-PVTZ-JKFIT
	 Reference Energy          =    -400.0614262219322654 [Eh]
	 Singles Energy            =      -0.0000000000000000 [Eh]
	 Same-Spin Energy          =      -0.4022417728241940 [Eh]
	 Opposite-Spin Energy      =      -1.3091194438062903 [Eh]
	 Correlation Energy        =      -1.7113612166304843 [Eh]
	 Total Energy              =    -401.7727874385627729 [Eh]

	 ================> DF-SCS-MP2 Energies <==================
	-----------------------------------------------------------
	 SCS Same-Spin Scale       =       0.3333333333333333 [-]
	 SCS Opposite-Spin Scale   =       1.2000000000000000 [-]
	 SCS Same-Spin Energy      =      -0.1340805909413980 [Eh]
	 SCS Opposite-Spin Energy  =      -1.5709433325675484 [Eh]
	 SCS Correlation Energy    =      -1.7050239235089464 [Eh]
	 SCS Total Energy          =    -401.7664501454412402 [Eh]
	-----------------------------------------------------------

  Dipole Moment: [D]
     X:     2.8589      Y:     3.0267      Z:     1.6190     Total:     4.4671

*** Psi4 exiting successfully. Buy a developer a beer!
