                               Psi4 1.3.2 release

  ==> Input File <==

--------------------------------------------------------------------------
#psi4
#
memory 32 gb

molecule  {
0 1
  O       -2.4925410    -0.6205970    -0.1535330
  O       -0.0069960    -1.4050930    -0.3804930
  N        0.8845720     0.3685180     0.7343320
  C       -1.5404070     0.3017530     0.3325960
  C        2.2393641    -0.1439944     0.5826390
  C       -0.1490540    -0.3186880     0.1981930
  C       -1.6458490     1.6048030    -0.4506110
  C        2.8658230     0.2522360    -0.7461750
  H       -1.7322500     0.4923850     1.3997900
  H        2.8336360     0.3321260     1.4253690
  H        2.2399750    -1.1846720     0.7384180
  H        0.6750630     1.2717324     1.1382874
  H       -1.3913480     1.4204780    -1.4971700
  H       -0.9867360     2.3841060    -0.0548340
  H       -2.6752710     1.9656290    -0.4028710
  H        2.2847230    -0.2144000    -1.5438430
  H        2.8717410     1.3343490    -0.8997070
  H        3.8959980    -0.1107530    -0.8084670
  H       -1.9544520    -1.3731060    -0.4835650
units angstrom
no_reorient  #important for SAPT in psi4, default
symmetry c1  #important for SAPT in psi4, default
}

set PROPERTIES_ORIGIN ["COM"]
properties('MP2/aug-cc-pvtz', properties = ['dipole'])
--------------------------------------------------------------------------

    Molecular point group: c1
  Charge       = 0
  Multiplicity = 1
  Basis Set: AUG-CC-PVTZ
    Blend: AUG-CC-PVTZ
  Basis Set: (AUG-CC-PVTZ AUX)
    Blend: AUG-CC-PVTZ-JKFIT

    Orbital Energies [Eh]
    ---------------------

    Doubly Occupied:

       1A    -20.548612     2A    -20.533137     3A    -15.598944
       4A    -11.357662     5A    -11.298178     6A    -11.275359
       7A    -11.231505     8A    -11.223482     9A     -1.398581
      10A     -1.346788    11A     -1.246172    12A     -1.053182
      13A     -1.013307    14A     -0.902012    15A     -0.849710
      16A     -0.793999    17A     -0.744069    18A     -0.679315
      19A     -0.648550    20A     -0.640965    21A     -0.611750
      22A     -0.599636    23A     -0.577232    24A     -0.564164
      25A     -0.543668    26A     -0.535552    27A     -0.518460
      28A     -0.516286    29A     -0.501138    30A     -0.445857
      31A     -0.435663    32A     -0.403735

  @DF-RHF Final Energy:  -400.08442476671360

   => Energetics <=

    Nuclear Repulsion Energy =            400.9331619361401522
    One-Electron Energy =               -1340.7618334532041899
    Two-Electron Energy =                 539.7442467503504986
    Total Energy =                       -400.0844247667135960
  Basis Set: (AUG-CC-PVTZ AUX)
    Blend: AUG-CC-PVTZ-RI
    Molecular point group: c1

    Geometry (in Angstrom), charge = 0, multiplicity = 1:

       Center              X                  Y                   Z               Mass
    ------------   -----------------  -----------------  -----------------  -----------------
         O           -2.490438817442    -0.616157888853    -0.151351401674    15.994914619570
         O           -0.004893817442    -1.400653888853    -0.378311401674    15.994914619570
         N            0.886674182558     0.372957111147     0.736513598326    14.003074004430
         C           -1.538304817442     0.306192111147     0.334777598326    12.000000000000
         C            2.241466282558    -0.139555288853     0.584820598326    12.000000000000
         C           -0.146951817442    -0.314248888853     0.200374598326    12.000000000000
         C           -1.643746817442     1.609242111147    -0.448429401674    12.000000000000
         C            2.867925182558     0.256675111147    -0.743993401674    12.000000000000
         H           -1.730147817442     0.496824111147     1.401971598326     1.007825032230
         H            2.835738182558     0.336565111147     1.427550598326     1.007825032230
         H            2.242077182558    -1.180232888853     0.740599598326     1.007825032230
         H            0.677165182558     1.276171511147     1.140468998326     1.007825032230
         H           -1.389245817442     1.424917111147    -1.494988401674     1.007825032230
         H           -0.984633817442     2.388545111147    -0.052652401674     1.007825032230
         H           -2.673168817442     1.970068111147    -0.400689401674     1.007825032230
         H            2.286825182558    -0.209960888853    -1.541661401674     1.007825032230
         H            2.873843182558     1.338788111147    -0.897525401674     1.007825032230
         H            3.898100182558    -0.106313888853    -0.806285401674     1.007825032230
         H           -1.952349817442    -1.368666888853    -0.481383401674     1.007825032230

  Basis Set: AUG-CC-PVTZ
    Blend: AUG-CC-PVTZ
  Basis Set: (AUG-CC-PVTZ AUX)
    Blend: AUG-CC-PVTZ-JKFIT
	 Reference Energy          =    -400.0844247667135960 [Eh]
	 Singles Energy            =      -0.0000000000000000 [Eh]
	 Same-Spin Energy          =      -0.4021657953047706 [Eh]
	 Opposite-Spin Energy      =      -1.3078172193127076 [Eh]
	 Correlation Energy        =      -1.7099830146174781 [Eh]
	 Total Energy              =    -401.7944077813310741 [Eh]

	 ================> DF-SCS-MP2 Energies <==================
	-----------------------------------------------------------
	 SCS Same-Spin Scale       =       0.3333333333333333 [-]
	 SCS Opposite-Spin Scale   =       1.2000000000000000 [-]
	 SCS Same-Spin Energy      =      -0.1340552651015902 [Eh]
	 SCS Opposite-Spin Energy  =      -1.5693806631752489 [Eh]
	 SCS Correlation Energy    =      -1.7034359282768392 [Eh]
	 SCS Total Energy          =    -401.7878606949904565 [Eh]
	-----------------------------------------------------------

  Dipole Moment: [D]
     X:     2.8662      Y:     3.1189      Z:     1.5315     Total:     4.5042

*** Psi4 exiting successfully. Buy a developer a beer!
