                               Psi4 1.3.2 release

  ==> Input File <==

--------------------------------------------------------------------------
#psi4
#
memory 32 gb

molecule  {
0 1
  O       -2.4925410    -0.6205970    -0.1535330
  O        0.0355070    -1.4027514    -0.3728391
  N        0.8845720     0.3685180     0.7343320
  C       -1.5185168     0.3429124     0.3586014
  C        2.2569670    -0.1011270     0.6035390
  C       -0.1490540    -0.3186880     0.1981930
  C       -1.6458490     1.6048030    -0.4506110
  C        2.8658230     0.2522360    -0.7461750
  H       -1.7322500     0.4923850     1.3997900
  H        2.8336360     0.3321260     1.4253690
  H        2.2399750    -1.1846720     0.7384180
  H        0.7096630     1.2770080     1.1428940
  H       -1.3913480     1.4204780    -1.4971700
  H       -0.9867360     2.3841060    -0.0548340
  H       -2.6752710     1.9656290    -0.4028710
  H        2.2847230    -0.2144000    -1.5438430
  H        2.8717410     1.3343490    -0.8997070
  H        3.8959980    -0.1107530    -0.8084670
  H       -1.9544520    -1.3731060    -0.4835650
units angstrom
no_reorient  #important for SAPT in psi4, default
symmetry c1  #important for SAPT in psi4, default
}

set PROPERTIES_ORIGIN ["COM"]
properties('MP2/aug-cc-pvtz', properties = ['dipole'])
--------------------------------------------------------------------------

    Molecular point group: c1
  Charge       = 0
  Multiplicity = 1
  Basis Set: AUG-CC-PVTZ
    Blend: AUG-CC-PVTZ
  Basis Set: (AUG-CC-PVTZ AUX)
    Blend: AUG-CC-PVTZ-JKFIT

    Orbital Energies [Eh]
    ---------------------

    Doubly Occupied:

       1A    -20.545822     2A    -20.533573     3A    -15.596863
       4A    -11.360191     5A    -11.300123     6A    -11.272452
       7A    -11.233525     8A    -11.222362     9A     -1.394810
      10A     -1.332393    11A     -1.243897    12A     -1.057971
      13A     -1.015146    14A     -0.905044    15A     -0.849495
      16A     -0.793553    17A     -0.740319    18A     -0.675446
      19A     -0.645774    20A     -0.642149    21A     -0.611700
      22A     -0.596190    23A     -0.576663    24A     -0.565278
      25A     -0.538417    26A     -0.533856    27A     -0.521242
      28A     -0.512360    29A     -0.500332    30A     -0.451678
      31A     -0.438031    32A     -0.402386

  @DF-RHF Final Energy:  -400.08316387062825

   => Energetics <=

    Nuclear Repulsion Energy =            400.3162143153796819
    One-Electron Energy =               -1339.5806731440643489
    Two-Electron Energy =                 539.1812949580563554
    Total Energy =                       -400.0831638706282547
  Basis Set: (AUG-CC-PVTZ AUX)
    Blend: AUG-CC-PVTZ-RI
    Molecular point group: c1

    Geometry (in Angstrom), charge = 0, multiplicity = 1:

       Center              X                  Y                   Z               Mass
    ------------   -----------------  -----------------  -----------------  -----------------
         O           -2.500591107942    -0.625135522468    -0.157244269309    15.994914619570
         O            0.027456892058    -1.407289922468    -0.376550369309    15.994914619570
         N            0.876521892058     0.363979477532     0.730620730691    14.003074004430
         C           -1.526566907942     0.338373877532     0.354890130691    12.000000000000
         C            2.248916892058    -0.105665522468     0.599827730691    12.000000000000
         C           -0.157104107942    -0.323226522468     0.194481730691    12.000000000000
         C           -1.653899107942     1.600264477532    -0.454322269309    12.000000000000
         C            2.857772892058     0.247697477532    -0.749886269309    12.000000000000
         H           -1.740300107942     0.487846477532     1.396078730691     1.007825032230
         H            2.825585892058     0.327587477532     1.421657730691     1.007825032230
         H            2.231924892058    -1.189210522468     0.734706730691     1.007825032230
         H            0.701612892058     1.272469477532     1.139182730691     1.007825032230
         H           -1.399398107942     1.415939477532    -1.500881269309     1.007825032230
         H           -0.994786107942     2.379567477532    -0.058545269309     1.007825032230
         H           -2.683321107942     1.961090477532    -0.406582269309     1.007825032230
         H            2.276672892058    -0.218938522468    -1.547554269309     1.007825032230
         H            2.863690892058     1.329810477532    -0.903418269309     1.007825032230
         H            3.887947892058    -0.115291522468    -0.812178269309     1.007825032230
         H           -1.962502107942    -1.377644522468    -0.487276269309     1.007825032230

  Basis Set: AUG-CC-PVTZ
    Blend: AUG-CC-PVTZ
  Basis Set: (AUG-CC-PVTZ AUX)
    Blend: AUG-CC-PVTZ-JKFIT
	 Reference Energy          =    -400.0831638706282547 [Eh]
	 Singles Energy            =      -0.0000000000000000 [Eh]
	 Same-Spin Energy          =      -0.4023647190241535 [Eh]
	 Opposite-Spin Energy      =      -1.3089323563527371 [Eh]
	 Correlation Energy        =      -1.7112970753768906 [Eh]
	 Total Energy              =    -401.7944609460051311 [Eh]

	 ================> DF-SCS-MP2 Energies <==================
	-----------------------------------------------------------
	 SCS Same-Spin Scale       =       0.3333333333333333 [-]
	 SCS Opposite-Spin Scale   =       1.2000000000000000 [-]
	 SCS Same-Spin Energy      =      -0.1341215730080512 [Eh]
	 SCS Opposite-Spin Energy  =      -1.5707188276232844 [Eh]
	 SCS Correlation Energy    =      -1.7048404006313356 [Eh]
	 SCS Total Energy          =    -401.7880042712595809 [Eh]
	-----------------------------------------------------------

  Dipole Moment: [D]
     X:     2.8433      Y:     3.2780      Z:     1.5894     Total:     4.6213

*** Psi4 exiting successfully. Buy a developer a beer!
