                               Psi4 1.4a3.dev225

  ==> Input File <==

--------------------------------------------------------------------------
#psi4
#
memory 32 gb

molecule  {
0 1
  O       -2.5334200    -0.7491890    -0.0380440
  O       -0.0309920    -1.3916750    -0.5246560
  N        0.8474210     0.2516040     0.7908210
  C       -1.5793960     0.2040340     0.3844480
  C        2.2299320    -0.1523350     0.5631470
  C       -0.1821000    -0.3862620     0.1848690
  C       -1.7305020     1.4971750    -0.4144490
  C        2.7876300     0.3918150    -0.7462470
  H       -1.7371730     0.4054880     1.4537200
  H        2.8183710     0.1913570     1.4185970
  H        2.2480760    -1.2444890     0.5585260
  H        0.6595560     1.1005830     1.3085070
  H       -1.5202540     1.2971370    -1.4686150
  H       -1.0543700     2.2823790    -0.0604110
  H       -2.7592110     1.8535180    -0.3272230
  H        2.1936920     0.0168210    -1.5822170
  H        2.7616940     1.4848860    -0.7566670
  H        3.8242090     0.0700520    -0.8849050
  H       -1.9938644    -1.4322414    -0.5339665
units angstrom
no_reorient  #important for SAPT in psi4, default
symmetry c1  #important for SAPT in psi4, default
}

set PROPERTIES_ORIGIN ["COM"]
properties('MP2/aug-cc-pvtz', properties = ['dipole'])
--------------------------------------------------------------------------

    Molecular point group: c1
  Charge       = 0
  Multiplicity = 1
  Basis Set: AUG-CC-PVTZ
    Blend: AUG-CC-PVTZ
  Basis Set: (AUG-CC-PVTZ AUX)
    Blend: AUG-CC-PVTZ-JKFIT

    Orbital Energies [Eh]
    ---------------------

    Doubly Occupied:

       1A    -20.550205     2A    -20.533471     3A    -15.599330
       4A    -11.359287     5A    -11.298198     6A    -11.274476
       7A    -11.230494     8A    -11.224013     9A     -1.396566
      10A     -1.343159    11A     -1.244984    12A     -1.051155
      13A     -1.012337    14A     -0.902238    15A     -0.847879
      16A     -0.793755    17A     -0.743278    18A     -0.674573
      19A     -0.644710    20A     -0.637189    21A     -0.614460
      22A     -0.597922    23A     -0.580385    24A     -0.564163
      25A     -0.541541    26A     -0.532612    27A     -0.521457
      28A     -0.511487    29A     -0.502936    30A     -0.446559
      31A     -0.434098    32A     -0.403926

  @DF-RHF Final Energy:  -400.08605489411593

   => Energetics <=

    Nuclear Repulsion Energy =            400.2961323153183457
    One-Electron Energy =               -1339.5386881747476764
    Two-Electron Energy =                 539.1565009653133984
    Total Energy =                       -400.0860548941159323
  Basis Set: (AUG-CC-PVTZ AUX)
    Blend: AUG-CC-PVTZ-RI
    Molecular point group: c1

    Geometry (in Angstrom), charge = 0, multiplicity = 1:

       Center              X                  Y                   Z               Mass
    ------------   -----------------  -----------------  -----------------  -----------------
         O           -2.487630528444    -0.697993274910    -0.045332275328    15.994914619570
         O            0.014797471556    -1.340479274910    -0.531944275328    15.994914619570
         N            0.893210471556     0.302799725090     0.783532724672    14.003074004430
         C           -1.533606528444     0.255229725090     0.377159724672    12.000000000000
         C            2.275721471556    -0.101139274910     0.555858724672    12.000000000000
         C           -0.136310528444    -0.335066274910     0.177580724672    12.000000000000
         C           -1.684712528444     1.548370725090    -0.421737275328    12.000000000000
         C            2.833419471556     0.443010725090    -0.753535275328    12.000000000000
         H           -1.691383528444     0.456683725090     1.446431724672     1.007825032230
         H            2.864160471556     0.242552725090     1.411308724672     1.007825032230
         H            2.293865471556    -1.193293274910     0.551237724672     1.007825032230
         H            0.705345471556     1.151778725090     1.301218724672     1.007825032230
         H           -1.474464528444     1.348332725090    -1.475903275328     1.007825032230
         H           -1.008580528444     2.333574725090    -0.067699275328     1.007825032230
         H           -2.713421528444     1.904713725090    -0.334511275328     1.007825032230
         H            2.239481471556     0.068016725090    -1.589505275328     1.007825032230
         H            2.807483471556     1.536081725090    -0.763955275328     1.007825032230
         H            3.869998471556     0.121247725090    -0.892193275328     1.007825032230
         H           -1.948074928444    -1.381045674910    -0.541254775328     1.007825032230

  Basis Set: AUG-CC-PVTZ
    Blend: AUG-CC-PVTZ
  Basis Set: (AUG-CC-PVTZ AUX)
    Blend: AUG-CC-PVTZ-JKFIT
	 Reference Energy          =    -400.0860548941159323 [Eh]
	 Singles Energy            =      -0.0000000000000000 [Eh]
	 Same-Spin Energy          =      -0.4023277343611573 [Eh]
	 Opposite-Spin Energy      =      -1.3084280883810080 [Eh]
	 Correlation Energy        =      -1.7107558227421653 [Eh]
	 Total Energy              =    -401.7968107168580900 [Eh]

	 ================> DF-SCS-MP2 Energies <==================
	-----------------------------------------------------------
	 SCS Same-Spin Scale       =       0.3333333333333333 [-]
	 SCS Opposite-Spin Scale   =       1.2000000000000000 [-]
	 SCS Same-Spin Energy      =      -0.1341092447870524 [Eh]
	 SCS Opposite-Spin Energy  =      -1.5701137060572095 [Eh]
	 SCS Correlation Energy    =      -1.7042229508442619 [Eh]
	 SCS Total Energy          =    -401.7902778449602010 [Eh]
	-----------------------------------------------------------

  Dipole Moment: [D]
     X:     2.8949      Y:     3.1132      Z:     1.5998     Total:     4.5422

*** Psi4 exiting successfully. Buy a developer a beer!
