                               Psi4 1.3.2 release

  ==> Input File <==

--------------------------------------------------------------------------
#psi4
#
memory 32 gb

molecule  {
0 1
  O       -2.4925410    -0.6205970    -0.1535330
  O       -0.0283114    -1.4057521    -0.3840842
  N        0.8695222     0.3852956     0.7413224
  C       -1.5404070     0.3017530     0.3325960
  C        2.2569670    -0.1011270     0.6035390
  C       -0.1490540    -0.3186880     0.1981930
  C       -1.6458490     1.6048030    -0.4506110
  C        2.8658230     0.2522360    -0.7461750
  H       -1.7322500     0.4923850     1.3997900
  H        2.8336360     0.3321260     1.4253690
  H        2.2399750    -1.1846720     0.7384180
  H        0.7096630     1.2770080     1.1428940
  H       -1.3913480     1.4204780    -1.4971700
  H       -0.9867360     2.3841060    -0.0548340
  H       -2.6752710     1.9656290    -0.4028710
  H        2.2847230    -0.2144000    -1.5438430
  H        2.8717410     1.3343490    -0.8997070
  H        3.8959980    -0.1107530    -0.8084670
  H       -1.9544520    -1.3731060    -0.4835650
units angstrom
no_reorient  #important for SAPT in psi4, default
symmetry c1  #important for SAPT in psi4, default
}

set PROPERTIES_ORIGIN ["COM"]
properties('MP2/aug-cc-pvtz', properties = ['dipole'])
--------------------------------------------------------------------------

    Molecular point group: c1
  Charge       = 0
  Multiplicity = 1
  Basis Set: AUG-CC-PVTZ
    Blend: AUG-CC-PVTZ
  Basis Set: (AUG-CC-PVTZ AUX)
    Blend: AUG-CC-PVTZ-JKFIT

    Orbital Energies [Eh]
    ---------------------

    Doubly Occupied:

       1A    -20.546319     2A    -20.534762     3A    -15.598823
       4A    -11.359514     5A    -11.295702     6A    -11.276603
       7A    -11.229971     8A    -11.224705     9A     -1.398247
      10A     -1.344422    11A     -1.246609    12A     -1.051823
      13A     -1.013185    14A     -0.901505    15A     -0.848481
      16A     -0.800636    17A     -0.743447    18A     -0.675611
      19A     -0.645277    20A     -0.641588    21A     -0.613640
      22A     -0.600286    23A     -0.575729    24A     -0.562381
      25A     -0.543051    26A     -0.533392    27A     -0.522077
      28A     -0.513093    29A     -0.503470    30A     -0.444298
      31A     -0.435252    32A     -0.406236

  @DF-RHF Final Energy:  -400.08729136876389

   => Energetics <=

    Nuclear Repulsion Energy =            400.4589201694172971
    One-Electron Energy =               -1339.8321620449848979
    Two-Electron Energy =                 539.2859505068037151
    Total Energy =                       -400.0872913687638857
  Basis Set: (AUG-CC-PVTZ AUX)
    Blend: AUG-CC-PVTZ-RI
    Molecular point group: c1

    Geometry (in Angstrom), charge = 0, multiplicity = 1:

       Center              X                  Y                   Z               Mass
    ------------   -----------------  -----------------  -----------------  -----------------
         O           -2.487828819270    -0.622513610579    -0.153878659782    15.994914619570
         O           -0.023599219270    -1.407668710579    -0.384429859782    15.994914619570
         N            0.874234380730     0.383378989421     0.740976740218    14.003074004430
         C           -1.535694819270     0.299836389421     0.332250340218    12.000000000000
         C            2.261679180730    -0.103043610579     0.603193340218    12.000000000000
         C           -0.144341819270    -0.320604610579     0.197847340218    12.000000000000
         C           -1.641136819270     1.602886389421    -0.450956659782    12.000000000000
         C            2.870535180730     0.250319389421    -0.746520659782    12.000000000000
         H           -1.727537819270     0.490468389421     1.399444340218     1.007825032230
         H            2.838348180730     0.330209389421     1.425023340218     1.007825032230
         H            2.244687180730    -1.186588610579     0.738072340218     1.007825032230
         H            0.714375180730     1.275091389421     1.142548340218     1.007825032230
         H           -1.386635819270     1.418561389421    -1.497515659782     1.007825032230
         H           -0.982023819270     2.382189389421    -0.055179659782     1.007825032230
         H           -2.670558819270     1.963712389421    -0.403216659782     1.007825032230
         H            2.289435180730    -0.216316610579    -1.544188659782     1.007825032230
         H            2.876453180730     1.332432389421    -0.900052659782     1.007825032230
         H            3.900710180730    -0.112669610579    -0.808812659782     1.007825032230
         H           -1.949739819270    -1.375022610579    -0.483910659782     1.007825032230

  Basis Set: AUG-CC-PVTZ
    Blend: AUG-CC-PVTZ
  Basis Set: (AUG-CC-PVTZ AUX)
    Blend: AUG-CC-PVTZ-JKFIT
	 Reference Energy          =    -400.0872913687638857 [Eh]
	 Singles Energy            =      -0.0000000000000000 [Eh]
	 Same-Spin Energy          =      -0.4019388703411100 [Eh]
	 Opposite-Spin Energy      =      -1.3075073438498623 [Eh]
	 Correlation Energy        =      -1.7094462141909723 [Eh]
	 Total Energy              =    -401.7967375829548473 [Eh]

	 ================> DF-SCS-MP2 Energies <==================
	-----------------------------------------------------------
	 SCS Same-Spin Scale       =       0.3333333333333333 [-]
	 SCS Opposite-Spin Scale   =       1.2000000000000000 [-]
	 SCS Same-Spin Energy      =      -0.1339796234470366 [Eh]
	 SCS Opposite-Spin Energy  =      -1.5690088126198347 [Eh]
	 SCS Correlation Energy    =      -1.7029884360668714 [Eh]
	 SCS Total Energy          =    -401.7902798048307318 [Eh]
	-----------------------------------------------------------

  Dipole Moment: [D]
     X:     3.0356      Y:     3.1195      Z:     1.5545     Total:     4.6220

*** Psi4 exiting successfully. Buy a developer a beer!
