                               Psi4 1.3.2 release

  ==> Input File <==

--------------------------------------------------------------------------
#psi4
#
memory 32 gb

molecule  {
0 1
  O       -2.4925410    -0.6205970    -0.1535330
  O       -0.0069960    -1.4050930    -0.3804930
  N        0.8919814     0.3600586     0.7307605
  C       -1.5456132     0.2913521     0.3260515
  C        2.2569670    -0.1011270     0.6035390
  C       -0.1490540    -0.3186880     0.1981930
  C       -1.6458490     1.6048030    -0.4506110
  C        2.8658230     0.2522360    -0.7461750
  H       -1.7322500     0.4923850     1.3997900
  H        2.8336360     0.3321260     1.4253690
  H        2.2399750    -1.1846720     0.7384180
  H        0.7096630     1.2770080     1.1428940
  H       -1.3913480     1.4204780    -1.4971700
  H       -0.9867360     2.3841060    -0.0548340
  H       -2.6752710     1.9656290    -0.4028710
  H        2.2847230    -0.2144000    -1.5438430
  H        2.8717410     1.3343490    -0.8997070
  H        3.8959980    -0.1107530    -0.8084670
  H       -1.9544520    -1.3731060    -0.4835650
units angstrom
no_reorient  #important for SAPT in psi4, default
symmetry c1  #important for SAPT in psi4, default
}

set PROPERTIES_ORIGIN ["COM"]
properties('MP2/aug-cc-pvtz', properties = ['dipole'])
--------------------------------------------------------------------------

    Molecular point group: c1
  Charge       = 0
  Multiplicity = 1
  Basis Set: AUG-CC-PVTZ
    Blend: AUG-CC-PVTZ
  Basis Set: (AUG-CC-PVTZ AUX)
    Blend: AUG-CC-PVTZ-JKFIT

    Orbital Energies [Eh]
    ---------------------

    Doubly Occupied:

       1A    -20.550334     2A    -20.532689     3A    -15.599317
       4A    -11.358613     5A    -11.299114     6A    -11.273125
       7A    -11.231064     8A    -11.222806     9A     -1.399857
      10A     -1.351193    11A     -1.246010    12A     -1.052054
      13A     -1.011856    14A     -0.902927    15A     -0.849455
      16A     -0.790987    17A     -0.747117    18A     -0.677601
      19A     -0.649792    20A     -0.641330    21A     -0.613947
      22A     -0.596642    23A     -0.578447    24A     -0.563616
      25A     -0.544204    26A     -0.534430    27A     -0.521033
      28A     -0.515265    29A     -0.501788    30A     -0.444403
      31A     -0.435930    32A     -0.402442

  @DF-RHF Final Energy:  -400.08743873593454

   => Energetics <=

    Nuclear Repulsion Energy =            400.8050462343565528
    One-Electron Energy =               -1340.5061977326597571
    Two-Electron Energy =                 539.6137127623686638
    Total Energy =                       -400.0874387359345974
  Basis Set: (AUG-CC-PVTZ AUX)
    Blend: AUG-CC-PVTZ-RI
    Molecular point group: c1

    Geometry (in Angstrom), charge = 0, multiplicity = 1:

       Center              X                  Y                   Z               Mass
    ------------   -----------------  -----------------  -----------------  -----------------
         O           -2.492893447010    -0.618519177624    -0.152435256944    15.994914619570
         O           -0.007348447010    -1.403015177624    -0.379395256944    15.994914619570
         N            0.891628952990     0.362136422376     0.731858243056    14.003074004430
         C           -1.545965647010     0.293429922376     0.327149243056    12.000000000000
         C            2.256614552990    -0.099049177624     0.604636743056    12.000000000000
         C           -0.149406447010    -0.316610177624     0.199290743056    12.000000000000
         C           -1.646201447010     1.606880822376    -0.449513256944    12.000000000000
         C            2.865470552990     0.254313822376    -0.745077256944    12.000000000000
         H           -1.732602447010     0.494462822376     1.400887743056     1.007825032230
         H            2.833283552990     0.334203822376     1.426466743056     1.007825032230
         H            2.239622552990    -1.182594177624     0.739515743056     1.007825032230
         H            0.709310552990     1.279085822376     1.143991743056     1.007825032230
         H           -1.391700447010     1.422555822376    -1.496072256944     1.007825032230
         H           -0.987088447010     2.386183822376    -0.053736256944     1.007825032230
         H           -2.675623447010     1.967706822376    -0.401773256944     1.007825032230
         H            2.284370552990    -0.212322177624    -1.542745256944     1.007825032230
         H            2.871388552990     1.336426822376    -0.898609256944     1.007825032230
         H            3.895645552990    -0.108675177624    -0.807369256944     1.007825032230
         H           -1.954804447010    -1.371028177624    -0.482467256944     1.007825032230

  Basis Set: AUG-CC-PVTZ
    Blend: AUG-CC-PVTZ
  Basis Set: (AUG-CC-PVTZ AUX)
    Blend: AUG-CC-PVTZ-JKFIT
	 Reference Energy          =    -400.0874387359345405 [Eh]
	 Singles Energy            =      -0.0000000000000000 [Eh]
	 Same-Spin Energy          =      -0.4022102477002194 [Eh]
	 Opposite-Spin Energy      =      -1.3075984850180558 [Eh]
	 Correlation Energy        =      -1.7098087327182752 [Eh]
	 Total Energy              =    -401.7972474686528130 [Eh]

	 ================> DF-SCS-MP2 Energies <==================
	-----------------------------------------------------------
	 SCS Same-Spin Scale       =       0.3333333333333333 [-]
	 SCS Opposite-Spin Scale   =       1.2000000000000000 [-]
	 SCS Same-Spin Energy      =      -0.1340700825667398 [Eh]
	 SCS Opposite-Spin Energy  =      -1.5691181820216669 [Eh]
	 SCS Correlation Energy    =      -1.7031882645884067 [Eh]
	 SCS Total Energy          =    -401.7906270005229317 [Eh]
	-----------------------------------------------------------

  Dipole Moment: [D]
     X:     2.8508      Y:     3.1268      Z:     1.5533     Total:     4.5074

*** Psi4 exiting successfully. Buy a developer a beer!
