                               Psi4 1.3.2 release

  ==> Input File <==

--------------------------------------------------------------------------
#psi4
#
memory 32 gb

molecule  {
0 1
  O       -2.4925410    -0.6205970    -0.1535330
  O       -0.0069960    -1.4050930    -0.3804930
  N        0.8897778     0.3971663     0.6638616
  C       -1.5404070     0.3017530     0.3325960
  C        2.2569670    -0.1011270     0.6035390
  C       -0.1490540    -0.3186880     0.1981930
  C       -1.6458490     1.6048030    -0.4506110
  C        2.7969247     0.2871829    -0.7657528
  H       -1.7322500     0.4923850     1.3997900
  H        2.8336360     0.3321260     1.4253690
  H        2.2399750    -1.1846720     0.7384180
  H        0.7096630     1.2770080     1.1428940
  H       -1.3913480     1.4204780    -1.4971700
  H       -0.9867360     2.3841060    -0.0548340
  H       -2.6752710     1.9656290    -0.4028710
  H        2.2847230    -0.2144000    -1.5438430
  H        2.8717410     1.3343490    -0.8997070
  H        3.8959980    -0.1107530    -0.8084670
  H       -1.9544520    -1.3731060    -0.4835650
units angstrom
no_reorient  #important for SAPT in psi4, default
symmetry c1  #important for SAPT in psi4, default
}

set PROPERTIES_ORIGIN ["COM"]
properties('MP2/aug-cc-pvtz', properties = ['dipole'])
--------------------------------------------------------------------------

    Molecular point group: c1
  Charge       = 0
  Multiplicity = 1
  Basis Set: AUG-CC-PVTZ
    Blend: AUG-CC-PVTZ
  Basis Set: (AUG-CC-PVTZ AUX)
    Blend: AUG-CC-PVTZ-JKFIT

    Orbital Energies [Eh]
    ---------------------

    Doubly Occupied:

       1A    -20.548101     2A    -20.531628     3A    -15.598105
       4A    -11.357428     5A    -11.297817     6A    -11.275477
       7A    -11.230375     8A    -11.223158     9A     -1.398051
      10A     -1.346304    11A     -1.247186    12A     -1.053603
      13A     -1.011737    14A     -0.901040    15A     -0.850403
      16A     -0.793998    17A     -0.744959    18A     -0.677711
      19A     -0.649822    20A     -0.642774    21A     -0.617645
      22A     -0.598604    23A     -0.575522    24A     -0.562771
      25A     -0.538661    26A     -0.528974    27A     -0.520427
      28A     -0.514301    29A     -0.504158    30A     -0.445372
      31A     -0.435060    32A     -0.401120

  @DF-RHF Final Energy:  -400.07924720292942

   => Energetics <=

    Nuclear Repulsion Energy =            401.6481272204222250
    One-Electron Energy =               -1342.2101664047775103
    Two-Electron Energy =                 540.4827919814258621
    Total Energy =                       -400.0792472029294231
  Basis Set: (AUG-CC-PVTZ AUX)
    Blend: AUG-CC-PVTZ-RI
    Molecular point group: c1

    Geometry (in Angstrom), charge = 0, multiplicity = 1:

       Center              X                  Y                   Z               Mass
    ------------   -----------------  -----------------  -----------------  -----------------
         O           -2.486101771994    -0.627605313171    -0.143098056871    15.994914619570
         O           -0.000556771994    -1.412101313171    -0.370058056871    15.994914619570
         N            0.896217028006     0.390157986829     0.674296543129    14.003074004430
         C           -1.533967771994     0.294744686829     0.343030943129    12.000000000000
         C            2.263406228006    -0.108135313171     0.613973943129    12.000000000000
         C           -0.142614771994    -0.325696313171     0.208627943129    12.000000000000
         C           -1.639409771994     1.597794686829    -0.440176056871    12.000000000000
         C            2.803363928006     0.280174586829    -0.755317856871    12.000000000000
         H           -1.725810771994     0.485376686829     1.410224943129     1.007825032230
         H            2.840075228006     0.325117686829     1.435803943129     1.007825032230
         H            2.246414228006    -1.191680313171     0.748852943129     1.007825032230
         H            0.716102228006     1.269999686829     1.153328943129     1.007825032230
         H           -1.384908771994     1.413469686829    -1.486735056871     1.007825032230
         H           -0.980296771994     2.377097686829    -0.044399056871     1.007825032230
         H           -2.668831771994     1.958620686829    -0.392436056871     1.007825032230
         H            2.291162228006    -0.221408313171    -1.533408056871     1.007825032230
         H            2.878180228006     1.327340686829    -0.889272056871     1.007825032230
         H            3.902437228006    -0.117761313171    -0.798032056871     1.007825032230
         H           -1.948012771994    -1.380114313171    -0.473130056871     1.007825032230

  Basis Set: AUG-CC-PVTZ
    Blend: AUG-CC-PVTZ
  Basis Set: (AUG-CC-PVTZ AUX)
    Blend: AUG-CC-PVTZ-JKFIT
	 Reference Energy          =    -400.0792472029294231 [Eh]
	 Singles Energy            =      -0.0000000000000000 [Eh]
	 Same-Spin Energy          =      -0.4024732931851024 [Eh]
	 Opposite-Spin Energy      =      -1.3083980467055962 [Eh]
	 Correlation Energy        =      -1.7108713398906987 [Eh]
	 Total Energy              =    -401.7901185428200961 [Eh]

	 ================> DF-SCS-MP2 Energies <==================
	-----------------------------------------------------------
	 SCS Same-Spin Scale       =       0.3333333333333333 [-]
	 SCS Opposite-Spin Scale   =       1.2000000000000000 [-]
	 SCS Same-Spin Energy      =      -0.1341577643950341 [Eh]
	 SCS Opposite-Spin Energy  =      -1.5700776560467153 [Eh]
	 SCS Correlation Energy    =      -1.7042354204417496 [Eh]
	 SCS Total Energy          =    -401.7834826233711851 [Eh]
	-----------------------------------------------------------

  Dipole Moment: [D]
     X:     2.8994      Y:     3.1498      Z:     1.7349     Total:     4.6193

*** Psi4 exiting successfully. Buy a developer a beer!
