                               Psi4 1.3.2 release

  ==> Input File <==

--------------------------------------------------------------------------
#psi4
#
memory 32 gb

molecule  {
0 1
  O       -2.4925410    -0.6205970    -0.1535330
  O       -0.0069960    -1.4050930    -0.3804930
  N        0.8845720     0.3685180     0.7343320
  C       -1.5404070     0.3017530     0.3325960
  C        2.2569670    -0.1011270     0.6035390
  C       -0.2255020    -0.3695144     0.1585397
  C       -1.6458490     1.6048030    -0.4506110
  C        2.8658230     0.2522360    -0.7461750
  H       -1.7322500     0.4923850     1.3997900
  H        2.8336360     0.3321260     1.4253690
  H        2.2399750    -1.1846720     0.7384180
  H        0.7096630     1.2770080     1.1428940
  H       -1.3913480     1.4204780    -1.4971700
  H       -0.9867360     2.3841060    -0.0548340
  H       -2.6752710     1.9656290    -0.4028710
  H        2.2847230    -0.2144000    -1.5438430
  H        2.8717410     1.3343490    -0.8997070
  H        3.8959980    -0.1107530    -0.8084670
  H       -1.9544520    -1.3731060    -0.4835650
units angstrom
no_reorient  #important for SAPT in psi4, default
symmetry c1  #important for SAPT in psi4, default
}

set PROPERTIES_ORIGIN ["COM"]
properties('MP2/aug-cc-pvtz', properties = ['dipole'])
--------------------------------------------------------------------------

    Molecular point group: c1
  Charge       = 0
  Multiplicity = 1
  Basis Set: AUG-CC-PVTZ
    Blend: AUG-CC-PVTZ
  Basis Set: (AUG-CC-PVTZ AUX)
    Blend: AUG-CC-PVTZ-JKFIT

    Orbital Energies [Eh]
    ---------------------

    Doubly Occupied:

       1A    -20.553441     2A    -20.552345     3A    -15.579637
       4A    -11.364379     5A    -11.300853     6A    -11.264720
       7A    -11.234816     8A    -11.216809     9A     -1.433486
      10A     -1.359284    11A     -1.214907    12A     -1.053790
      13A     -1.003211    14A     -0.906740    15A     -0.842400
      16A     -0.774926    17A     -0.752142    18A     -0.682415
      19A     -0.658101    20A     -0.639671    21A     -0.612246
      22A     -0.594314    23A     -0.579473    24A     -0.562374
      25A     -0.543646    26A     -0.535333    27A     -0.530484
      28A     -0.522633    29A     -0.497858    30A     -0.451598
      31A     -0.444970    32A     -0.390788

  @DF-RHF Final Energy:  -400.07750422687815

   => Energetics <=

    Nuclear Repulsion Energy =            400.7114737751024904
    One-Electron Energy =               -1340.2703756081218671
    Two-Electron Energy =                 539.4813976061411722
    Total Energy =                       -400.0775042268782045
  Basis Set: (AUG-CC-PVTZ AUX)
    Blend: AUG-CC-PVTZ-RI
    Molecular point group: c1

    Geometry (in Angstrom), charge = 0, multiplicity = 1:

       Center              X                  Y                   Z               Mass
    ------------   -----------------  -----------------  -----------------  -----------------
         O           -2.484705333414    -0.615387544601    -0.149468937752    15.994914619570
         O            0.000839666586    -1.399883544601    -0.376428937752    15.994914619570
         N            0.892407666586     0.373727455399     0.738396062248    14.003074004430
         C           -1.532571333414     0.306962455399     0.336660062248    12.000000000000
         C            2.264802666586    -0.095917544601     0.607603062248    12.000000000000
         C           -0.217666333414    -0.364304944601     0.162603762248    12.000000000000
         C           -1.638013333414     1.610012455399    -0.446546937752    12.000000000000
         C            2.873658666586     0.257445455399    -0.742110937752    12.000000000000
         H           -1.724414333414     0.497594455399     1.403854062248     1.007825032230
         H            2.841471666586     0.337335455399     1.429433062248     1.007825032230
         H            2.247810666586    -1.179462544601     0.742482062248     1.007825032230
         H            0.717498666586     1.282217455399     1.146958062248     1.007825032230
         H           -1.383512333414     1.425687455399    -1.493105937752     1.007825032230
         H           -0.978900333414     2.389315455399    -0.050769937752     1.007825032230
         H           -2.667435333414     1.970838455399    -0.398806937752     1.007825032230
         H            2.292558666586    -0.209190544601    -1.539778937752     1.007825032230
         H            2.879576666586     1.339558455399    -0.895642937752     1.007825032230
         H            3.903833666586    -0.105543544601    -0.804402937752     1.007825032230
         H           -1.946616333414    -1.367896544601    -0.479500937752     1.007825032230

  Basis Set: AUG-CC-PVTZ
    Blend: AUG-CC-PVTZ
  Basis Set: (AUG-CC-PVTZ AUX)
    Blend: AUG-CC-PVTZ-JKFIT
	 Reference Energy          =    -400.0775042268781476 [Eh]
	 Singles Energy            =      -0.0000000000000000 [Eh]
	 Same-Spin Energy          =      -0.4016037724596015 [Eh]
	 Opposite-Spin Energy      =      -1.3070443383941575 [Eh]
	 Correlation Energy        =      -1.7086481108537590 [Eh]
	 Total Energy              =    -401.7861523377318917 [Eh]

	 ================> DF-SCS-MP2 Energies <==================
	-----------------------------------------------------------
	 SCS Same-Spin Scale       =       0.3333333333333333 [-]
	 SCS Opposite-Spin Scale   =       1.2000000000000000 [-]
	 SCS Same-Spin Energy      =      -0.1338679241532005 [Eh]
	 SCS Opposite-Spin Energy  =      -1.5684532060729890 [Eh]
	 SCS Correlation Energy    =      -1.7023211302261896 [Eh]
	 SCS Total Energy          =    -401.7798253571043574 [Eh]
	-----------------------------------------------------------

  Dipole Moment: [D]
     X:     2.2015      Y:     2.7539      Z:     1.2605     Total:     3.7442

*** Psi4 exiting successfully. Buy a developer a beer!
