                               Psi4 1.3.2 release

  ==> Input File <==

--------------------------------------------------------------------------
#psi4
#
memory 32 gb

molecule  {
0 1
  O       -2.4925410    -0.6205970    -0.1535330
  O       -0.0069960    -1.4050930    -0.3804930
  N        0.8845720     0.3685180     0.7343320
  C       -1.5404070     0.3017530     0.3325960
  C        2.2569670    -0.1011270     0.6035390
  C       -0.1490540    -0.3186880     0.1981930
  C       -1.6289544     1.5638453    -0.5169644
  C        2.8658230     0.2522360    -0.7461750
  H       -1.7241445     0.4361919     1.4097283
  H        2.8336360     0.3321260     1.4253690
  H        2.2399750    -1.1846720     0.7384180
  H        0.7096630     1.2770080     1.1428940
  H       -1.3913480     1.4204780    -1.4971700
  H       -0.9867360     2.3841060    -0.0548340
  H       -2.6752710     1.9656290    -0.4028710
  H        2.2847230    -0.2144000    -1.5438430
  H        2.8717410     1.3343490    -0.8997070
  H        3.8959980    -0.1107530    -0.8084670
  H       -1.9544520    -1.3731060    -0.4835650
units angstrom
no_reorient  #important for SAPT in psi4, default
symmetry c1  #important for SAPT in psi4, default
}

set PROPERTIES_ORIGIN ["COM"]
properties('MP2/aug-cc-pvtz', properties = ['dipole'])
--------------------------------------------------------------------------

    Molecular point group: c1
  Charge       = 0
  Multiplicity = 1
  Basis Set: AUG-CC-PVTZ
    Blend: AUG-CC-PVTZ
  Basis Set: (AUG-CC-PVTZ AUX)
    Blend: AUG-CC-PVTZ-JKFIT

    Orbital Energies [Eh]
    ---------------------

    Doubly Occupied:

       1A    -20.546724     2A    -20.532653     3A    -15.598259
       4A    -11.357623     5A    -11.298475     6A    -11.273766
       7A    -11.233046     8A    -11.223147     9A     -1.397930
      10A     -1.346239    11A     -1.245320    12A     -1.052479
      13A     -1.012421    14A     -0.903758    15A     -0.850258
      16A     -0.794017    17A     -0.744729    18A     -0.676347
      19A     -0.647487    20A     -0.640639    21A     -0.614837
      22A     -0.598745    23A     -0.586273    24A     -0.557354
      25A     -0.539510    26A     -0.533938    27A     -0.519253
      28A     -0.513564    29A     -0.501293    30A     -0.447333
      31A     -0.433351    32A     -0.403381

  @DF-RHF Final Energy:  -400.07943818704467

   => Energetics <=

    Nuclear Repulsion Energy =            400.9699439828040681
    One-Electron Energy =               -1340.8504673123209159
    Two-Electron Energy =                 539.8010851424721750
    Total Energy =                       -400.0794381870446159
  Basis Set: (AUG-CC-PVTZ AUX)
    Blend: AUG-CC-PVTZ-RI
    Molecular point group: c1

    Geometry (in Angstrom), charge = 0, multiplicity = 1:

       Center              X                  Y                   Z               Mass
    ------------   -----------------  -----------------  -----------------  -----------------
         O           -2.494342248078    -0.615915321559    -0.146817862929    15.994914619570
         O           -0.008797248078    -1.400411321559    -0.373777862929    15.994914619570
         N            0.882770751922     0.373199678441     0.741047137071    14.003074004430
         C           -1.542208248078     0.306434678441     0.339311137071    12.000000000000
         C            2.255165751922    -0.096445321559     0.610254137071    12.000000000000
         C           -0.150855248078    -0.314006321559     0.204908137071    12.000000000000
         C           -1.630755648078     1.568526978441    -0.510249262929    12.000000000000
         C            2.864021751922     0.256917678441    -0.739459862929    12.000000000000
         H           -1.725945748078     0.440873578441     1.416443437071     1.007825032230
         H            2.831834751922     0.336807678441     1.432084137071     1.007825032230
         H            2.238173751922    -1.179990321559     0.745133137071     1.007825032230
         H            0.707861751922     1.281689678441     1.149609137071     1.007825032230
         H           -1.393149248078     1.425159678441    -1.490454862929     1.007825032230
         H           -0.988537248078     2.388787678441    -0.048118862929     1.007825032230
         H           -2.677072248078     1.970310678441    -0.396155862929     1.007825032230
         H            2.282921751922    -0.209718321559    -1.537127862929     1.007825032230
         H            2.869939751922     1.339030678441    -0.892991862929     1.007825032230
         H            3.894196751922    -0.106071321559    -0.801751862929     1.007825032230
         H           -1.956253248078    -1.368424321559    -0.476849862929     1.007825032230

  Basis Set: AUG-CC-PVTZ
    Blend: AUG-CC-PVTZ
  Basis Set: (AUG-CC-PVTZ AUX)
    Blend: AUG-CC-PVTZ-JKFIT
	 Reference Energy          =    -400.0794381870446728 [Eh]
	 Singles Energy            =      -0.0000000000000000 [Eh]
	 Same-Spin Energy          =      -0.4022730886105533 [Eh]
	 Opposite-Spin Energy      =      -1.3080848652863193 [Eh]
	 Correlation Energy        =      -1.7103579538968725 [Eh]
	 Total Energy              =    -401.7897961409415188 [Eh]

	 ================> DF-SCS-MP2 Energies <==================
	-----------------------------------------------------------
	 SCS Same-Spin Scale       =       0.3333333333333333 [-]
	 SCS Opposite-Spin Scale   =       1.2000000000000000 [-]
	 SCS Same-Spin Energy      =      -0.1340910295368511 [Eh]
	 SCS Opposite-Spin Energy  =      -1.5697018383435830 [Eh]
	 SCS Correlation Energy    =      -1.7037928678804342 [Eh]
	 SCS Total Energy          =    -401.7832310549251247 [Eh]
	-----------------------------------------------------------

  Dipole Moment: [D]
     X:     2.8938      Y:     3.1293      Z:     1.5458     Total:     4.5338

*** Psi4 exiting successfully. Buy a developer a beer!
