                               Psi4 1.3.2 release

  ==> Input File <==

--------------------------------------------------------------------------
#psi4
#
memory 32 gb

molecule  {
0 1
  O       -2.4820520    -0.6193606    -0.1757979
  O       -0.0069960    -1.4050930    -0.3804930
  N        0.8845720     0.3685180     0.7343320
  C       -1.5404070     0.3017530     0.3325960
  C        2.2569670    -0.1011270     0.6035390
  C       -0.1490540    -0.3186880     0.1981930
  C       -1.6458490     1.6048030    -0.4506110
  C        2.8658230     0.2522360    -0.7461750
  H       -1.7173307     0.5044885     1.4001369
  H        2.8336360     0.3321260     1.4253690
  H        2.2399750    -1.1846720     0.7384180
  H        0.7096630     1.2770080     1.1428940
  H       -1.3913480     1.4204780    -1.4971700
  H       -0.9867360     2.3841060    -0.0548340
  H       -2.6752710     1.9656290    -0.4028710
  H        2.2847230    -0.2144000    -1.5438430
  H        2.8717410     1.3343490    -0.8997070
  H        3.8959980    -0.1107530    -0.8084670
  H       -1.9544520    -1.3731060    -0.4835650
units angstrom
no_reorient  #important for SAPT in psi4, default
symmetry c1  #important for SAPT in psi4, default
}

set PROPERTIES_ORIGIN ["COM"]
properties('MP2/aug-cc-pvtz', properties = ['dipole'])
--------------------------------------------------------------------------

    Molecular point group: c1
  Charge       = 0
  Multiplicity = 1
  Basis Set: AUG-CC-PVTZ
    Blend: AUG-CC-PVTZ
  Basis Set: (AUG-CC-PVTZ AUX)
    Blend: AUG-CC-PVTZ-JKFIT

    Orbital Energies [Eh]
    ---------------------

    Doubly Occupied:

       1A    -20.547996     2A    -20.532839     3A    -15.598537
       4A    -11.358554     5A    -11.298738     6A    -11.273836
       7A    -11.230867     8A    -11.223110     9A     -1.398763
      10A     -1.348233    11A     -1.245556    12A     -1.053221
      13A     -1.012964    14A     -0.902759    15A     -0.849319
      16A     -0.793932    17A     -0.745401    18A     -0.678283
      19A     -0.649741    20A     -0.641036    21A     -0.613323
      22A     -0.597391    23A     -0.577070    24A     -0.563306
      25A     -0.543129    26A     -0.534287    27A     -0.520929
      28A     -0.514592    29A     -0.501879    30A     -0.446590
      31A     -0.435643    32A     -0.403270

  @DF-RHF Final Energy:  -400.08826345318801

   => Energetics <=

    Nuclear Repulsion Energy =            400.8499327516464632
    One-Electron Energy =               -1340.6062015358129429
    Two-Electron Energy =                 539.6680053309784171
    Total Energy =                       -400.0882634531880058
  Basis Set: (AUG-CC-PVTZ AUX)
    Blend: AUG-CC-PVTZ-RI
    Molecular point group: c1

    Geometry (in Angstrom), charge = 0, multiplicity = 1:

       Center              X                  Y                   Z               Mass
    ------------   -----------------  -----------------  -----------------  -----------------
         O           -2.483613261168    -0.619633692624    -0.172759333886    15.994914619570
         O           -0.008557261168    -1.405366092624    -0.377454433886    15.994914619570
         N            0.883010738832     0.368244907376     0.737370566114    14.003074004430
         C           -1.541968261168     0.301479907376     0.335634566114    12.000000000000
         C            2.255405738832    -0.101400092624     0.606577566114    12.000000000000
         C           -0.150615261168    -0.318961092624     0.201231566114    12.000000000000
         C           -1.647410261168     1.604529907376    -0.447572433886    12.000000000000
         C            2.864261738832     0.251962907376    -0.743136433886    12.000000000000
         H           -1.718891961168     0.504215407376     1.403175466114     1.007825032230
         H            2.832074738832     0.331852907376     1.428407566114     1.007825032230
         H            2.238413738832    -1.184945092624     0.741456566114     1.007825032230
         H            0.708101738832     1.276734907376     1.145932566114     1.007825032230
         H           -1.392909261168     1.420204907376    -1.494131433886     1.007825032230
         H           -0.988297261168     2.383832907376    -0.051795433886     1.007825032230
         H           -2.676832261168     1.965355907376    -0.399832433886     1.007825032230
         H            2.283161738832    -0.214673092624    -1.540804433886     1.007825032230
         H            2.870179738832     1.334075907376    -0.896668433886     1.007825032230
         H            3.894436738832    -0.111026092624    -0.805428433886     1.007825032230
         H           -1.956013261168    -1.373379092624    -0.480526433886     1.007825032230

  Basis Set: AUG-CC-PVTZ
    Blend: AUG-CC-PVTZ
  Basis Set: (AUG-CC-PVTZ AUX)
    Blend: AUG-CC-PVTZ-JKFIT
	 Reference Energy          =    -400.0882634531880058 [Eh]
	 Singles Energy            =      -0.0000000000000000 [Eh]
	 Same-Spin Energy          =      -0.4019576949627507 [Eh]
	 Opposite-Spin Energy      =      -1.3072879466477789 [Eh]
	 Correlation Energy        =      -1.7092456416105297 [Eh]
	 Total Energy              =    -401.7975090947985564 [Eh]

	 ================> DF-SCS-MP2 Energies <==================
	-----------------------------------------------------------
	 SCS Same-Spin Scale       =       0.3333333333333333 [-]
	 SCS Opposite-Spin Scale   =       1.2000000000000000 [-]
	 SCS Same-Spin Energy      =      -0.1339858983209169 [Eh]
	 SCS Opposite-Spin Energy  =      -1.5687455359773346 [Eh]
	 SCS Correlation Energy    =      -1.7027314342982516 [Eh]
	 SCS Total Energy          =    -401.7909948874862494 [Eh]
	-----------------------------------------------------------

  Dipole Moment: [D]
     X:     2.8720      Y:     3.1393      Z:     1.6016     Total:     4.5463

*** Psi4 exiting successfully. Buy a developer a beer!
