                               Psi4 1.3.2 release

  ==> Input File <==

--------------------------------------------------------------------------
#psi4
#
memory 32 gb

molecule  {
0 1
  O       -2.4925410    -0.6205970    -0.1535330
  O       -0.0069960    -1.4050930    -0.3804930
  N        0.8983678     0.3945418     0.7757653
  C       -1.5404070     0.3017530     0.3325960
  C        2.2569670    -0.1011270     0.6035390
  C       -0.1490540    -0.3186880     0.1981930
  C       -1.6458490     1.6048030    -0.4506110
  C        2.8658230     0.2522360    -0.7461750
  H       -1.7322500     0.4923850     1.3997900
  H        2.8019359     0.3495538     1.4375387
  H        2.2399750    -1.1846720     0.7384180
  H        0.7096630     1.2770080     1.1428940
  H       -1.3913480     1.4204780    -1.4971700
  H       -0.9867360     2.3841060    -0.0548340
  H       -2.6752710     1.9656290    -0.4028710
  H        2.2847230    -0.2144000    -1.5438430
  H        2.8717410     1.3343490    -0.8997070
  H        3.8959980    -0.1107530    -0.8084670
  H       -1.9544520    -1.3731060    -0.4835650
units angstrom
no_reorient  #important for SAPT in psi4, default
symmetry c1  #important for SAPT in psi4, default
}

set PROPERTIES_ORIGIN ["COM"]
properties('MP2/aug-cc-pvtz', properties = ['dipole'])
--------------------------------------------------------------------------

    Molecular point group: c1
  Charge       = 0
  Multiplicity = 1
  Basis Set: AUG-CC-PVTZ
    Blend: AUG-CC-PVTZ
  Basis Set: (AUG-CC-PVTZ AUX)
    Blend: AUG-CC-PVTZ-JKFIT

    Orbital Energies [Eh]
    ---------------------

    Doubly Occupied:

       1A    -20.549786     2A    -20.541245     3A    -15.593868
       4A    -11.364990     5A    -11.299083     6A    -11.272301
       7A    -11.231824     8A    -11.222812     9A     -1.399523
      10A     -1.347682    11A     -1.242260    12A     -1.051182
      13A     -1.011552    14A     -0.902155    15A     -0.849232
      16A     -0.796007    17A     -0.744583    18A     -0.676029
      19A     -0.645602    20A     -0.643410    21A     -0.610451
      22A     -0.600745    23A     -0.577776    24A     -0.564102
      25A     -0.542852    26A     -0.533682    27A     -0.523061
      28A     -0.516934    29A     -0.501870    30A     -0.446769
      31A     -0.437955    32A     -0.403147

  @DF-RHF Final Energy:  -400.08397751826118

   => Energetics <=

    Nuclear Repulsion Energy =            399.7871102660439533
    One-Electron Energy =               -1338.4532351627019580
    Two-Electron Energy =                 538.5821473783967122
    Total Energy =                       -400.0839775182612357
  Basis Set: (AUG-CC-PVTZ AUX)
    Blend: AUG-CC-PVTZ-RI
    Molecular point group: c1

    Geometry (in Angstrom), charge = 0, multiplicity = 1:

       Center              X                  Y                   Z               Mass
    ------------   -----------------  -----------------  -----------------  -----------------
         O           -2.493918015886    -0.623859553686    -0.158593531315    15.994914619570
         O           -0.008373015886    -1.408355553686    -0.385553531315    15.994914619570
         N            0.896990784114     0.391279246314     0.770704768685    14.003074004430
         C           -1.541784015886     0.298490446314     0.327535468685    12.000000000000
         C            2.255589984114    -0.104389553686     0.598478468685    12.000000000000
         C           -0.150431015886    -0.321950553686     0.193132468685    12.000000000000
         C           -1.647226015886     1.601540446314    -0.455671531315    12.000000000000
         C            2.864445984114     0.248973446314    -0.751235531315    12.000000000000
         H           -1.733627015886     0.489122446314     1.394729468685     1.007825032230
         H            2.800558884114     0.346291246314     1.432478168685     1.007825032230
         H            2.238597984114    -1.187934553686     0.733357468685     1.007825032230
         H            0.708285984114     1.273745446314     1.137833468685     1.007825032230
         H           -1.392725015886     1.417215446314    -1.502230531315     1.007825032230
         H           -0.988113015886     2.380843446314    -0.059894531315     1.007825032230
         H           -2.676648015886     1.962366446314    -0.407931531315     1.007825032230
         H            2.283345984114    -0.217662553686    -1.548903531315     1.007825032230
         H            2.870363984114     1.331086446314    -0.904767531315     1.007825032230
         H            3.894620984114    -0.114015553686    -0.813527531315     1.007825032230
         H           -1.955829015886    -1.376368553686    -0.488625531315     1.007825032230

  Basis Set: AUG-CC-PVTZ
    Blend: AUG-CC-PVTZ
  Basis Set: (AUG-CC-PVTZ AUX)
    Blend: AUG-CC-PVTZ-JKFIT
	 Reference Energy          =    -400.0839775182611788 [Eh]
	 Singles Energy            =      -0.0000000000000000 [Eh]
	 Same-Spin Energy          =      -0.4020527185436698 [Eh]
	 Opposite-Spin Energy      =      -1.3080101608639909 [Eh]
	 Correlation Energy        =      -1.7100628794076607 [Eh]
	 Total Energy              =    -401.7940403976688231 [Eh]

	 ================> DF-SCS-MP2 Energies <==================
	-----------------------------------------------------------
	 SCS Same-Spin Scale       =       0.3333333333333333 [-]
	 SCS Opposite-Spin Scale   =       1.2000000000000000 [-]
	 SCS Same-Spin Energy      =      -0.1340175728478899 [Eh]
	 SCS Opposite-Spin Energy  =      -1.5696121930367890 [Eh]
	 SCS Correlation Energy    =      -1.7036297658846788 [Eh]
	 SCS Total Energy          =    -401.7876072841458495 [Eh]
	-----------------------------------------------------------

  Dipole Moment: [D]
     X:     2.7492      Y:     3.0330      Z:     1.4174     Total:     4.3320

*** Psi4 exiting successfully. Buy a developer a beer!
