                               Psi4 1.3.2 release

  ==> Input File <==

--------------------------------------------------------------------------
#psi4
#
memory 32 gb

molecule  {
0 1
  O       -2.4925410    -0.6205970    -0.1535330
  O       -0.0069960    -1.4050930    -0.3804930
  N        0.8695177     0.3852791     0.7413522
  C       -1.5296771     0.3224123     0.3456538
  C        2.2569670    -0.1011270     0.6035390
  C       -0.1490540    -0.3186880     0.1981930
  C       -1.6458490     1.6048030    -0.4506110
  C        2.8658230     0.2522360    -0.7461750
  H       -1.7322500     0.4923850     1.3997900
  H        2.8336360     0.3321260     1.4253690
  H        2.2399750    -1.1846720     0.7384180
  H        0.7096630     1.2770080     1.1428940
  H       -1.3913480     1.4204780    -1.4971700
  H       -0.9867360     2.3841060    -0.0548340
  H       -2.6752710     1.9656290    -0.4028710
  H        2.2847230    -0.2144000    -1.5438430
  H        2.8717410     1.3343490    -0.8997070
  H        3.8959980    -0.1107530    -0.8084670
  H       -1.9544520    -1.3731060    -0.4835650
units angstrom
no_reorient  #important for SAPT in psi4, default
symmetry c1  #important for SAPT in psi4, default
}

set PROPERTIES_ORIGIN ["COM"]
properties('MP2/aug-cc-pvtz', properties = ['dipole'])
--------------------------------------------------------------------------

    Molecular point group: c1
  Charge       = 0
  Multiplicity = 1
  Basis Set: AUG-CC-PVTZ
    Blend: AUG-CC-PVTZ
  Basis Set: (AUG-CC-PVTZ AUX)
    Blend: AUG-CC-PVTZ-JKFIT

    Orbital Energies [Eh]
    ---------------------

    Doubly Occupied:

       1A    -20.544982     2A    -20.534850     3A    -15.597836
       4A    -11.360018     5A    -11.296555     6A    -11.275817
       7A    -11.231193     8A    -11.224235     9A     -1.396057
      10A     -1.337294    11A     -1.245721    12A     -1.054174
      13A     -1.014607    14A     -0.902638    15A     -0.848598
      16A     -0.800389    17A     -0.740873    18A     -0.674988
      19A     -0.644192    20A     -0.641870    21A     -0.612672
      22A     -0.599531    23A     -0.575100    24A     -0.563311
      25A     -0.540829    26A     -0.533110    27A     -0.522020
      28A     -0.512462    29A     -0.502484    30A     -0.447611
      31A     -0.436447    32A     -0.405741

  @DF-RHF Final Energy:  -400.08610130090113

   => Energetics <=

    Nuclear Repulsion Energy =            400.2832803038257907
    One-Electron Energy =               -1339.5023561816979054
    Two-Electron Energy =                 539.1329745769710371
    Total Energy =                       -400.0861013009010776
  Basis Set: (AUG-CC-PVTZ AUX)
    Blend: AUG-CC-PVTZ-RI
    Molecular point group: c1

    Geometry (in Angstrom), charge = 0, multiplicity = 1:

       Center              X                  Y                   Z               Mass
    ------------   -----------------  -----------------  -----------------  -----------------
         O           -2.491840075560    -0.624719154227    -0.155711199077    15.994914619570
         O           -0.006295075560    -1.409215154227    -0.382671199077    15.994914619570
         N            0.870218624440     0.381156945773     0.739174000923    14.003074004430
         C           -1.528976175560     0.318290145773     0.343475600923    12.000000000000
         C            2.257667924440    -0.105249154227     0.601360800923    12.000000000000
         C           -0.148353075560    -0.322810154227     0.196014800923    12.000000000000
         C           -1.645148075560     1.600680845773    -0.452789199077    12.000000000000
         C            2.866523924440     0.248113845773    -0.748353199077    12.000000000000
         H           -1.731549075560     0.488262845773     1.397611800923     1.007825032230
         H            2.834336924440     0.328003845773     1.423190800923     1.007825032230
         H            2.240675924440    -1.188794154227     0.736239800923     1.007825032230
         H            0.710363924440     1.272885845773     1.140715800923     1.007825032230
         H           -1.390647075560     1.416355845773    -1.499348199077     1.007825032230
         H           -0.986035075560     2.379983845773    -0.057012199077     1.007825032230
         H           -2.674570075560     1.961506845773    -0.405049199077     1.007825032230
         H            2.285423924440    -0.218522154227    -1.546021199077     1.007825032230
         H            2.872441924440     1.330226845773    -0.901885199077     1.007825032230
         H            3.896698924440    -0.114875154227    -0.810645199077     1.007825032230
         H           -1.953751075560    -1.377228154227    -0.485743199077     1.007825032230

  Basis Set: AUG-CC-PVTZ
    Blend: AUG-CC-PVTZ
  Basis Set: (AUG-CC-PVTZ AUX)
    Blend: AUG-CC-PVTZ-JKFIT
	 Reference Energy          =    -400.0861013009011344 [Eh]
	 Singles Energy            =      -0.0000000000000000 [Eh]
	 Same-Spin Energy          =      -0.4020123252413439 [Eh]
	 Opposite-Spin Energy      =      -1.3080371019706178 [Eh]
	 Correlation Energy        =      -1.7100494272119617 [Eh]
	 Total Energy              =    -401.7961507281131048 [Eh]

	 ================> DF-SCS-MP2 Energies <==================
	-----------------------------------------------------------
	 SCS Same-Spin Scale       =       0.3333333333333333 [-]
	 SCS Opposite-Spin Scale   =       1.2000000000000000 [-]
	 SCS Same-Spin Energy      =      -0.1340041084137813 [Eh]
	 SCS Opposite-Spin Energy  =      -1.5696445223647413 [Eh]
	 SCS Correlation Energy    =      -1.7036486307785226 [Eh]
	 SCS Total Energy          =    -401.7897499316796370 [Eh]
	-----------------------------------------------------------

  Dipole Moment: [D]
     X:     3.0055      Y:     3.1880      Z:     1.5715     Total:     4.6546

*** Psi4 exiting successfully. Buy a developer a beer!
