                               Psi4 1.3.2 release

  ==> Input File <==

--------------------------------------------------------------------------
#psi4
#
memory 32 gb

molecule  {
0 1
  O       -2.4925410    -0.6205970    -0.1535330
  O       -0.0069960    -1.4050930    -0.3804930
  N        0.8836722     0.3586785     0.7577520
  C       -1.5404070     0.3017530     0.3325960
  C        2.2569670    -0.1011270     0.6035390
  C       -0.1490540    -0.3186880     0.1981930
  C       -1.6458490     1.6048030    -0.4506110
  C        2.8884275     0.2403670    -0.7388240
  H       -1.7322500     0.4923850     1.3997900
  H        2.8336360     0.3321260     1.4253690
  H        2.2399750    -1.1846720     0.7384180
  H        0.7096630     1.2770080     1.1428940
  H       -1.3913480     1.4204780    -1.4971700
  H       -0.9867360     2.3841060    -0.0548340
  H       -2.6752710     1.9656290    -0.4028710
  H        2.2847230    -0.2144000    -1.5438430
  H        2.8717410     1.3343490    -0.8997070
  H        3.8959980    -0.1107530    -0.8084670
  H       -1.9544520    -1.3731060    -0.4835650
units angstrom
no_reorient  #important for SAPT in psi4, default
symmetry c1  #important for SAPT in psi4, default
}

set PROPERTIES_ORIGIN ["COM"]
properties('MP2/aug-cc-pvtz', properties = ['dipole'])
--------------------------------------------------------------------------

    Molecular point group: c1
  Charge       = 0
  Multiplicity = 1
  Basis Set: AUG-CC-PVTZ
    Blend: AUG-CC-PVTZ
  Basis Set: (AUG-CC-PVTZ AUX)
    Blend: AUG-CC-PVTZ-JKFIT

    Orbital Energies [Eh]
    ---------------------

    Doubly Occupied:

       1A    -20.548865     2A    -20.534481     3A    -15.599319
       4A    -11.359884     5A    -11.298512     6A    -11.273609
       7A    -11.231456     8A    -11.223820     9A     -1.398678
      10A     -1.346924    11A     -1.245206    12A     -1.052610
      13A     -1.013221    14A     -0.903469    15A     -0.848910
      16A     -0.793432    17A     -0.744965    18A     -0.676534
      19A     -0.647456    20A     -0.641415    21A     -0.613409
      22A     -0.596742    23A     -0.578666    24A     -0.564216
      25A     -0.547088    26A     -0.535192    27A     -0.520116
      28A     -0.514790    29A     -0.497930    30A     -0.445965
      31A     -0.436837    32A     -0.404278

  @DF-RHF Final Energy:  -400.08681599746728

   => Energetics <=

    Nuclear Repulsion Energy =            400.2657355954786453
    One-Electron Energy =               -1339.4291130594833703
    Two-Electron Energy =                 539.0765614665374414
    Total Energy =                       -400.0868159974672835
  Basis Set: (AUG-CC-PVTZ AUX)
    Blend: AUG-CC-PVTZ-RI
    Molecular point group: c1

    Geometry (in Angstrom), charge = 0, multiplicity = 1:

       Center              X                  Y                   Z               Mass
    ------------   -----------------  -----------------  -----------------  -----------------
         O           -2.494750091645    -0.618203639832    -0.157087757149    15.994914619570
         O           -0.009205091645    -1.402699639832    -0.384047757149    15.994914619570
         N            0.881463108355     0.361071860168     0.754197242851    14.003074004430
         C           -1.542616091645     0.304146360168     0.329041242851    12.000000000000
         C            2.254757908355    -0.098733639832     0.599984242851    12.000000000000
         C           -0.151263091645    -0.316294639832     0.194638242851    12.000000000000
         C           -1.648058091645     1.607196360168    -0.454165757149    12.000000000000
         C            2.886218408355     0.242760360168    -0.742378757149    12.000000000000
         H           -1.734459091645     0.494778360168     1.396235242851     1.007825032230
         H            2.831426908355     0.334519360168     1.421814242851     1.007825032230
         H            2.237765908355    -1.182278639832     0.734863242851     1.007825032230
         H            0.707453908355     1.279401360168     1.139339242851     1.007825032230
         H           -1.393557091645     1.422871360168    -1.500724757149     1.007825032230
         H           -0.988945091645     2.386499360168    -0.058388757149     1.007825032230
         H           -2.677480091645     1.968022360168    -0.406425757149     1.007825032230
         H            2.282513908355    -0.212006639832    -1.547397757149     1.007825032230
         H            2.869531908355     1.336742360168    -0.903261757149     1.007825032230
         H            3.893788908355    -0.108359639832    -0.812021757149     1.007825032230
         H           -1.956661091645    -1.370712639832    -0.487119757149     1.007825032230

  Basis Set: AUG-CC-PVTZ
    Blend: AUG-CC-PVTZ
  Basis Set: (AUG-CC-PVTZ AUX)
    Blend: AUG-CC-PVTZ-JKFIT
	 Reference Energy          =    -400.0868159974672835 [Eh]
	 Singles Energy            =      -0.0000000000000000 [Eh]
	 Same-Spin Energy          =      -0.4020894680717659 [Eh]
	 Opposite-Spin Energy      =      -1.3077260837525408 [Eh]
	 Correlation Energy        =      -1.7098155518243068 [Eh]
	 Total Energy              =    -401.7966315492915896 [Eh]

	 ================> DF-SCS-MP2 Energies <==================
	-----------------------------------------------------------
	 SCS Same-Spin Scale       =       0.3333333333333333 [-]
	 SCS Opposite-Spin Scale   =       1.2000000000000000 [-]
	 SCS Same-Spin Energy      =      -0.1340298226905886 [Eh]
	 SCS Opposite-Spin Energy  =      -1.5692713005030490 [Eh]
	 SCS Correlation Energy    =      -1.7033011231936377 [Eh]
	 SCS Total Energy          =    -401.7901171206609092 [Eh]
	-----------------------------------------------------------

  Dipole Moment: [D]
     X:     2.8825      Y:     3.1413      Z:     1.5000     Total:     4.5195

*** Psi4 exiting successfully. Buy a developer a beer!
