                               Psi4 1.3.2 release

  ==> Input File <==

--------------------------------------------------------------------------
#psi4
#
memory 32 gb

molecule  {
0 1
  O       -2.4925410    -0.6205970    -0.1535330
  O       -0.0069960    -1.4050930    -0.3804930
  N        0.8845720     0.3685180     0.7343320
  C       -1.5404070     0.3017530     0.3325960
  C        2.2569670    -0.1011270     0.6035390
  C       -0.1605187    -0.2310101     0.2448957
  C       -1.6458490     1.6048030    -0.4506110
  C        2.8658230     0.2522360    -0.7461750
  H       -1.7322500     0.4923850     1.3997900
  H        2.8336360     0.3321260     1.4253690
  H        2.2399750    -1.1846720     0.7384180
  H        0.7096630     1.2770080     1.1428940
  H       -1.3913480     1.4204780    -1.4971700
  H       -0.9867360     2.3841060    -0.0548340
  H       -2.6752710     1.9656290    -0.4028710
  H        2.2847230    -0.2144000    -1.5438430
  H        2.8717410     1.3343490    -0.8997070
  H        3.8959980    -0.1107530    -0.8084670
  H       -1.9544520    -1.3731060    -0.4835650
units angstrom
no_reorient  #important for SAPT in psi4, default
symmetry c1  #important for SAPT in psi4, default
}

set PROPERTIES_ORIGIN ["COM"]
properties('MP2/aug-cc-pvtz', properties = ['dipole'])
--------------------------------------------------------------------------

    Molecular point group: c1
  Charge       = 0
  Multiplicity = 1
  Basis Set: AUG-CC-PVTZ
    Blend: AUG-CC-PVTZ
  Basis Set: (AUG-CC-PVTZ AUX)
    Blend: AUG-CC-PVTZ-JKFIT

    Orbital Energies [Eh]
    ---------------------

    Doubly Occupied:

       1A    -20.548737     2A    -20.512905     3A    -15.614240
       4A    -11.360087     5A    -11.300874     6A    -11.281428
       7A    -11.234085     8A    -11.226795     9A     -1.373995
      10A     -1.331695    11A     -1.240933    12A     -1.065064
      13A     -1.021634    14A     -0.912957    15A     -0.860529
      16A     -0.801775    17A     -0.746202    18A     -0.681411
      19A     -0.654839    20A     -0.628186    21A     -0.617432
      22A     -0.590317    23A     -0.568363    24A     -0.566423
      25A     -0.546615    26A     -0.536696    27A     -0.513130
      28A     -0.503382    29A     -0.498368    30A     -0.444471
      31A     -0.427550    32A     -0.399681

  @DF-RHF Final Energy:  -400.06625677325655

   => Energetics <=

    Nuclear Repulsion Energy =            400.4064086817872408
    One-Electron Energy =               -1339.7237324985469513
    Two-Electron Energy =                 539.2510670435030988
    Total Energy =                       -400.0662567732565549
  Basis Set: (AUG-CC-PVTZ AUX)
    Blend: AUG-CC-PVTZ-RI
    Molecular point group: c1

    Geometry (in Angstrom), charge = 0, multiplicity = 1:

       Center              X                  Y                   Z               Mass
    ------------   -----------------  -----------------  -----------------  -----------------
         O           -2.491365791246    -0.629583531104    -0.158319988661    15.994914619570
         O           -0.005820791246    -1.414079531104    -0.385279988661    15.994914619570
         N            0.885747208754     0.359531468896     0.729545011339    14.003074004430
         C           -1.539231791246     0.292766468896     0.327809011339    12.000000000000
         C            2.258142208754    -0.110113531104     0.598752011339    12.000000000000
         C           -0.159343491246    -0.239996631104     0.240108711339    12.000000000000
         C           -1.644673791246     1.595816468896    -0.455397988661    12.000000000000
         C            2.866998208754     0.243249468896    -0.750961988661    12.000000000000
         H           -1.731074791246     0.483398468896     1.395003011339     1.007825032230
         H            2.834811208754     0.323139468896     1.420582011339     1.007825032230
         H            2.241150208754    -1.193658531104     0.733631011339     1.007825032230
         H            0.710838208754     1.268021468896     1.138107011339     1.007825032230
         H           -1.390172791246     1.411491468896    -1.501956988661     1.007825032230
         H           -0.985560791246     2.375119468896    -0.059620988661     1.007825032230
         H           -2.674095791246     1.956642468896    -0.407657988661     1.007825032230
         H            2.285898208754    -0.223386531104    -1.548629988661     1.007825032230
         H            2.872916208754     1.325362468896    -0.904493988661     1.007825032230
         H            3.897173208754    -0.119739531104    -0.813253988661     1.007825032230
         H           -1.953276791246    -1.382092531104    -0.488351988661     1.007825032230

  Basis Set: AUG-CC-PVTZ
    Blend: AUG-CC-PVTZ
  Basis Set: (AUG-CC-PVTZ AUX)
    Blend: AUG-CC-PVTZ-JKFIT
	 Reference Energy          =    -400.0662567732565549 [Eh]
	 Singles Energy            =      -0.0000000000000000 [Eh]
	 Same-Spin Energy          =      -0.4042607805377848 [Eh]
	 Opposite-Spin Energy      =      -1.3117561956476311 [Eh]
	 Correlation Energy        =      -1.7160169761854158 [Eh]
	 Total Energy              =    -401.7822737494419698 [Eh]

	 ================> DF-SCS-MP2 Energies <==================
	-----------------------------------------------------------
	 SCS Same-Spin Scale       =       0.3333333333333333 [-]
	 SCS Opposite-Spin Scale   =       1.2000000000000000 [-]
	 SCS Same-Spin Energy      =      -0.1347535935125949 [Eh]
	 SCS Opposite-Spin Energy  =      -1.5741074347771573 [Eh]
	 SCS Correlation Energy    =      -1.7088610282897523 [Eh]
	 SCS Total Energy          =    -401.7751178015462870 [Eh]
	-----------------------------------------------------------

  Dipole Moment: [D]
     X:     3.1250      Y:     3.6616      Z:     1.8177     Total:     5.1456

*** Psi4 exiting successfully. Buy a developer a beer!
