                               Psi4 1.4a3.dev225

  ==> Input File <==

--------------------------------------------------------------------------
#psi4
#
memory 32 gb

molecule  {
0 1
  O       -2.5334200    -0.7491890    -0.0380440
  O       -0.0309920    -1.3916750    -0.5246560
  N        0.8474210     0.2516040     0.7908210
  C       -1.5793960     0.2040340     0.3844480
  C        2.2299320    -0.1523350     0.5631470
  C       -0.1638340    -0.3939786     0.1822600
  C       -1.7305020     1.4971750    -0.4144490
  C        2.7876300     0.3918150    -0.7462470
  H       -1.7371730     0.4054880     1.4537200
  H        2.8183710     0.1913570     1.4185970
  H        2.2480760    -1.2444890     0.5585260
  H        0.6595560     1.1005830     1.3085070
  H       -1.5202540     1.2971370    -1.4686150
  H       -1.0543700     2.2823790    -0.0604110
  H       -2.7592110     1.8535180    -0.3272230
  H        2.1936920     0.0168210    -1.5822170
  H        2.7616940     1.4848860    -0.7566670
  H        3.8242090     0.0700520    -0.8849050
  H       -2.0046360    -1.4186050    -0.5240660
units angstrom
no_reorient  #important for SAPT in psi4, default
symmetry c1  #important for SAPT in psi4, default
}

set PROPERTIES_ORIGIN ["COM"]
properties('MP2/aug-cc-pvtz', properties = ['dipole'])
--------------------------------------------------------------------------

    Molecular point group: c1
  Charge       = 0
  Multiplicity = 1
  Basis Set: AUG-CC-PVTZ
    Blend: AUG-CC-PVTZ
  Basis Set: (AUG-CC-PVTZ AUX)
    Blend: AUG-CC-PVTZ-JKFIT

    Orbital Energies [Eh]
    ---------------------

    Doubly Occupied:

       1A    -20.548535     2A    -20.533439     3A    -15.599605
       4A    -11.357535     5A    -11.297479     6A    -11.274712
       7A    -11.229335     8A    -11.224527     9A     -1.400904
      10A     -1.347134    11A     -1.248801    12A     -1.049639
      13A     -1.012333    14A     -0.900182    15A     -0.846846
      16A     -0.797109    17A     -0.743560    18A     -0.674875
      19A     -0.646132    20A     -0.637676    21A     -0.615111
      22A     -0.600260    23A     -0.580937    24A     -0.563802
      25A     -0.541895    26A     -0.532460    27A     -0.523395
      28A     -0.513656    29A     -0.503889    30A     -0.446145
      31A     -0.430549    32A     -0.405496

  @DF-RHF Final Energy:  -400.08823960138704

   => Energetics <=

    Nuclear Repulsion Energy =            400.4536372097059029
    One-Electron Energy =               -1339.8278495131075942
    Two-Electron Energy =                 539.2859727020146465
    Total Energy =                       -400.0882396013870448
  Basis Set: (AUG-CC-PVTZ AUX)
    Blend: AUG-CC-PVTZ-RI
    Molecular point group: c1

    Geometry (in Angstrom), charge = 0, multiplicity = 1:

       Center              X                  Y                   Z               Mass
    ------------   -----------------  -----------------  -----------------  -----------------
         O           -2.489409977790    -0.697319745847    -0.045150090375    15.994914619570
         O            0.013018022210    -1.339805745847    -0.531762090375    15.994914619570
         N            0.891431022210     0.303473254153     0.783714909625    14.003074004430
         C           -1.535385977790     0.255903254153     0.377341909625    12.000000000000
         C            2.273942022210    -0.100465745847     0.556040909625    12.000000000000
         C           -0.119823977790    -0.342109345847     0.175153909625    12.000000000000
         C           -1.686491977790     1.549044254153    -0.421555090375    12.000000000000
         C            2.831640022210     0.443684254153    -0.753353090375    12.000000000000
         H           -1.693162977790     0.457357254153     1.446613909625     1.007825032230
         H            2.862381022210     0.243226254153     1.411490909625     1.007825032230
         H            2.292086022210    -1.192619745847     0.551419909625     1.007825032230
         H            0.703566022210     1.152452254153     1.301400909625     1.007825032230
         H           -1.476243977790     1.349006254153    -1.475721090375     1.007825032230
         H           -1.010359977790     2.334248254153    -0.067517090375     1.007825032230
         H           -2.715200977790     1.905387254153    -0.334329090375     1.007825032230
         H            2.237702022210     0.068690254153    -1.589323090375     1.007825032230
         H            2.805704022210     1.536755254153    -0.763773090375     1.007825032230
         H            3.868219022210     0.121921254153    -0.892011090375     1.007825032230
         H           -1.960625977790    -1.366735745847    -0.531172090375     1.007825032230

  Basis Set: AUG-CC-PVTZ
    Blend: AUG-CC-PVTZ
  Basis Set: (AUG-CC-PVTZ AUX)
    Blend: AUG-CC-PVTZ-JKFIT
	 Reference Energy          =    -400.0882396013870448 [Eh]
	 Singles Energy            =      -0.0000000000000000 [Eh]
	 Same-Spin Energy          =      -0.4017389987509876 [Eh]
	 Opposite-Spin Energy      =      -1.3072346263632264 [Eh]
	 Correlation Energy        =      -1.7089736251142140 [Eh]
	 Total Energy              =    -401.7972132265012419 [Eh]

	 ================> DF-SCS-MP2 Energies <==================
	-----------------------------------------------------------
	 SCS Same-Spin Scale       =       0.3333333333333333 [-]
	 SCS Opposite-Spin Scale   =       1.2000000000000000 [-]
	 SCS Same-Spin Energy      =      -0.1339129995836625 [Eh]
	 SCS Opposite-Spin Energy  =      -1.5686815516358716 [Eh]
	 SCS Correlation Energy    =      -1.7025945512195342 [Eh]
	 SCS Total Energy          =    -401.7908341526065783 [Eh]
	-----------------------------------------------------------

  Dipole Moment: [D]
     X:     2.9551      Y:     3.0971      Z:     1.6089     Total:     4.5731

*** Psi4 exiting successfully. Buy a developer a beer!
