                               Psi4 1.3.2 release

  ==> Input File <==

--------------------------------------------------------------------------
#psi4
#
memory 32 gb

molecule  {
0 1
  O       -2.4925410    -0.6205970    -0.1535330
  O       -0.0069960    -1.4050930    -0.3804930
  N        0.9058875     0.4073292     0.7964065
  C       -1.5404070     0.3017530     0.3325960
  C        2.2569670    -0.1011270     0.6035390
  C       -0.1490540    -0.3186880     0.1981930
  C       -1.6458490     1.6048030    -0.4506110
  C        2.8658230     0.2522360    -0.7461750
  H       -1.7322500     0.4923850     1.3997900
  H        2.7858344     0.3580631     1.4432434
  H        2.2399750    -1.1846720     0.7384180
  H        0.7096630     1.2770080     1.1428940
  H       -1.3913480     1.4204780    -1.4971700
  H       -0.9867360     2.3841060    -0.0548340
  H       -2.6752710     1.9656290    -0.4028710
  H        2.2847230    -0.2144000    -1.5438430
  H        2.8717410     1.3343490    -0.8997070
  H        3.8959980    -0.1107530    -0.8084670
  H       -1.9544520    -1.3731060    -0.4835650
units angstrom
no_reorient  #important for SAPT in psi4, default
symmetry c1  #important for SAPT in psi4, default
}

set PROPERTIES_ORIGIN ["COM"]
properties('MP2/aug-cc-pvtz', properties = ['dipole'])
--------------------------------------------------------------------------

    Molecular point group: c1
  Charge       = 0
  Multiplicity = 1
  Basis Set: AUG-CC-PVTZ
    Blend: AUG-CC-PVTZ
  Basis Set: (AUG-CC-PVTZ AUX)
    Blend: AUG-CC-PVTZ-JKFIT

    Orbital Energies [Eh]
    ---------------------

    Doubly Occupied:

       1A    -20.550410     2A    -20.545089     3A    -15.591430
       4A    -11.367788     5A    -11.299562     6A    -11.271576
       7A    -11.232199     8A    -11.222626     9A     -1.400369
      10A     -1.348332    11A     -1.240598    12A     -1.050581
      13A     -1.011113    14A     -0.901911    15A     -0.850004
      16A     -0.796059    17A     -0.744384    18A     -0.676061
      19A     -0.645214    20A     -0.644065    21A     -0.608999
      22A     -0.601758    23A     -0.578083    24A     -0.564386
      25A     -0.542819    26A     -0.533505    27A     -0.524371
      28A     -0.517509    29A     -0.501631    30A     -0.447317
      31A     -0.438466    32A     -0.402850

  @DF-RHF Final Energy:  -400.07936092135003

   => Energetics <=

    Nuclear Repulsion Energy =            399.3726209512881269
    One-Electron Energy =               -1337.6018317655082228
    Two-Electron Energy =                 538.1498498928700656
    Total Energy =                       -400.0793609213500304
  Basis Set: (AUG-CC-PVTZ AUX)
    Blend: AUG-CC-PVTZ-RI
    Molecular point group: c1

    Geometry (in Angstrom), charge = 0, multiplicity = 1:

       Center              X                  Y                   Z               Mass
    ------------   -----------------  -----------------  -----------------  -----------------
         O           -2.494678796531    -0.625462222212    -0.161111400826    15.994914619570
         O           -0.009133796531    -1.409958222212    -0.388071400826    15.994914619570
         N            0.903749703469     0.402463977788     0.788828099174    14.003074004430
         C           -1.542544796531     0.296887777788     0.325017599174    12.000000000000
         C            2.254829203469    -0.105992222212     0.595960599174    12.000000000000
         C           -0.151191796531    -0.323553222212     0.190614599174    12.000000000000
         C           -1.647986796531     1.599937777788    -0.458189400826    12.000000000000
         C            2.863685203469     0.247370777788    -0.753753400826    12.000000000000
         H           -1.734387796531     0.487519777788     1.392211599174     1.007825032230
         H            2.783696603469     0.353197877788     1.435664999174     1.007825032230
         H            2.237837203469    -1.189537222212     0.730839599174     1.007825032230
         H            0.707525203469     1.272142777788     1.135315599174     1.007825032230
         H           -1.393485796531     1.415612777788    -1.504748400826     1.007825032230
         H           -0.988873796531     2.379240777788    -0.062412400826     1.007825032230
         H           -2.677408796531     1.960763777788    -0.410449400826     1.007825032230
         H            2.282585203469    -0.219265222212    -1.551421400826     1.007825032230
         H            2.869603203469     1.329483777788    -0.907285400826     1.007825032230
         H            3.893860203469    -0.115618222212    -0.816045400826     1.007825032230
         H           -1.956589796531    -1.377971222212    -0.491143400826     1.007825032230

  Basis Set: AUG-CC-PVTZ
    Blend: AUG-CC-PVTZ
  Basis Set: (AUG-CC-PVTZ AUX)
    Blend: AUG-CC-PVTZ-JKFIT
	 Reference Energy          =    -400.0793609213500304 [Eh]
	 Singles Energy            =      -0.0000000000000000 [Eh]
	 Same-Spin Energy          =      -0.4020745248650074 [Eh]
	 Opposite-Spin Energy      =      -1.3083158700378092 [Eh]
	 Correlation Energy        =      -1.7103903949028165 [Eh]
	 Total Energy              =    -401.7897513162528185 [Eh]

	 ================> DF-SCS-MP2 Energies <==================
	-----------------------------------------------------------
	 SCS Same-Spin Scale       =       0.3333333333333333 [-]
	 SCS Opposite-Spin Scale   =       1.2000000000000000 [-]
	 SCS Same-Spin Energy      =      -0.1340248416216691 [Eh]
	 SCS Opposite-Spin Energy  =      -1.5699790440453711 [Eh]
	 SCS Correlation Energy    =      -1.7040038856670403 [Eh]
	 SCS Total Energy          =    -401.7833648070170511 [Eh]
	-----------------------------------------------------------

  Dipole Moment: [D]
     X:     2.6703      Y:     2.9741      Z:     1.3424     Total:     4.2163

*** Psi4 exiting successfully. Buy a developer a beer!
