                               Psi4 1.3.2 release

  ==> Input File <==

--------------------------------------------------------------------------
#psi4
#
memory 32 gb

molecule  {
0 1
  O       -2.4925410    -0.6205970    -0.1535330
  O       -0.0069960    -1.4050930    -0.3804930
  N        0.8845720     0.3685180     0.7343320
  C       -1.5404070     0.3017530     0.3325960
  C        2.2569670    -0.1011270     0.6035390
  C       -0.1490540    -0.3186880     0.1981930
  C       -1.6389301     1.5192991    -0.3992183
  C        2.8658230     0.2522360    -0.7461750
  H       -1.7322500     0.4923850     1.3997900
  H        2.8336360     0.3321260     1.4253690
  H        2.2399750    -1.1846720     0.7384180
  H        0.7096630     1.2770080     1.1428940
  H       -1.3913480     1.4204780    -1.4971700
  H       -0.9867360     2.3841060    -0.0548340
  H       -2.6752710     1.9656290    -0.4028710
  H        2.2847230    -0.2144000    -1.5438430
  H        2.8717410     1.3343490    -0.8997070
  H        3.8959980    -0.1107530    -0.8084670
  H       -1.9544520    -1.3731060    -0.4835650
units angstrom
no_reorient  #important for SAPT in psi4, default
symmetry c1  #important for SAPT in psi4, default
}

set PROPERTIES_ORIGIN ["COM"]
properties('MP2/aug-cc-pvtz', properties = ['dipole'])
--------------------------------------------------------------------------

    Molecular point group: c1
  Charge       = 0
  Multiplicity = 1
  Basis Set: AUG-CC-PVTZ
    Blend: AUG-CC-PVTZ
  Basis Set: (AUG-CC-PVTZ AUX)
    Blend: AUG-CC-PVTZ-JKFIT

    Orbital Energies [Eh]
    ---------------------

    Doubly Occupied:

       1A    -20.548385     2A    -20.534086     3A    -15.599115
       4A    -11.359689     5A    -11.293742     6A    -11.274171
       7A    -11.235910     8A    -11.223337     9A     -1.399640
      10A     -1.348457    11A     -1.246398    12A     -1.065140
      13A     -1.018873    14A     -0.899110    15A     -0.846275
      16A     -0.794124    17A     -0.748511    18A     -0.679973
      19A     -0.649489    20A     -0.647954    21A     -0.615386
      22A     -0.597319    23A     -0.591640    24A     -0.551830
      25A     -0.539658    26A     -0.522276    27A     -0.519025
      28A     -0.509420    29A     -0.501478    30A     -0.454373
      31A     -0.433528    32A     -0.404058

  @DF-RHF Final Energy:  -400.07590997166199

   => Energetics <=

    Nuclear Repulsion Energy =            402.3620040925560488
    One-Electron Energy =               -1343.5710842141711510
    Two-Electron Energy =                 541.1331701499531164
    Total Energy =                       -400.0759099716619858
  Basis Set: (AUG-CC-PVTZ AUX)
    Blend: AUG-CC-PVTZ-RI
    Molecular point group: c1

    Geometry (in Angstrom), charge = 0, multiplicity = 1:

       Center              X                  Y                   Z               Mass
    ------------   -----------------  -----------------  -----------------  -----------------
         O           -2.493250016772    -0.611833277174    -0.158800689814    15.994914619570
         O           -0.007705016772    -1.396329277174    -0.385760689814    15.994914619570
         N            0.883862983228     0.377281722826     0.729064310186    14.003074004430
         C           -1.541116016772     0.310516722826     0.327328310186    12.000000000000
         C            2.256257983228    -0.092363277174     0.598271310186    12.000000000000
         C           -0.149763016772    -0.309924277174     0.192925310186    12.000000000000
         C           -1.639639116772     1.528062822826    -0.404485989814    12.000000000000
         C            2.865113983228     0.260999722826    -0.751442689814    12.000000000000
         H           -1.732959016772     0.501148722826     1.394522310186     1.007825032230
         H            2.832926983228     0.340889722826     1.420101310186     1.007825032230
         H            2.239265983228    -1.175908277174     0.733150310186     1.007825032230
         H            0.708953983228     1.285771722826     1.137626310186     1.007825032230
         H           -1.392057016772     1.429241722826    -1.502437689814     1.007825032230
         H           -0.987445016772     2.392869722826    -0.060101689814     1.007825032230
         H           -2.675980016772     1.974392722826    -0.408138689814     1.007825032230
         H            2.284013983228    -0.205636277174    -1.549110689814     1.007825032230
         H            2.871031983228     1.343112722826    -0.904974689814     1.007825032230
         H            3.895288983228    -0.101989277174    -0.813734689814     1.007825032230
         H           -1.955161016772    -1.364342277174    -0.488832689814     1.007825032230

  Basis Set: AUG-CC-PVTZ
    Blend: AUG-CC-PVTZ
  Basis Set: (AUG-CC-PVTZ AUX)
    Blend: AUG-CC-PVTZ-JKFIT
	 Reference Energy          =    -400.0759099716619858 [Eh]
	 Singles Energy            =      -0.0000000000000000 [Eh]
	 Same-Spin Energy          =      -0.4031674470141879 [Eh]
	 Opposite-Spin Energy      =      -1.3089238153492262 [Eh]
	 Correlation Energy        =      -1.7120912623634141 [Eh]
	 Total Energy              =    -401.7880012340253870 [Eh]

	 ================> DF-SCS-MP2 Energies <==================
	-----------------------------------------------------------
	 SCS Same-Spin Scale       =       0.3333333333333333 [-]
	 SCS Opposite-Spin Scale   =       1.2000000000000000 [-]
	 SCS Same-Spin Energy      =      -0.1343891490047293 [Eh]
	 SCS Opposite-Spin Energy  =      -1.5707085784190713 [Eh]
	 SCS Correlation Energy    =      -1.7050977274238006 [Eh]
	 SCS Total Energy          =    -401.7810076990857624 [Eh]
	-----------------------------------------------------------

  Dipole Moment: [D]
     X:     2.9265      Y:     3.1755      Z:     1.5455     Total:     4.5866

*** Psi4 exiting successfully. Buy a developer a beer!
