                               Psi4 1.3.2 release

  ==> Input File <==

--------------------------------------------------------------------------
#psi4
#
memory 32 gb

molecule  {
0 1
  O       -2.4925410    -0.6205970    -0.1535330
  O       -0.0069960    -1.4050930    -0.3804930
  N        0.8384829     0.4181530     0.7548940
  C       -1.5069590     0.3631388     0.3716307
  C        2.2569670    -0.1011270     0.6035390
  C       -0.1490540    -0.3186880     0.1981930
  C       -1.6458490     1.6048030    -0.4506110
  C        2.8658230     0.2522360    -0.7461750
  H       -1.7322500     0.4923850     1.3997900
  H        2.8336360     0.3321260     1.4253690
  H        2.2399750    -1.1846720     0.7384180
  H        0.7096630     1.2770080     1.1428940
  H       -1.3913480     1.4204780    -1.4971700
  H       -0.9867360     2.3841060    -0.0548340
  H       -2.6752710     1.9656290    -0.4028710
  H        2.2847230    -0.2144000    -1.5438430
  H        2.8717410     1.3343490    -0.8997070
  H        3.8959980    -0.1107530    -0.8084670
  H       -1.9544520    -1.3731060    -0.4835650
units angstrom
no_reorient  #important for SAPT in psi4, default
symmetry c1  #important for SAPT in psi4, default
}

set PROPERTIES_ORIGIN ["COM"]
properties('MP2/aug-cc-pvtz', properties = ['dipole'])
--------------------------------------------------------------------------

    Molecular point group: c1
  Charge       = 0
  Multiplicity = 1
  Basis Set: AUG-CC-PVTZ
    Blend: AUG-CC-PVTZ
  Basis Set: (AUG-CC-PVTZ AUX)
    Blend: AUG-CC-PVTZ-JKFIT

    Orbital Energies [Eh]
    ---------------------

    Doubly Occupied:

       1A    -20.537930     2A    -20.537822     3A    -15.595903
       4A    -11.362596     5A    -11.294181     6A    -11.279477
       7A    -11.231503     8A    -11.226179     9A     -1.393544
      10A     -1.318819    11A     -1.246871    12A     -1.056950
      13A     -1.018196    14A     -0.903293    15A     -0.848526
      16A     -0.812914    17A     -0.735099    18A     -0.671468
      19A     -0.643291    20A     -0.636490    21A     -0.613670
      22A     -0.601230    23A     -0.573490    24A     -0.562799
      25A     -0.538545    26A     -0.530725    27A     -0.523739
      28A     -0.508857    29A     -0.498369    30A     -0.448841
      31A     -0.436268    32A     -0.409950

  @DF-RHF Final Energy:  -400.07308629998727

   => Energetics <=

    Nuclear Repulsion Energy =            399.6559266741818988
    One-Electron Energy =               -1338.2629611193360688
    Two-Electron Energy =                 538.5339481451668462
    Total Energy =                       -400.0730862999872670
  Basis Set: (AUG-CC-PVTZ AUX)
    Blend: AUG-CC-PVTZ-RI
    Molecular point group: c1

    Geometry (in Angstrom), charge = 0, multiplicity = 1:

       Center              X                  Y                   Z               Mass
    ------------   -----------------  -----------------  -----------------  -----------------
         O           -2.490456689720    -0.632825252058    -0.159993348047    15.994914619570
         O           -0.004911689720    -1.417321252058    -0.386953348047    15.994914619570
         N            0.840567210280     0.405924747942     0.748433651953    14.003074004430
         C           -1.504874689720     0.350910547942     0.365170351953    12.000000000000
         C            2.259051310280    -0.113355252058     0.597078651953    12.000000000000
         C           -0.146969689720    -0.330916252058     0.191732651953    12.000000000000
         C           -1.643764689720     1.592574747942    -0.457071348047    12.000000000000
         C            2.867907310280     0.240007747942    -0.752635348047    12.000000000000
         H           -1.730165689720     0.480156747942     1.393329651953     1.007825032230
         H            2.835720310280     0.319897747942     1.418908651953     1.007825032230
         H            2.242059310280    -1.196900252058     0.731957651953     1.007825032230
         H            0.711747310280     1.264779747942     1.136433651953     1.007825032230
         H           -1.389263689720     1.408249747942    -1.503630348047     1.007825032230
         H           -0.984651689720     2.371877747942    -0.061294348047     1.007825032230
         H           -2.673186689720     1.953400747942    -0.409331348047     1.007825032230
         H            2.286807310280    -0.226628252058    -1.550303348047     1.007825032230
         H            2.873825310280     1.322120747942    -0.906167348047     1.007825032230
         H            3.898082310280    -0.122981252058    -0.814927348047     1.007825032230
         H           -1.952367689720    -1.385334252058    -0.490025348047     1.007825032230

  Basis Set: AUG-CC-PVTZ
    Blend: AUG-CC-PVTZ
  Basis Set: (AUG-CC-PVTZ AUX)
    Blend: AUG-CC-PVTZ-JKFIT
	 Reference Energy          =    -400.0730862999872670 [Eh]
	 Singles Energy            =      -0.0000000000000000 [Eh]
	 Same-Spin Energy          =      -0.4021258314427035 [Eh]
	 Opposite-Spin Energy      =      -1.3094264382036656 [Eh]
	 Correlation Energy        =      -1.7115522696463690 [Eh]
	 Total Energy              =    -401.7846385696336142 [Eh]

	 ================> DF-SCS-MP2 Energies <==================
	-----------------------------------------------------------
	 SCS Same-Spin Scale       =       0.3333333333333333 [-]
	 SCS Opposite-Spin Scale   =       1.2000000000000000 [-]
	 SCS Same-Spin Energy      =      -0.1340419438142345 [Eh]
	 SCS Opposite-Spin Energy  =      -1.5713117258443987 [Eh]
	 SCS Correlation Energy    =      -1.7053536696586331 [Eh]
	 SCS Total Energy          =    -401.7784399696458877 [Eh]
	-----------------------------------------------------------

  Dipole Moment: [D]
     X:     3.2066      Y:     3.2558      Z:     1.5848     Total:     4.8367

*** Psi4 exiting successfully. Buy a developer a beer!
