                               Psi4 1.3.2 release

  ==> Input File <==

--------------------------------------------------------------------------
#psi4
#
memory 32 gb

molecule  {
0 1
  O       -2.4925410    -0.6205970    -0.1535330
  O       -0.0069960    -1.4050930    -0.3804930
  N        0.8845720     0.3685180     0.7343320
  C       -1.5404070     0.3017530     0.3325960
  C        2.2569670    -0.1011270     0.6035390
  C       -0.1719835    -0.1433321     0.2915983
  C       -1.6458490     1.6048030    -0.4506110
  C        2.8658230     0.2522360    -0.7461750
  H       -1.7322500     0.4923850     1.3997900
  H        2.8336360     0.3321260     1.4253690
  H        2.2399750    -1.1846720     0.7384180
  H        0.7096630     1.2770080     1.1428940
  H       -1.3913480     1.4204780    -1.4971700
  H       -0.9867360     2.3841060    -0.0548340
  H       -2.6752710     1.9656290    -0.4028710
  H        2.2847230    -0.2144000    -1.5438430
  H        2.8717410     1.3343490    -0.8997070
  H        3.8959980    -0.1107530    -0.8084670
  H       -1.9544520    -1.3731060    -0.4835650
units angstrom
no_reorient  #important for SAPT in psi4, default
symmetry c1  #important for SAPT in psi4, default
}

set PROPERTIES_ORIGIN ["COM"]
properties('MP2/aug-cc-pvtz', properties = ['dipole'])
--------------------------------------------------------------------------

    Molecular point group: c1
  Charge       = 0
  Multiplicity = 1
  Basis Set: AUG-CC-PVTZ
    Blend: AUG-CC-PVTZ
  Basis Set: (AUG-CC-PVTZ AUX)
    Blend: AUG-CC-PVTZ-JKFIT

    Orbital Energies [Eh]
    ---------------------

    Doubly Occupied:

       1A    -20.548900     2A    -20.493712     3A    -15.628574
       4A    -11.358509     5A    -11.303027     6A    -11.288367
       7A    -11.236830     8A    -11.230185     9A     -1.370259
      10A     -1.336139    11A     -1.208264    12A     -1.076729
      13A     -1.031208    14A     -0.921111    15A     -0.873002
      16A     -0.808317    17A     -0.748636    18A     -0.691158
      19A     -0.660572    20A     -0.627138    21A     -0.622646
      22A     -0.588924    23A     -0.569625    24A     -0.553585
      25A     -0.550111    26A     -0.539843    27A     -0.515083
      28A     -0.498176    29A     -0.481246    30A     -0.443810
      31A     -0.409355    32A     -0.387906

  @DF-RHF Final Energy:  -400.02330145942045

   => Energetics <=

    Nuclear Repulsion Energy =            400.3129653534007844
    One-Electron Energy =               -1339.4706413447386240
    Two-Electron Energy =                 539.1343745319173877
    Total Energy =                       -400.0233014594203951
  Basis Set: (AUG-CC-PVTZ AUX)
    Blend: AUG-CC-PVTZ-RI
    Molecular point group: c1

    Geometry (in Angstrom), charge = 0, multiplicity = 1:

       Center              X                  Y                   Z               Mass
    ------------   -----------------  -----------------  -----------------  -----------------
         O           -2.490190707540    -0.638570080292    -0.163106767695    15.994914619570
         O           -0.004645707540    -1.423066080292    -0.390066767695    15.994914619570
         N            0.886922292460     0.350544919708     0.724758232305    14.003074004430
         C           -1.538056707540     0.283779919708     0.323022232305    12.000000000000
         C            2.259317292460    -0.119100080292     0.593965232305    12.000000000000
         C           -0.169633207540    -0.161305180292     0.282024532305    12.000000000000
         C           -1.643498707540     1.586829919708    -0.460184767695    12.000000000000
         C            2.868173292460     0.234262919708    -0.755748767695    12.000000000000
         H           -1.729899707540     0.474411919708     1.390216232305     1.007825032230
         H            2.835986292460     0.314152919708     1.415795232305     1.007825032230
         H            2.242325292460    -1.202645080292     0.728844232305     1.007825032230
         H            0.712013292460     1.259034919708     1.133320232305     1.007825032230
         H           -1.388997707540     1.402504919708    -1.506743767695     1.007825032230
         H           -0.984385707540     2.366132919708    -0.064407767695     1.007825032230
         H           -2.672920707540     1.947655919708    -0.412444767695     1.007825032230
         H            2.287073292460    -0.232373080292    -1.553416767695     1.007825032230
         H            2.874091292460     1.316375919708    -0.909280767695     1.007825032230
         H            3.898348292460    -0.128726080292    -0.818040767695     1.007825032230
         H           -1.952101707540    -1.391079080292    -0.493138767695     1.007825032230

  Basis Set: AUG-CC-PVTZ
    Blend: AUG-CC-PVTZ
  Basis Set: (AUG-CC-PVTZ AUX)
    Blend: AUG-CC-PVTZ-JKFIT
	 Reference Energy          =    -400.0233014594204519 [Eh]
	 Singles Energy            =      -0.0000000000000000 [Eh]
	 Same-Spin Energy          =      -0.4062461098377876 [Eh]
	 Opposite-Spin Energy      =      -1.3158157968839550 [Eh]
	 Correlation Energy        =      -1.7220619067217426 [Eh]
	 Total Energy              =    -401.7453633661422145 [Eh]

	 ================> DF-SCS-MP2 Energies <==================
	-----------------------------------------------------------
	 SCS Same-Spin Scale       =       0.3333333333333333 [-]
	 SCS Opposite-Spin Scale   =       1.2000000000000000 [-]
	 SCS Same-Spin Energy      =      -0.1354153699459292 [Eh]
	 SCS Opposite-Spin Energy  =      -1.5789789562607459 [Eh]
	 SCS Correlation Energy    =      -1.7143943262066752 [Eh]
	 SCS Total Energy          =    -401.7376957856271247 [Eh]
	-----------------------------------------------------------

  Dipole Moment: [D]
     X:     3.3210      Y:     4.1514      Z:     2.0542     Total:     5.6994

*** Psi4 exiting successfully. Buy a developer a beer!
