                               Psi4 1.3.2 release

  ==> Input File <==

--------------------------------------------------------------------------
#psi4
#
memory 32 gb

molecule  {
0 1
  O       -2.4925410    -0.6205970    -0.1535330
  O       -0.0069960    -1.4050930    -0.3804930
  N        0.8845720     0.3685180     0.7343320
  C       -1.5404070     0.3017530     0.3325960
  C        2.2724255    -0.0605763     0.6300147
  C       -0.1785015    -0.2858105     0.2149007
  C       -1.6458490     1.6048030    -0.4506110
  C        2.8658230     0.2522360    -0.7461750
  H       -1.7322500     0.4923850     1.3997900
  H        2.8336360     0.3321260     1.4253690
  H        2.2399750    -1.1846720     0.7384180
  H        0.7096630     1.2770080     1.1428940
  H       -1.3913480     1.4204780    -1.4971700
  H       -0.9867360     2.3841060    -0.0548340
  H       -2.6752710     1.9656290    -0.4028710
  H        2.2847230    -0.2144000    -1.5438430
  H        2.8717410     1.3343490    -0.8997070
  H        3.8959980    -0.1107530    -0.8084670
  H       -1.9544520    -1.3731060    -0.4835650
units angstrom
no_reorient  #important for SAPT in psi4, default
symmetry c1  #important for SAPT in psi4, default
}

set PROPERTIES_ORIGIN ["COM"]
properties('MP2/aug-cc-pvtz', properties = ['dipole'])
--------------------------------------------------------------------------

    Molecular point group: c1
  Charge       = 0
  Multiplicity = 1
  Basis Set: AUG-CC-PVTZ
    Blend: AUG-CC-PVTZ
  Basis Set: (AUG-CC-PVTZ AUX)
    Blend: AUG-CC-PVTZ-JKFIT

    Orbital Energies [Eh]
    ---------------------

    Doubly Occupied:

       1A    -20.550124     2A    -20.527655     3A    -15.602479
       4A    -11.362961     5A    -11.300357     6A    -11.275430
       7A    -11.233851     8A    -11.223828     9A     -1.385290
      10A     -1.339765    11A     -1.241483    12A     -1.059381
      13A     -1.014428    14A     -0.909955    15A     -0.855690
      16A     -0.789122    17A     -0.748732    18A     -0.678066
      19A     -0.654288    20A     -0.634403    21A     -0.612859
      22A     -0.589757    23A     -0.576062    24A     -0.564886
      25A     -0.543955    26A     -0.535333    27A     -0.521065
      28A     -0.512474    29A     -0.492756    30A     -0.446993
      31A     -0.438468    32A     -0.399820

  @DF-RHF Final Energy:  -400.07745371675821

   => Energetics <=

    Nuclear Repulsion Energy =            400.1583806888240247
    One-Electron Energy =               -1339.2282379510756982
    Two-Electron Energy =                 538.9924035454934028
    Total Energy =                       -400.0774537167582139
  Basis Set: (AUG-CC-PVTZ AUX)
    Blend: AUG-CC-PVTZ-RI
    Molecular point group: c1

    Geometry (in Angstrom), charge = 0, multiplicity = 1:

       Center              X                  Y                   Z               Mass
    ------------   -----------------  -----------------  -----------------  -----------------
         O           -2.491107063331    -0.628123009309    -0.157959278306    15.994914619570
         O           -0.005562063331    -1.412619009309    -0.384919278306    15.994914619570
         N            0.886005936669     0.360991990691     0.729905721694    14.003074004430
         C           -1.538973063331     0.294226990691     0.328169721694    12.000000000000
         C            2.273859436669    -0.068102309309     0.625588421694    12.000000000000
         C           -0.177067563331    -0.293336509309     0.210474421694    12.000000000000
         C           -1.644415063331     1.597276990691    -0.455037278306    12.000000000000
         C            2.867256936669     0.244709990691    -0.750601278306    12.000000000000
         H           -1.730816063331     0.484858990691     1.395363721694     1.007825032230
         H            2.835069936669     0.324599990691     1.420942721694     1.007825032230
         H            2.241408936669    -1.192198009309     0.733991721694     1.007825032230
         H            0.711096936669     1.269481990691     1.138467721694     1.007825032230
         H           -1.389914063331     1.412951990691    -1.501596278306     1.007825032230
         H           -0.985302063331     2.376579990691    -0.059260278306     1.007825032230
         H           -2.673837063331     1.958102990691    -0.407297278306     1.007825032230
         H            2.286156936669    -0.221926009309    -1.548269278306     1.007825032230
         H            2.873174936669     1.326822990691    -0.904133278306     1.007825032230
         H            3.897431936669    -0.118279009309    -0.812893278306     1.007825032230
         H           -1.953018063331    -1.380632009309    -0.487991278306     1.007825032230

  Basis Set: AUG-CC-PVTZ
    Blend: AUG-CC-PVTZ
  Basis Set: (AUG-CC-PVTZ AUX)
    Blend: AUG-CC-PVTZ-JKFIT
	 Reference Energy          =    -400.0774537167582139 [Eh]
	 Singles Energy            =      -0.0000000000000000 [Eh]
	 Same-Spin Energy          =      -0.4032712150287853 [Eh]
	 Opposite-Spin Energy      =      -1.3100095484887424 [Eh]
	 Correlation Energy        =      -1.7132807635175278 [Eh]
	 Total Energy              =    -401.7907344802757166 [Eh]

	 ================> DF-SCS-MP2 Energies <==================
	-----------------------------------------------------------
	 SCS Same-Spin Scale       =       0.3333333333333333 [-]
	 SCS Opposite-Spin Scale   =       1.2000000000000000 [-]
	 SCS Same-Spin Energy      =      -0.1344237383429284 [Eh]
	 SCS Opposite-Spin Energy  =      -1.5720114581864908 [Eh]
	 SCS Correlation Energy    =      -1.7064351965294193 [Eh]
	 SCS Total Energy          =    -401.7838889132876261 [Eh]
	-----------------------------------------------------------

  Dipole Moment: [D]
     X:     2.8483      Y:     3.3531      Z:     1.6496     Total:     4.6986

*** Psi4 exiting successfully. Buy a developer a beer!
