                               Psi4 1.3.2 release

  ==> Input File <==

--------------------------------------------------------------------------
#psi4
#
memory 32 gb

molecule  {
0 1
  O       -2.4925410    -0.6205970    -0.1535330
  O       -0.0069960    -1.4050930    -0.3804930
  N        0.8845720     0.3685180     0.7343320
  C       -1.5404070     0.3017530     0.3325960
  C        2.2569670    -0.1011270     0.6035390
  C       -0.1649523    -0.3588411     0.2295703
  C       -1.6963089     1.6093721    -0.4344094
  C        2.8658230     0.2522360    -0.7461750
  H       -1.7322500     0.4923850     1.3997900
  H        2.8336360     0.3321260     1.4253690
  H        2.2399750    -1.1846720     0.7384180
  H        0.7096630     1.2770080     1.1428940
  H       -1.3913480     1.4204780    -1.4971700
  H       -0.9867360     2.3841060    -0.0548340
  H       -2.6752710     1.9656290    -0.4028710
  H        2.2847230    -0.2144000    -1.5438430
  H        2.8717410     1.3343490    -0.8997070
  H        3.8959980    -0.1107530    -0.8084670
  H       -1.9544520    -1.3731060    -0.4835650
units angstrom
no_reorient  #important for SAPT in psi4, default
symmetry c1  #important for SAPT in psi4, default
}

set PROPERTIES_ORIGIN ["COM"]
properties('MP2/aug-cc-pvtz', properties = ['dipole'])
--------------------------------------------------------------------------

    Molecular point group: c1
  Charge       = 0
  Multiplicity = 1
  Basis Set: AUG-CC-PVTZ
    Blend: AUG-CC-PVTZ
  Basis Set: (AUG-CC-PVTZ AUX)
    Blend: AUG-CC-PVTZ-JKFIT

    Orbital Energies [Eh]
    ---------------------

    Doubly Occupied:

       1A    -20.548294     2A    -20.539329     3A    -15.594973
       4A    -11.361330     5A    -11.298120     6A    -11.272085
       7A    -11.232194     8A    -11.221820     9A     -1.408516
      10A     -1.349636    11A     -1.240191    12A     -1.049911
      13A     -1.010740    14A     -0.903801    15A     -0.847492
      16A     -0.790349    17A     -0.744785    18A     -0.676320
      19A     -0.648758    20A     -0.644860    21A     -0.611942
      22A     -0.597732    23A     -0.578937    24A     -0.571581
      25A     -0.540524    26A     -0.527392    27A     -0.524861
      28A     -0.515386    29A     -0.501710    30A     -0.445335
      31A     -0.439158    32A     -0.401599

  @DF-RHF Final Energy:  -400.08345986251777

   => Energetics <=

    Nuclear Repulsion Energy =            400.2137356186769352
    One-Electron Energy =               -1339.3150729245169259
    Two-Electron Energy =                 539.0178774433221633
    Total Energy =                       -400.0834598625177705
  Basis Set: (AUG-CC-PVTZ AUX)
    Blend: AUG-CC-PVTZ-RI
    Molecular point group: c1

    Geometry (in Angstrom), charge = 0, multiplicity = 1:

       Center              X                  Y                   Z               Mass
    ------------   -----------------  -----------------  -----------------  -----------------
         O           -2.485739486610    -0.616949813098    -0.158409794706    15.994914619570
         O           -0.000194486610    -1.401445813098    -0.385369794706    15.994914619570
         N            0.891373513390     0.372165186902     0.729455205294    14.003074004430
         C           -1.533605486610     0.305400186902     0.327719205294    12.000000000000
         C            2.263768513390    -0.097479813098     0.598662205294    12.000000000000
         C           -0.158150786610    -0.355193913098     0.224693505294    12.000000000000
         C           -1.689507386610     1.613019286902    -0.439286194706    12.000000000000
         C            2.872624513390     0.255883186902    -0.751051794706    12.000000000000
         H           -1.725448486610     0.496032186902     1.394913205294     1.007825032230
         H            2.840437513390     0.335773186902     1.420492205294     1.007825032230
         H            2.246776513390    -1.181024813098     0.733541205294     1.007825032230
         H            0.716464513390     1.280655186902     1.138017205294     1.007825032230
         H           -1.384546486610     1.424125186902    -1.502046794706     1.007825032230
         H           -0.979934486610     2.387753186902    -0.059710794706     1.007825032230
         H           -2.668469486610     1.969276186902    -0.407747794706     1.007825032230
         H            2.291524513390    -0.210752813098    -1.548719794706     1.007825032230
         H            2.878542513390     1.337996186902    -0.904583794706     1.007825032230
         H            3.902799513390    -0.107105813098    -0.813343794706     1.007825032230
         H           -1.947650486610    -1.369458813098    -0.488441794706     1.007825032230

  Basis Set: AUG-CC-PVTZ
    Blend: AUG-CC-PVTZ
  Basis Set: (AUG-CC-PVTZ AUX)
    Blend: AUG-CC-PVTZ-JKFIT
	 Reference Energy          =    -400.0834598625177705 [Eh]
	 Singles Energy            =      -0.0000000000000000 [Eh]
	 Same-Spin Energy          =      -0.4018087937553921 [Eh]
	 Opposite-Spin Energy      =      -1.3073695290367249 [Eh]
	 Correlation Energy        =      -1.7091783227921169 [Eh]
	 Total Energy              =    -401.7926381853098974 [Eh]

	 ================> DF-SCS-MP2 Energies <==================
	-----------------------------------------------------------
	 SCS Same-Spin Scale       =       0.3333333333333333 [-]
	 SCS Opposite-Spin Scale   =       1.2000000000000000 [-]
	 SCS Same-Spin Energy      =      -0.1339362645851307 [Eh]
	 SCS Opposite-Spin Energy  =      -1.5688434348440699 [Eh]
	 SCS Correlation Energy    =      -1.7027796994292006 [Eh]
	 SCS Total Energy          =    -401.7862395619469567 [Eh]
	-----------------------------------------------------------

  Dipole Moment: [D]
     X:     2.7808      Y:     3.0037      Z:     1.5135     Total:     4.3641

*** Psi4 exiting successfully. Buy a developer a beer!
