                               Psi4 1.3.2 release

  ==> Input File <==

--------------------------------------------------------------------------
#psi4
#
memory 32 gb

molecule  {
0 1
  O       -2.5126457    -0.6222266    -0.1085658
  O       -0.0069960    -1.4050930    -0.3804930
  N        0.8845720     0.3685180     0.7343320
  C       -1.5404070     0.3017530     0.3325960
  C        2.2569670    -0.1011270     0.6035390
  C       -0.1490540    -0.3186880     0.1981930
  C       -1.6458490     1.6048030    -0.4506110
  C        2.8658230     0.2522360    -0.7461750
  H       -1.7619088     0.4680075     1.3981211
  H        2.8336360     0.3321260     1.4253690
  H        2.2399750    -1.1846720     0.7384180
  H        0.7096630     1.2770080     1.1428940
  H       -1.3913480     1.4204780    -1.4971700
  H       -0.9867360     2.3841060    -0.0548340
  H       -2.6752710     1.9656290    -0.4028710
  H        2.2847230    -0.2144000    -1.5438430
  H        2.8717410     1.3343490    -0.8997070
  H        3.8959980    -0.1107530    -0.8084670
  H       -1.9544520    -1.3731060    -0.4835650
units angstrom
no_reorient  #important for SAPT in psi4, default
symmetry c1  #important for SAPT in psi4, default
}

set PROPERTIES_ORIGIN ["COM"]
properties('MP2/aug-cc-pvtz', properties = ['dipole'])
--------------------------------------------------------------------------

    Molecular point group: c1
  Charge       = 0
  Multiplicity = 1
  Basis Set: AUG-CC-PVTZ
    Blend: AUG-CC-PVTZ
  Basis Set: (AUG-CC-PVTZ AUX)
    Blend: AUG-CC-PVTZ-JKFIT

    Orbital Energies [Eh]
    ---------------------

    Doubly Occupied:

       1A    -20.549787     2A    -20.534501     3A    -15.599367
       4A    -11.359938     5A    -11.297090     6A    -11.274356
       7A    -11.231556     8A    -11.223604     9A     -1.397688
      10A     -1.343312    11A     -1.246280    12A     -1.051899
      13A     -1.012383    14A     -0.902777    15A     -0.848623
      16A     -0.794372    17A     -0.743859    18A     -0.674353
      19A     -0.644342    20A     -0.641752    21A     -0.613345
      22A     -0.598365    23A     -0.576964    24A     -0.563858
      25A     -0.542840    26A     -0.533211    27A     -0.522112
      28A     -0.514033    29A     -0.502653    30A     -0.443943
      31A     -0.436964    32A     -0.404089

  @DF-RHF Final Energy:  -400.08496752187483

   => Energetics <=

    Nuclear Repulsion Energy =            400.1909975153574237
    One-Electron Energy =               -1339.3035013879884900
    Two-Electron Energy =                 539.0275363507563497
    Total Energy =                       -400.0849675218747734
  Basis Set: (AUG-CC-PVTZ AUX)
    Blend: AUG-CC-PVTZ-RI
    Molecular point group: c1

    Geometry (in Angstrom), charge = 0, multiplicity = 1:

       Center              X                  Y                   Z               Mass
    ------------   -----------------  -----------------  -----------------  -----------------
         O           -2.509643626649    -0.621794118564    -0.114694892661    15.994914619570
         O           -0.003993926649    -1.404660518564    -0.386622092661    15.994914619570
         N            0.887574073351     0.368950481436     0.728202907339    14.003074004430
         C           -1.537404926649     0.302185481436     0.326466907339    12.000000000000
         C            2.259969073351    -0.100694518564     0.597409907339    12.000000000000
         C           -0.146051926649    -0.318255518564     0.192063907339    12.000000000000
         C           -1.642846926649     1.605235481436    -0.456740092661    12.000000000000
         C            2.868825073351     0.252668481436    -0.752304092661    12.000000000000
         H           -1.758906726649     0.468439981436     1.391992007339     1.007825032230
         H            2.836638073351     0.332558481436     1.419239907339     1.007825032230
         H            2.242977073351    -1.184239518564     0.732288907339     1.007825032230
         H            0.712665073351     1.277440481436     1.136764907339     1.007825032230
         H           -1.388345926649     1.420910481436    -1.503299092661     1.007825032230
         H           -0.983733926649     2.384538481436    -0.060963092661     1.007825032230
         H           -2.672268926649     1.966061481436    -0.409000092661     1.007825032230
         H            2.287725073351    -0.213967518564    -1.549972092661     1.007825032230
         H            2.874743073351     1.334781481436    -0.905836092661     1.007825032230
         H            3.899000073351    -0.110320518564    -0.814596092661     1.007825032230
         H           -1.951449926649    -1.372673518564    -0.489694092661     1.007825032230

  Basis Set: AUG-CC-PVTZ
    Blend: AUG-CC-PVTZ
  Basis Set: (AUG-CC-PVTZ AUX)
    Blend: AUG-CC-PVTZ-JKFIT
	 Reference Energy          =    -400.0849675218748303 [Eh]
	 Singles Energy            =      -0.0000000000000000 [Eh]
	 Same-Spin Energy          =      -0.4025170390189463 [Eh]
	 Opposite-Spin Energy      =      -1.3086427578444444 [Eh]
	 Correlation Energy        =      -1.7111597968633907 [Eh]
	 Total Energy              =    -401.7961273187382290 [Eh]

	 ================> DF-SCS-MP2 Energies <==================
	-----------------------------------------------------------
	 SCS Same-Spin Scale       =       0.3333333333333333 [-]
	 SCS Opposite-Spin Scale   =       1.2000000000000000 [-]
	 SCS Same-Spin Energy      =      -0.1341723463396488 [Eh]
	 SCS Opposite-Spin Energy  =      -1.5703713094133331 [Eh]
	 SCS Correlation Energy    =      -1.7045436557529818 [Eh]
	 SCS Total Energy          =    -401.7895111776277872 [Eh]
	-----------------------------------------------------------

  Dipole Moment: [D]
     X:     2.9603      Y:     3.1635      Z:     1.4770     Total:     4.5774

*** Psi4 exiting successfully. Buy a developer a beer!
