                               Psi4 1.3.2 release

  ==> Input File <==

--------------------------------------------------------------------------
#psi4
#
memory 32 gb

molecule  {
0 1
  O       -2.4925410    -0.6205970    -0.1535330
  O       -0.0069960    -1.4050930    -0.3804930
  N        0.8831908     0.3486990     0.7811250
  C       -1.5404070     0.3017530     0.3325960
  C        2.2569670    -0.1011270     0.6035390
  C       -0.1490540    -0.3186880     0.1981930
  C       -1.6458490     1.6048030    -0.4506110
  C        2.9108396     0.2283940    -0.7310641
  H       -1.7322500     0.4923850     1.3997900
  H        2.8336360     0.3321260     1.4253690
  H        2.2399750    -1.1846720     0.7384180
  H        0.7096630     1.2770080     1.1428940
  H       -1.3913480     1.4204780    -1.4971700
  H       -0.9867360     2.3841060    -0.0548340
  H       -2.6752710     1.9656290    -0.4028710
  H        2.2847230    -0.2144000    -1.5438430
  H        2.8717410     1.3343490    -0.8997070
  H        3.8959980    -0.1107530    -0.8084670
  H       -1.9544520    -1.3731060    -0.4835650
units angstrom
no_reorient  #important for SAPT in psi4, default
symmetry c1  #important for SAPT in psi4, default
}

set PROPERTIES_ORIGIN ["COM"]
properties('MP2/aug-cc-pvtz', properties = ['dipole'])
--------------------------------------------------------------------------

    Molecular point group: c1
  Charge       = 0
  Multiplicity = 1
  Basis Set: AUG-CC-PVTZ
    Blend: AUG-CC-PVTZ
  Basis Set: (AUG-CC-PVTZ AUX)
    Blend: AUG-CC-PVTZ-JKFIT

    Orbital Energies [Eh]
    ---------------------

    Doubly Occupied:

       1A    -20.549266     2A    -20.535796     3A    -15.599946
       4A    -11.360878     5A    -11.298928     6A    -11.273256
       7A    -11.231862     8A    -11.224596     9A     -1.399145
      10A     -1.347318    11A     -1.244525    12A     -1.052520
      13A     -1.013718    14A     -0.904239    15A     -0.848861
      16A     -0.792439    17A     -0.745157    18A     -0.676413
      19A     -0.646999    20A     -0.641525    21A     -0.614581
      22A     -0.595375    23A     -0.581025    24A     -0.565317
      25A     -0.550281    26A     -0.535737    27A     -0.519556
      28A     -0.514233    29A     -0.493183    30A     -0.446319
      31A     -0.437657    32A     -0.404993

  @DF-RHF Final Energy:  -400.08371114662964

   => Energetics <=

    Nuclear Repulsion Energy =            399.8960592977589386
    One-Electron Energy =               -1338.6682528607759650
    Two-Electron Energy =                 538.6884824163873873
    Total Energy =                       -400.0837111466296392
  Basis Set: (AUG-CC-PVTZ AUX)
    Blend: AUG-CC-PVTZ-RI
    Molecular point group: c1

    Geometry (in Angstrom), charge = 0, multiplicity = 1:

       Center              X                  Y                   Z               Mass
    ------------   -----------------  -----------------  -----------------  -----------------
         O           -2.496989640737    -0.615782883515    -0.160678603719    15.994914619570
         O           -0.011444640737    -1.400278883515    -0.387638603719    15.994914619570
         N            0.878742159263     0.353513116485     0.773979396281    14.003074004430
         C           -1.544855640737     0.306567116485     0.325450396281    12.000000000000
         C            2.252518359263    -0.096312883515     0.596393396281    12.000000000000
         C           -0.153502640737    -0.313873883515     0.191047396281    12.000000000000
         C           -1.650297640737     1.609617116485    -0.457756603719    12.000000000000
         C            2.906390959263     0.233208116485    -0.738209703719    12.000000000000
         H           -1.736698640737     0.497199116485     1.392644396281     1.007825032230
         H            2.829187359263     0.336940116485     1.418223396281     1.007825032230
         H            2.235526359263    -1.179857883515     0.731272396281     1.007825032230
         H            0.705214359263     1.281822116485     1.135748396281     1.007825032230
         H           -1.395796640737     1.425292116485    -1.504315603719     1.007825032230
         H           -0.991184640737     2.388920116485    -0.061979603719     1.007825032230
         H           -2.679719640737     1.970443116485    -0.410016603719     1.007825032230
         H            2.280274359263    -0.209585883515    -1.550988603719     1.007825032230
         H            2.867292359263     1.339163116485    -0.906852603719     1.007825032230
         H            3.891549359263    -0.105938883515    -0.815612603719     1.007825032230
         H           -1.958900640737    -1.368291883515    -0.490710603719     1.007825032230

  Basis Set: AUG-CC-PVTZ
    Blend: AUG-CC-PVTZ
  Basis Set: (AUG-CC-PVTZ AUX)
    Blend: AUG-CC-PVTZ-JKFIT
	 Reference Energy          =    -400.0837111466296392 [Eh]
	 Singles Energy            =      -0.0000000000000000 [Eh]
	 Same-Spin Energy          =      -0.4021053597396577 [Eh]
	 Opposite-Spin Energy      =      -1.3079046119095861 [Eh]
	 Correlation Energy        =      -1.7100099716492438 [Eh]
	 Total Energy              =    -401.7937211182788815 [Eh]

	 ================> DF-SCS-MP2 Energies <==================
	-----------------------------------------------------------
	 SCS Same-Spin Scale       =       0.3333333333333333 [-]
	 SCS Opposite-Spin Scale   =       1.2000000000000000 [-]
	 SCS Same-Spin Energy      =      -0.1340351199132192 [Eh]
	 SCS Opposite-Spin Energy  =      -1.5694855342915033 [Eh]
	 SCS Correlation Energy    =      -1.7035206542047225 [Eh]
	 SCS Total Energy          =    -401.7872318008343768 [Eh]
	-----------------------------------------------------------

  Dipole Moment: [D]
     X:     2.8523      Y:     3.1311      Z:     1.4390     Total:     4.4732

*** Psi4 exiting successfully. Buy a developer a beer!
