                               Psi4 1.3.2 release

  ==> Input File <==

--------------------------------------------------------------------------
#psi4
#
memory 32 gb

molecule  {
0 1
  O       -2.4925410    -0.6205970    -0.1535330
  O       -0.0069960    -1.4050930    -0.3804930
  N        0.8845720     0.3685180     0.7343320
  C       -1.5404070     0.3017530     0.3325960
  C        2.2569670    -0.1011270     0.6035390
  C       -0.1490540    -0.3186880     0.1981930
  C       -1.6458490     1.6048030    -0.4506110
  C        2.8658230     0.2522360    -0.7461750
  H       -1.7148245     0.4750695     1.3028543
  H        2.8336360     0.3321260     1.4253690
  H        2.2399750    -1.1846720     0.7384180
  H        0.7096630     1.2770080     1.1428940
  H       -1.3913480     1.4204780    -1.4971700
  H       -0.9867360     2.3841060    -0.0548340
  H       -2.6752710     1.9656290    -0.4028710
  H        2.2847230    -0.2144000    -1.5438430
  H        2.8717410     1.3343490    -0.8997070
  H        3.8959980    -0.1107530    -0.8084670
  H       -1.9544520    -1.3731060    -0.4835650
units angstrom
no_reorient  #important for SAPT in psi4, default
symmetry c1  #important for SAPT in psi4, default
}

set PROPERTIES_ORIGIN ["COM"]
properties('MP2/aug-cc-pvtz', properties = ['dipole'])
--------------------------------------------------------------------------

    Molecular point group: c1
  Charge       = 0
  Multiplicity = 1
  Basis Set: AUG-CC-PVTZ
    Blend: AUG-CC-PVTZ
  Basis Set: (AUG-CC-PVTZ AUX)
    Blend: AUG-CC-PVTZ-JKFIT

    Orbital Energies [Eh]
    ---------------------

    Doubly Occupied:

       1A    -20.546710     2A    -20.532876     3A    -15.599136
       4A    -11.358215     5A    -11.285642     6A    -11.274111
       7A    -11.230215     8A    -11.223320     9A     -1.397863
      10A     -1.345738    11A     -1.246000    12A     -1.055639
      13A     -1.014134    14A     -0.904591    15A     -0.854363
      16A     -0.795915    17A     -0.748933    18A     -0.681306
      19A     -0.651719    20A     -0.641715    21A     -0.613531
      22A     -0.597665    23A     -0.576551    24A     -0.563108
      25A     -0.542920    26A     -0.536984    27A     -0.521193
      28A     -0.514764    29A     -0.502102    30A     -0.448406
      31A     -0.435955    32A     -0.403915

  @DF-RHF Final Energy:  -400.08260540526015

   => Energetics <=

    Nuclear Repulsion Energy =            401.1898850036638464
    One-Electron Energy =               -1341.2545084586565736
    Two-Electron Energy =                 539.9820180497324600
    Total Energy =                       -400.0826054052602103
  Basis Set: (AUG-CC-PVTZ AUX)
    Blend: AUG-CC-PVTZ-RI
    Molecular point group: c1

    Geometry (in Angstrom), charge = 0, multiplicity = 1:

       Center              X                  Y                   Z               Mass
    ------------   -----------------  -----------------  -----------------  -----------------
         O           -2.492690864773    -0.620447938984    -0.152698769269    15.994914619570
         O           -0.007145864773    -1.404943938984    -0.379658769269    15.994914619570
         N            0.884422135227     0.368667061016     0.735166230731    14.003074004430
         C           -1.540556864773     0.301902061016     0.333430230731    12.000000000000
         C            2.256817135227    -0.100977938984     0.604373230731    12.000000000000
         C           -0.149203864773    -0.318538938984     0.199027230731    12.000000000000
         C           -1.645998864773     1.604952061016    -0.449776769269    12.000000000000
         C            2.865673135227     0.252385061016    -0.745340769269    12.000000000000
         H           -1.714974364773     0.475218561016     1.303688530731     1.007825032230
         H            2.833486135227     0.332275061016     1.426203230731     1.007825032230
         H            2.239825135227    -1.184522938984     0.739252230731     1.007825032230
         H            0.709513135227     1.277157061016     1.143728230731     1.007825032230
         H           -1.391497864773     1.420627061016    -1.496335769269     1.007825032230
         H           -0.986885864773     2.384255061016    -0.053999769269     1.007825032230
         H           -2.675420864773     1.965778061016    -0.402036769269     1.007825032230
         H            2.284573135227    -0.214250938984    -1.543008769269     1.007825032230
         H            2.871591135227     1.334498061016    -0.898872769269     1.007825032230
         H            3.895848135227    -0.110603938984    -0.807632769269     1.007825032230
         H           -1.954601864773    -1.372956938984    -0.482730769269     1.007825032230

  Basis Set: AUG-CC-PVTZ
    Blend: AUG-CC-PVTZ
  Basis Set: (AUG-CC-PVTZ AUX)
    Blend: AUG-CC-PVTZ-JKFIT
	 Reference Energy          =    -400.0826054052601535 [Eh]
	 Singles Energy            =      -0.0000000000000000 [Eh]
	 Same-Spin Energy          =      -0.4020083779768897 [Eh]
	 Opposite-Spin Energy      =      -1.3070694681449726 [Eh]
	 Correlation Energy        =      -1.7090778461218623 [Eh]
	 Total Energy              =    -401.7916832513820395 [Eh]

	 ================> DF-SCS-MP2 Energies <==================
	-----------------------------------------------------------
	 SCS Same-Spin Scale       =       0.3333333333333333 [-]
	 SCS Opposite-Spin Scale   =       1.2000000000000000 [-]
	 SCS Same-Spin Energy      =      -0.1340027926589632 [Eh]
	 SCS Opposite-Spin Energy  =      -1.5684833617739671 [Eh]
	 SCS Correlation Energy    =      -1.7024861544329304 [Eh]
	 SCS Total Energy          =    -401.7850915596930577 [Eh]
	-----------------------------------------------------------

  Dipole Moment: [D]
     X:     2.9202      Y:     3.1712      Z:     1.6127     Total:     4.6027

*** Psi4 exiting successfully. Buy a developer a beer!
