                               Psi4 1.4a3.dev225

  ==> Input File <==

--------------------------------------------------------------------------
#psi4
#
memory 32 gb

molecule  {
0 1
  O       -2.5334200    -0.7491890    -0.0380440
  O       -0.0309920    -1.3916750    -0.5246560
  N        0.8474210     0.2516040     0.7908210
  C       -1.5793960     0.2040340     0.3844480
  C        2.2299320    -0.1523350     0.5631470
  C       -0.1845376    -0.3700431     0.1963148
  C       -1.7305020     1.4971750    -0.4144490
  C        2.7876300     0.3918150    -0.7462470
  H       -1.7371730     0.4054880     1.4537200
  H        2.8183710     0.1913570     1.4185970
  H        2.2480760    -1.2444890     0.5585260
  H        0.6595560     1.1005830     1.3085070
  H       -1.5202540     1.2971370    -1.4686150
  H       -1.0543700     2.2823790    -0.0604110
  H       -2.7592110     1.8535180    -0.3272230
  H        2.1936920     0.0168210    -1.5822170
  H        2.7616940     1.4848860    -0.7566670
  H        3.8242090     0.0700520    -0.8849050
  H       -2.0046360    -1.4186050    -0.5240660
units angstrom
no_reorient  #important for SAPT in psi4, default
symmetry c1  #important for SAPT in psi4, default
}

set PROPERTIES_ORIGIN ["COM"]
properties('MP2/aug-cc-pvtz', properties = ['dipole'])
--------------------------------------------------------------------------

    Molecular point group: c1
  Charge       = 0
  Multiplicity = 1
  Basis Set: AUG-CC-PVTZ
    Blend: AUG-CC-PVTZ
  Basis Set: (AUG-CC-PVTZ AUX)
    Blend: AUG-CC-PVTZ-JKFIT

    Orbital Energies [Eh]
    ---------------------

    Doubly Occupied:

       1A    -20.549574     2A    -20.528882     3A    -15.602349
       4A    -11.359583     5A    -11.299184     6A    -11.275900
       7A    -11.231322     8A    -11.224638     9A     -1.389094
      10A     -1.343494    11A     -1.246327    12A     -1.054146
      13A     -1.014439    14A     -0.904574    15A     -0.850583
      16A     -0.795341    17A     -0.745503    18A     -0.675410
      19A     -0.645122    20A     -0.635452    21A     -0.615068
      22A     -0.596325    23A     -0.580453    24A     -0.565252
      25A     -0.542540    26A     -0.533442    27A     -0.518395
      28A     -0.510629    29A     -0.502453    30A     -0.446862
      31A     -0.433950    32A     -0.403697

  @DF-RHF Final Energy:  -400.08548019362667

   => Energetics <=

    Nuclear Repulsion Energy =            400.3284345360540328
    One-Electron Energy =               -1339.5878675427902635
    Two-Electron Energy =                 539.1739528131095085
    Total Energy =                       -400.0854801936267222
  Basis Set: (AUG-CC-PVTZ AUX)
    Blend: AUG-CC-PVTZ-RI
    Molecular point group: c1

    Geometry (in Angstrom), charge = 0, multiplicity = 1:

       Center              X                  Y                   Z               Mass
    ------------   -----------------  -----------------  -----------------  -----------------
         O           -2.487287964061    -0.699773012893    -0.046590635911    15.994914619570
         O            0.015140035939    -1.342259012893    -0.533202635911    15.994914619570
         N            0.893553035939     0.301019987107     0.782274364089    14.003074004430
         C           -1.533263964061     0.253449987107     0.375901364089    12.000000000000
         C            2.276064035939    -0.102919012893     0.554600364089    12.000000000000
         C           -0.138405564061    -0.320627112893     0.187768164089    12.000000000000
         C           -1.684369964061     1.546590987107    -0.422995635911    12.000000000000
         C            2.833762035939     0.441230987107    -0.754793635911    12.000000000000
         H           -1.691040964061     0.454903987107     1.445173364089     1.007825032230
         H            2.864503035939     0.240772987107     1.410050364089     1.007825032230
         H            2.294208035939    -1.195073012893     0.549979364089     1.007825032230
         H            0.705688035939     1.149998987107     1.299960364089     1.007825032230
         H           -1.474121964061     1.346552987107    -1.477161635911     1.007825032230
         H           -1.008237964061     2.331794987107    -0.068957635911     1.007825032230
         H           -2.713078964061     1.902933987107    -0.335769635911     1.007825032230
         H            2.239824035939     0.066236987107    -1.590763635911     1.007825032230
         H            2.807826035939     1.534301987107    -0.765213635911     1.007825032230
         H            3.870341035939     0.119467987107    -0.893451635911     1.007825032230
         H           -1.958503964061    -1.369189012893    -0.532612635911     1.007825032230

  Basis Set: AUG-CC-PVTZ
    Blend: AUG-CC-PVTZ
  Basis Set: (AUG-CC-PVTZ AUX)
    Blend: AUG-CC-PVTZ-JKFIT
	 Reference Energy          =    -400.0854801936266654 [Eh]
	 Singles Energy            =      -0.0000000000000000 [Eh]
	 Same-Spin Energy          =      -0.4024464368662554 [Eh]
	 Opposite-Spin Energy      =      -1.3086049620619313 [Eh]
	 Correlation Energy        =      -1.7110513989281868 [Eh]
	 Total Energy              =    -401.7965315925548566 [Eh]

	 ================> DF-SCS-MP2 Energies <==================
	-----------------------------------------------------------
	 SCS Same-Spin Scale       =       0.3333333333333333 [-]
	 SCS Opposite-Spin Scale   =       1.2000000000000000 [-]
	 SCS Same-Spin Energy      =      -0.1341488122887518 [Eh]
	 SCS Opposite-Spin Energy  =      -1.5703259544743176 [Eh]
	 SCS Correlation Energy    =      -1.7044747667630693 [Eh]
	 SCS Total Energy          =    -401.7899549603897071 [Eh]
	-----------------------------------------------------------

  Dipole Moment: [D]
     X:     2.9138      Y:     3.2311      Z:     1.6745     Total:     4.6620

*** Psi4 exiting successfully. Buy a developer a beer!
