                               Psi4 1.3.2 release

  ==> Input File <==

--------------------------------------------------------------------------
#psi4
#
memory 32 gb

molecule  {
0 1
  O       -2.4925410    -0.6205970    -0.1535330
  O       -0.0069960    -1.4050930    -0.3804930
  N        0.8845720     0.3685180     0.7343320
  C       -1.5223907     0.2862295     0.3261380
  C        2.2569670    -0.1011270     0.6035390
  C       -0.1490540    -0.3186880     0.1981930
  C       -1.6458490     1.6048030    -0.4506110
  C        2.8658230     0.2522360    -0.7461750
  H       -1.7322500     0.4923850     1.3997900
  H        2.8336360     0.3321260     1.4253690
  H        2.2399750    -1.1846720     0.7384180
  H        0.7096630     1.2770080     1.1428940
  H       -1.3913480     1.4204780    -1.4971700
  H       -0.9867360     2.3841060    -0.0548340
  H       -2.6752710     1.9656290    -0.4028710
  H        2.2847230    -0.2144000    -1.5438430
  H        2.8717410     1.3343490    -0.8997070
  H        3.8959980    -0.1107530    -0.8084670
  H       -1.9402147    -1.3647801    -0.4788911
units angstrom
no_reorient  #important for SAPT in psi4, default
symmetry c1  #important for SAPT in psi4, default
}

set PROPERTIES_ORIGIN ["COM"]
properties('MP2/aug-cc-pvtz', properties = ['dipole'])
--------------------------------------------------------------------------

    Molecular point group: c1
  Charge       = 0
  Multiplicity = 1
  Basis Set: AUG-CC-PVTZ
    Blend: AUG-CC-PVTZ
  Basis Set: (AUG-CC-PVTZ AUX)
    Blend: AUG-CC-PVTZ-JKFIT

    Orbital Energies [Eh]
    ---------------------

    Doubly Occupied:

       1A    -20.549411     2A    -20.534078     3A    -15.599331
       4A    -11.359375     5A    -11.298091     6A    -11.274465
       7A    -11.231795     8A    -11.223556     9A     -1.400528
      10A     -1.347671    11A     -1.246660    12A     -1.053401
      13A     -1.011655    14A     -0.905436    15A     -0.849863
      16A     -0.794319    17A     -0.746444    18A     -0.676662
      19A     -0.646864    20A     -0.642009    21A     -0.613977
      22A     -0.598190    23A     -0.574412    24A     -0.563267
      25A     -0.544363    26A     -0.533288    27A     -0.521846
      28A     -0.517404    29A     -0.502605    30A     -0.443026
      31A     -0.439879    32A     -0.403958

  @DF-RHF Final Energy:  -400.08675842662211

   => Energetics <=

    Nuclear Repulsion Energy =            400.9695771835250753
    One-Electron Energy =               -1340.8170139154765366
    Two-Electron Energy =                 539.7606783053294066
    Total Energy =                       -400.0867584266220547
  Basis Set: (AUG-CC-PVTZ AUX)
    Blend: AUG-CC-PVTZ-RI
    Molecular point group: c1

    Geometry (in Angstrom), charge = 0, multiplicity = 1:

       Center              X                  Y                   Z               Mass
    ------------   -----------------  -----------------  -----------------  -----------------
         O           -2.494509999640    -0.619077582348    -0.152911520513    15.994914619570
         O           -0.008964999640    -1.403573582348    -0.379871520513    15.994914619570
         N            0.882603000360     0.370037417652     0.734953479487    14.003074004430
         C           -1.524359699640     0.287748917652     0.326759479487    12.000000000000
         C            2.254998000360    -0.099607582348     0.604160479487    12.000000000000
         C           -0.151022999640    -0.317168582348     0.198814479487    12.000000000000
         C           -1.647817999640     1.606322417652    -0.449989520513    12.000000000000
         C            2.863854000360     0.253755417652    -0.745553520513    12.000000000000
         H           -1.734218999640     0.493904417652     1.400411479487     1.007825032230
         H            2.831667000360     0.333645417652     1.425990479487     1.007825032230
         H            2.238006000360    -1.183152582348     0.739039479487     1.007825032230
         H            0.707694000360     1.278527417652     1.143515479487     1.007825032230
         H           -1.393316999640     1.421997417652    -1.496548520513     1.007825032230
         H           -0.988704999640     2.385625417652    -0.054212520513     1.007825032230
         H           -2.677239999640     1.967148417652    -0.402249520513     1.007825032230
         H            2.282754000360    -0.212880582348    -1.543221520513     1.007825032230
         H            2.869772000360     1.335868417652    -0.899085520513     1.007825032230
         H            3.894029000360    -0.109233582348    -0.807845520513     1.007825032230
         H           -1.942183699640    -1.363260682348    -0.478269620513     1.007825032230

  Basis Set: AUG-CC-PVTZ
    Blend: AUG-CC-PVTZ
  Basis Set: (AUG-CC-PVTZ AUX)
    Blend: AUG-CC-PVTZ-JKFIT
	 Reference Energy          =    -400.0867584266221115 [Eh]
	 Singles Energy            =      -0.0000000000000000 [Eh]
	 Same-Spin Energy          =      -0.4022895117367686 [Eh]
	 Opposite-Spin Energy      =      -1.3079688211787128 [Eh]
	 Correlation Energy        =      -1.7102583329154815 [Eh]
	 Total Energy              =    -401.7970167595375983 [Eh]

	 ================> DF-SCS-MP2 Energies <==================
	-----------------------------------------------------------
	 SCS Same-Spin Scale       =       0.3333333333333333 [-]
	 SCS Opposite-Spin Scale   =       1.2000000000000000 [-]
	 SCS Same-Spin Energy      =      -0.1340965039122562 [Eh]
	 SCS Opposite-Spin Energy  =      -1.5695625854144553 [Eh]
	 SCS Correlation Energy    =      -1.7036590893267114 [Eh]
	 SCS Total Energy          =    -401.7904175159488318 [Eh]
	-----------------------------------------------------------

  Dipole Moment: [D]
     X:     2.9236      Y:     3.1492      Z:     1.5619     Total:     4.5721

*** Psi4 exiting successfully. Buy a developer a beer!
