                               Psi4 1.3.2 release

  ==> Input File <==

--------------------------------------------------------------------------
#psi4
#
memory 32 gb

molecule  {
0 1
  O       -2.4925410    -0.6205970    -0.1535330
  O       -0.0069960    -1.4050930    -0.3804930
  N        0.8876253     0.3877648     0.6873797
  C       -1.5404070     0.3017530     0.3325960
  C        2.2569670    -0.1011270     0.6035390
  C       -0.1490540    -0.3186880     0.1981930
  C       -1.6458490     1.6048030    -0.4506110
  C        2.8200646     0.2756475    -0.7596415
  H       -1.7322500     0.4923850     1.3997900
  H        2.8336360     0.3321260     1.4253690
  H        2.2399750    -1.1846720     0.7384180
  H        0.7096630     1.2770080     1.1428940
  H       -1.3913480     1.4204780    -1.4971700
  H       -0.9867360     2.3841060    -0.0548340
  H       -2.6752710     1.9656290    -0.4028710
  H        2.2847230    -0.2144000    -1.5438430
  H        2.8717410     1.3343490    -0.8997070
  H        3.8959980    -0.1107530    -0.8084670
  H       -1.9544520    -1.3731060    -0.4835650
units angstrom
no_reorient  #important for SAPT in psi4, default
symmetry c1  #important for SAPT in psi4, default
}

set PROPERTIES_ORIGIN ["COM"]
properties('MP2/aug-cc-pvtz', properties = ['dipole'])
--------------------------------------------------------------------------

    Molecular point group: c1
  Charge       = 0
  Multiplicity = 1
  Basis Set: AUG-CC-PVTZ
    Blend: AUG-CC-PVTZ
  Basis Set: (AUG-CC-PVTZ AUX)
    Blend: AUG-CC-PVTZ-JKFIT

    Orbital Energies [Eh]
    ---------------------

    Doubly Occupied:

       1A    -20.548158     2A    -20.531956     3A    -15.598213
       4A    -11.357791     5A    -11.297837     6A    -11.274955
       7A    -11.230556     8A    -11.222939     9A     -1.398011
      10A     -1.346308    11A     -1.246782    12A     -1.053262
      13A     -1.012040    14A     -0.901560    15A     -0.849863
      16A     -0.794367    17A     -0.744843    18A     -0.677298
      19A     -0.649117    20A     -0.642129    21A     -0.615719
      22A     -0.598552    23A     -0.575696    24A     -0.562909
      25A     -0.538841    26A     -0.528461    27A     -0.522716
      28A     -0.513327    29A     -0.506932    30A     -0.445392
      31A     -0.435259    32A     -0.402014

  @DF-RHF Final Energy:  -400.08392109037834

   => Energetics <=

    Nuclear Repulsion Energy =            401.3177321041936239
    One-Electron Energy =               -1341.5556974805956543
    Two-Electron Energy =                 540.1540442860236908
    Total Energy =                       -400.0839210903783396
  Basis Set: (AUG-CC-PVTZ AUX)
    Blend: AUG-CC-PVTZ-RI
    Molecular point group: c1

    Geometry (in Angstrom), charge = 0, multiplicity = 1:

       Center              X                  Y                   Z               Mass
    ------------   -----------------  -----------------  -----------------  -----------------
         O           -2.488216047214    -0.625298539543    -0.146537284814    15.994914619570
         O           -0.002671047214    -1.409794539543    -0.373497284814    15.994914619570
         N            0.891950252786     0.383063260457     0.694375415186    14.003074004430
         C           -1.536082047214     0.297051460457     0.339591715186    12.000000000000
         C            2.261291952786    -0.105828539543     0.610534715186    12.000000000000
         C           -0.144729047214    -0.323389539543     0.205188715186    12.000000000000
         C           -1.641524047214     1.600101460457    -0.443615284814    12.000000000000
         C            2.824389552786     0.270945960457    -0.752645784814    12.000000000000
         H           -1.727925047214     0.487683460457     1.406785715186     1.007825032230
         H            2.837960952786     0.327424460457     1.432364715186     1.007825032230
         H            2.244299952786    -1.189373539543     0.745413715186     1.007825032230
         H            0.713987952786     1.272306460457     1.149889715186     1.007825032230
         H           -1.387023047214     1.415776460457    -1.490174284814     1.007825032230
         H           -0.982411047214     2.379404460457    -0.047838284814     1.007825032230
         H           -2.670946047214     1.960927460457    -0.395875284814     1.007825032230
         H            2.289047952786    -0.219101539543    -1.536847284814     1.007825032230
         H            2.876065952786     1.329647460457    -0.892711284814     1.007825032230
         H            3.900322952786    -0.115454539543    -0.801471284814     1.007825032230
         H           -1.950127047214    -1.377807539543    -0.476569284814     1.007825032230

  Basis Set: AUG-CC-PVTZ
    Blend: AUG-CC-PVTZ
  Basis Set: (AUG-CC-PVTZ AUX)
    Blend: AUG-CC-PVTZ-JKFIT
	 Reference Energy          =    -400.0839210903783396 [Eh]
	 Singles Energy            =      -0.0000000000000000 [Eh]
	 Same-Spin Energy          =      -0.4023083661378817 [Eh]
	 Opposite-Spin Energy      =      -1.3080231080303368 [Eh]
	 Correlation Energy        =      -1.7103314741682185 [Eh]
	 Total Energy              =    -401.7942525645465821 [Eh]

	 ================> DF-SCS-MP2 Energies <==================
	-----------------------------------------------------------
	 SCS Same-Spin Scale       =       0.3333333333333333 [-]
	 SCS Opposite-Spin Scale   =       1.2000000000000000 [-]
	 SCS Same-Spin Energy      =      -0.1341027887126272 [Eh]
	 SCS Opposite-Spin Energy  =      -1.5696277296364041 [Eh]
	 SCS Correlation Energy    =      -1.7037305183490312 [Eh]
	 SCS Total Energy          =    -401.7876516087273444 [Eh]
	-----------------------------------------------------------

  Dipole Moment: [D]
     X:     2.9116      Y:     3.1526      Z:     1.6779     Total:     4.6078

*** Psi4 exiting successfully. Buy a developer a beer!
