                               Psi4 1.3.2 release

  ==> Input File <==

--------------------------------------------------------------------------
#psi4
#
memory 32 gb

molecule  {
0 1
  O       -2.4925410    -0.6205970    -0.1535330
  O       -0.0069960    -1.4050930    -0.3804930
  N        0.8770839     0.3769250     0.7378626
  C       -1.5350948     0.3121067     0.3391303
  C        2.2569670    -0.1011270     0.6035390
  C       -0.1490540    -0.3186880     0.1981930
  C       -1.6458490     1.6048030    -0.4506110
  C        2.8658230     0.2522360    -0.7461750
  H       -1.7322500     0.4923850     1.3997900
  H        2.8336360     0.3321260     1.4253690
  H        2.2399750    -1.1846720     0.7384180
  H        0.7096630     1.2770080     1.1428940
  H       -1.3913480     1.4204780    -1.4971700
  H       -0.9867360     2.3841060    -0.0548340
  H       -2.6752710     1.9656290    -0.4028710
  H        2.2847230    -0.2144000    -1.5438430
  H        2.8717410     1.3343490    -0.8997070
  H        3.8959980    -0.1107530    -0.8084670
  H       -1.9544520    -1.3731060    -0.4835650
units angstrom
no_reorient  #important for SAPT in psi4, default
symmetry c1  #important for SAPT in psi4, default
}

set PROPERTIES_ORIGIN ["COM"]
properties('MP2/aug-cc-pvtz', properties = ['dipole'])
--------------------------------------------------------------------------

    Molecular point group: c1
  Charge       = 0
  Multiplicity = 1
  Basis Set: AUG-CC-PVTZ
    Blend: AUG-CC-PVTZ
  Basis Set: (AUG-CC-PVTZ AUX)
    Blend: AUG-CC-PVTZ-JKFIT

    Orbital Energies [Eh]
    ---------------------

    Doubly Occupied:

       1A    -20.546761     2A    -20.534115     3A    -15.598328
       4A    -11.359499     5A    -11.297335     6A    -11.274913
       7A    -11.231143     8A    -11.223756     9A     -1.397080
      10A     -1.341974    11A     -1.245708    12A     -1.053471
      13A     -1.013695    14A     -0.902671    15A     -0.848816
      16A     -0.797228    17A     -0.742766    18A     -0.675851
      19A     -0.646091    20A     -0.641642    21A     -0.612911
      22A     -0.598695    23A     -0.575978    24A     -0.563408
      25A     -0.541864    26A     -0.533596    27A     -0.521658
      28A     -0.513595    29A     -0.502401    30A     -0.446762
      31A     -0.436330    32A     -0.404655

  @DF-RHF Final Energy:  -400.08736394958470

   => Energetics <=

    Nuclear Repulsion Energy =            400.4522812893138166
    One-Electron Energy =               -1339.8299001204243268
    Two-Electron Energy =                 539.2902548815259252
    Total Energy =                       -400.0873639495846419
  Basis Set: (AUG-CC-PVTZ AUX)
    Blend: AUG-CC-PVTZ-RI
    Molecular point group: c1

    Geometry (in Angstrom), charge = 0, multiplicity = 1:

       Center              X                  Y                   Z               Mass
    ------------   -----------------  -----------------  -----------------  -----------------
         O           -2.492189734047    -0.622663701716    -0.154625204575    15.994914619570
         O           -0.006644734047    -1.407159701716    -0.381585204575    15.994914619570
         N            0.877435165953     0.374858298284     0.736770395425    14.003074004430
         C           -1.534743534047     0.310039998284     0.338038095425    12.000000000000
         C            2.257318265953    -0.103193701716     0.602446795425    12.000000000000
         C           -0.148702734047    -0.320754701716     0.197100795425    12.000000000000
         C           -1.645497734047     1.602736298284    -0.451703204575    12.000000000000
         C            2.866174265953     0.250169298284    -0.747267204575    12.000000000000
         H           -1.731898734047     0.490318298284     1.398697795425     1.007825032230
         H            2.833987265953     0.330059298284     1.424276795425     1.007825032230
         H            2.240326265953    -1.186738701716     0.737325795425     1.007825032230
         H            0.710014265953     1.274941298284     1.141801795425     1.007825032230
         H           -1.390996734047     1.418411298284    -1.498262204575     1.007825032230
         H           -0.986384734047     2.382039298284    -0.055926204575     1.007825032230
         H           -2.674919734047     1.963562298284    -0.403963204575     1.007825032230
         H            2.285074265953    -0.216466701716    -1.544935204575     1.007825032230
         H            2.872092265953     1.332282298284    -0.900799204575     1.007825032230
         H            3.896349265953    -0.112819701716    -0.809559204575     1.007825032230
         H           -1.954100734047    -1.375172701716    -0.484657204575     1.007825032230

  Basis Set: AUG-CC-PVTZ
    Blend: AUG-CC-PVTZ
  Basis Set: (AUG-CC-PVTZ AUX)
    Blend: AUG-CC-PVTZ-JKFIT
	 Reference Energy          =    -400.0873639495846987 [Eh]
	 Singles Energy            =      -0.0000000000000000 [Eh]
	 Same-Spin Energy          =      -0.4020514881485727 [Eh]
	 Opposite-Spin Energy      =      -1.3078331242763945 [Eh]
	 Correlation Energy        =      -1.7098846124249671 [Eh]
	 Total Energy              =    -401.7972485620096563 [Eh]

	 ================> DF-SCS-MP2 Energies <==================
	-----------------------------------------------------------
	 SCS Same-Spin Scale       =       0.3333333333333333 [-]
	 SCS Opposite-Spin Scale   =       1.2000000000000000 [-]
	 SCS Same-Spin Energy      =      -0.1340171627161909 [Eh]
	 SCS Opposite-Spin Energy  =      -1.5693997491316733 [Eh]
	 SCS Correlation Energy    =      -1.7034169118478641 [Eh]
	 SCS Total Energy          =    -401.7907808614325518 [Eh]
	-----------------------------------------------------------

  Dipole Moment: [D]
     X:     2.9543      Y:     3.1687      Z:     1.5663     Total:     4.6067

*** Psi4 exiting successfully. Buy a developer a beer!
