                               Psi4 1.3.2 release

  ==> Input File <==

--------------------------------------------------------------------------
#psi4
#
memory 32 gb

molecule  {
0 1
  O       -2.4712763    -0.6178437    -0.1979080
  O       -0.0069960    -1.4050930    -0.3804930
  N        0.8845720     0.3685180     0.7343320
  C       -1.5404070     0.3017530     0.3325960
  C        2.2569670    -0.1011270     0.6035390
  C       -0.1490540    -0.3186880     0.1981930
  C       -1.6458490     1.6048030    -0.4506110
  C        2.8658230     0.2522360    -0.7461750
  H       -1.7023574     0.5165302     1.4001587
  H        2.8336360     0.3321260     1.4253690
  H        2.2399750    -1.1846720     0.7384180
  H        0.7096630     1.2770080     1.1428940
  H       -1.3913480     1.4204780    -1.4971700
  H       -0.9867360     2.3841060    -0.0548340
  H       -2.6752710     1.9656290    -0.4028710
  H        2.2847230    -0.2144000    -1.5438430
  H        2.8717410     1.3343490    -0.8997070
  H        3.8959980    -0.1107530    -0.8084670
  H       -1.9544520    -1.3731060    -0.4835650
units angstrom
no_reorient  #important for SAPT in psi4, default
symmetry c1  #important for SAPT in psi4, default
}

set PROPERTIES_ORIGIN ["COM"]
properties('MP2/aug-cc-pvtz', properties = ['dipole'])
--------------------------------------------------------------------------

    Molecular point group: c1
  Charge       = 0
  Multiplicity = 1
  Basis Set: AUG-CC-PVTZ
    Blend: AUG-CC-PVTZ
  Basis Set: (AUG-CC-PVTZ AUX)
    Blend: AUG-CC-PVTZ-JKFIT

    Orbital Energies [Eh]
    ---------------------

    Doubly Occupied:

       1A    -20.547502     2A    -20.532281     3A    -15.598242
       4A    -11.358062     5A    -11.299286     6A    -11.273652
       7A    -11.230629     8A    -11.222936     9A     -1.399277
      10A     -1.349783    11A     -1.245302    12A     -1.053691
      13A     -1.013140    14A     -0.902743    15A     -0.849515
      16A     -0.793765    17A     -0.745999    18A     -0.680096
      19A     -0.651292    20A     -0.640573    21A     -0.613294
      22A     -0.597056    23A     -0.576989    24A     -0.563088
      25A     -0.543258    26A     -0.534433    27A     -0.520535
      28A     -0.514542    29A     -0.501593    30A     -0.447487
      31A     -0.435079    32A     -0.402973

  @DF-RHF Final Energy:  -400.08809412558236

   => Energetics <=

    Nuclear Repulsion Energy =            401.0773573577196771
    One-Electron Energy =               -1341.0547224379902218
    Two-Electron Energy =                 539.8892709546882998
    Total Energy =                       -400.0880941255823018
  Basis Set: (AUG-CC-PVTZ AUX)
    Blend: AUG-CC-PVTZ-RI
    Molecular point group: c1

    Geometry (in Angstrom), charge = 0, multiplicity = 1:

       Center              X                  Y                   Z               Mass
    ------------   -----------------  -----------------  -----------------  -----------------
         O           -2.474438590407    -0.618427682018    -0.191849018135    15.994914619570
         O           -0.010158290407    -1.405676982018    -0.374434018135    15.994914619570
         N            0.881409709593     0.367934017982     0.740390981865    14.003074004430
         C           -1.543569290407     0.301169017982     0.338654981865    12.000000000000
         C            2.253804709593    -0.101710982018     0.609597981865    12.000000000000
         C           -0.152216290407    -0.319271982018     0.204251981865    12.000000000000
         C           -1.649011290407     1.604219017982    -0.444552018135    12.000000000000
         C            2.862660709593     0.251652017982    -0.740116018135    12.000000000000
         H           -1.705519690407     0.515946217982     1.406217681865     1.007825032230
         H            2.830473709593     0.331542017982     1.431427981865     1.007825032230
         H            2.236812709593    -1.185255982018     0.744476981865     1.007825032230
         H            0.706500709593     1.276424017982     1.148952981865     1.007825032230
         H           -1.394510290407     1.419894017982    -1.491111018135     1.007825032230
         H           -0.989898290407     2.383522017982    -0.048775018135     1.007825032230
         H           -2.678433290407     1.965045017982    -0.396812018135     1.007825032230
         H            2.281560709593    -0.214983982018    -1.537784018135     1.007825032230
         H            2.868578709593     1.333765017982    -0.893648018135     1.007825032230
         H            3.892835709593    -0.111336982018    -0.802408018135     1.007825032230
         H           -1.957614290407    -1.373689982018    -0.477506018135     1.007825032230

  Basis Set: AUG-CC-PVTZ
    Blend: AUG-CC-PVTZ
  Basis Set: (AUG-CC-PVTZ AUX)
    Blend: AUG-CC-PVTZ-JKFIT
	 Reference Energy          =    -400.0880941255823586 [Eh]
	 Singles Energy            =      -0.0000000000000000 [Eh]
	 Same-Spin Energy          =      -0.4018242156011652 [Eh]
	 Opposite-Spin Energy      =      -1.3069411720416930 [Eh]
	 Correlation Energy        =      -1.7087653876428583 [Eh]
	 Total Energy              =    -401.7968595132252290 [Eh]

	 ================> DF-SCS-MP2 Energies <==================
	-----------------------------------------------------------
	 SCS Same-Spin Scale       =       0.3333333333333333 [-]
	 SCS Opposite-Spin Scale   =       1.2000000000000000 [-]
	 SCS Same-Spin Energy      =      -0.1339414052003884 [Eh]
	 SCS Opposite-Spin Energy  =      -1.5683294064500315 [Eh]
	 SCS Correlation Energy    =      -1.7022708116504199 [Eh]
	 SCS Total Energy          =    -401.7903649372327664 [Eh]
	-----------------------------------------------------------

  Dipole Moment: [D]
     X:     2.8399      Y:     3.1294      Z:     1.6426     Total:     4.5339

*** Psi4 exiting successfully. Buy a developer a beer!
