                               Psi4 1.3.2 release

  ==> Input File <==

--------------------------------------------------------------------------
#psi4
#
memory 32 gb

molecule  {
0 1
  O       -2.4925410    -0.6205970    -0.1535330
  O       -0.0069960    -1.4050930    -0.3804930
  N        0.8845720     0.3685180     0.7343320
  C       -1.5404070     0.3017530     0.3325960
  C        2.2569670    -0.1011270     0.6035390
  C       -0.1635537    -0.3009957     0.2039888
  C       -1.6458490     1.6048030    -0.4506110
  C        2.8658230     0.2522360    -0.7461750
  H       -1.7322500     0.4923850     1.3997900
  H        2.8336360     0.3321260     1.4253690
  H        2.2399750    -1.1846720     0.7384180
  H        0.6925734     1.2753963     1.1387802
  H       -1.3913480     1.4204780    -1.4971700
  H       -0.9867360     2.3841060    -0.0548340
  H       -2.6752710     1.9656290    -0.4028710
  H        2.2847230    -0.2144000    -1.5438430
  H        2.8717410     1.3343490    -0.8997070
  H        3.8959980    -0.1107530    -0.8084670
  H       -1.9544520    -1.3731060    -0.4835650
units angstrom
no_reorient  #important for SAPT in psi4, default
symmetry c1  #important for SAPT in psi4, default
}

set PROPERTIES_ORIGIN ["COM"]
properties('MP2/aug-cc-pvtz', properties = ['dipole'])
--------------------------------------------------------------------------

    Molecular point group: c1
  Charge       = 0
  Multiplicity = 1
  Basis Set: AUG-CC-PVTZ
    Blend: AUG-CC-PVTZ
  Basis Set: (AUG-CC-PVTZ AUX)
    Blend: AUG-CC-PVTZ-JKFIT

    Orbital Energies [Eh]
    ---------------------

    Doubly Occupied:

       1A    -20.549352     2A    -20.530329     3A    -15.600469
       4A    -11.360197     5A    -11.299340     6A    -11.275055
       7A    -11.232639     8A    -11.223336     9A     -1.390874
      10A     -1.343871    11A     -1.243867    12A     -1.056272
      13A     -1.014216    14A     -0.905870    15A     -0.851751
      16A     -0.791551    17A     -0.746290    18A     -0.677445
      19A     -0.649567    20A     -0.638151    21A     -0.613264
      22A     -0.595017    23A     -0.576905    24A     -0.564638
      25A     -0.543533    26A     -0.534657    27A     -0.517821
      28A     -0.513383    29A     -0.501138    30A     -0.446465
      31A     -0.437696    32A     -0.402282

  @DF-RHF Final Energy:  -400.08511682812701

   => Energetics <=

    Nuclear Repulsion Energy =            400.5693490835274702
    One-Electron Energy =               -1340.0544491942794139
    Two-Electron Energy =                 539.3999832826250440
    Total Energy =                       -400.0851168281269565
  Basis Set: (AUG-CC-PVTZ AUX)
    Blend: AUG-CC-PVTZ-RI
    Molecular point group: c1

    Geometry (in Angstrom), charge = 0, multiplicity = 1:

       Center              X                  Y                   Z               Mass
    ------------   -----------------  -----------------  -----------------  -----------------
         O           -2.490907610560    -0.622396489317    -0.154091827496    15.994914619570
         O           -0.005362610560    -1.406892489317    -0.381051827496    15.994914619570
         N            0.886205389440     0.366718510683     0.733773172504    14.003074004430
         C           -1.538773610560     0.299953510683     0.332037172504    12.000000000000
         C            2.258600389440    -0.102926489317     0.602980172504    12.000000000000
         C           -0.161920310560    -0.302795189317     0.203429972504    12.000000000000
         C           -1.644215610560     1.603003510683    -0.451169827496    12.000000000000
         C            2.867456389440     0.250436510683    -0.746733827496    12.000000000000
         H           -1.730616610560     0.490585510683     1.399231172504     1.007825032230
         H            2.835269389440     0.330326510683     1.424810172504     1.007825032230
         H            2.241608389440    -1.186471489317     0.737859172504     1.007825032230
         H            0.694206789440     1.273596810683     1.138221372504     1.007825032230
         H           -1.389714610560     1.418678510683    -1.497728827496     1.007825032230
         H           -0.985102610560     2.382306510683    -0.055392827496     1.007825032230
         H           -2.673637610560     1.963829510683    -0.403429827496     1.007825032230
         H            2.286356389440    -0.216199489317    -1.544401827496     1.007825032230
         H            2.873374389440     1.332549510683    -0.900265827496     1.007825032230
         H            3.897631389440    -0.112552489317    -0.809025827496     1.007825032230
         H           -1.952818610560    -1.374905489317    -0.484123827496     1.007825032230

  Basis Set: AUG-CC-PVTZ
    Blend: AUG-CC-PVTZ
  Basis Set: (AUG-CC-PVTZ AUX)
    Blend: AUG-CC-PVTZ-JKFIT
	 Reference Energy          =    -400.0851168281270134 [Eh]
	 Singles Energy            =      -0.0000000000000000 [Eh]
	 Same-Spin Energy          =      -0.4026467115927144 [Eh]
	 Opposite-Spin Energy      =      -1.3086929759440435 [Eh]
	 Correlation Energy        =      -1.7113396875367579 [Eh]
	 Total Energy              =    -401.7964565156637491 [Eh]

	 ================> DF-SCS-MP2 Energies <==================
	-----------------------------------------------------------
	 SCS Same-Spin Scale       =       0.3333333333333333 [-]
	 SCS Opposite-Spin Scale   =       1.2000000000000000 [-]
	 SCS Same-Spin Energy      =      -0.1342155705309048 [Eh]
	 SCS Opposite-Spin Energy  =      -1.5704315711328523 [Eh]
	 SCS Correlation Energy    =      -1.7046471416637570 [Eh]
	 SCS Total Energy          =    -401.7897639697907834 [Eh]
	-----------------------------------------------------------

  Dipole Moment: [D]
     X:     2.8616      Y:     3.2381      Z:     1.5870     Total:     4.6036

*** Psi4 exiting successfully. Buy a developer a beer!
