                               Psi4 1.3.2 release

  ==> Input File <==

--------------------------------------------------------------------------
#psi4
#
memory 32 gb

molecule  {
0 1
  O       -2.4925410    -0.6205970    -0.1535330
  O       -0.0069960    -1.4050930    -0.3804930
  N        0.8845720     0.3685180     0.7343320
  C       -1.5404070     0.3017530     0.3325960
  C        2.2569670    -0.1011270     0.6035390
  C       -0.1490540    -0.3186880     0.1981930
  C       -1.6458490     1.6048030    -0.4506110
  C        2.8658230     0.2522360    -0.7461750
  H       -1.7322500     0.4923850     1.3997900
  H        2.8336360     0.3321260     1.4253690
  H        2.2399750    -1.1846720     0.7384180
  H        0.7096630     1.2770080     1.1428940
  H       -1.3913480     1.4204780    -1.4971700
  H       -0.9867360     2.3841060    -0.0548340
  H       -2.6752710     1.9656290    -0.4028710
  H        2.2847230    -0.2144000    -1.5438430
  H        2.8717410     1.3343490    -0.8997070
  H        3.8959980    -0.1107530    -0.8084670
  H       -1.8996683    -1.4497201    -0.5171661
units angstrom
no_reorient  #important for SAPT in psi4, default
symmetry c1  #important for SAPT in psi4, default
}

set PROPERTIES_ORIGIN ["COM"]
properties('MP2/aug-cc-pvtz', properties = ['dipole'])
--------------------------------------------------------------------------

    Molecular point group: c1
  Charge       = 0
  Multiplicity = 1
  Basis Set: AUG-CC-PVTZ
    Blend: AUG-CC-PVTZ
  Basis Set: (AUG-CC-PVTZ AUX)
    Blend: AUG-CC-PVTZ-JKFIT

    Orbital Energies [Eh]
    ---------------------

    Doubly Occupied:

       1A    -20.550350     2A    -20.536137     3A    -15.599673
       4A    -11.359770     5A    -11.296164     6A    -11.274558
       7A    -11.229926     8A    -11.223796     9A     -1.397103
      10A     -1.329249    11A     -1.246815    12A     -1.050278
      13A     -1.010735    14A     -0.902310    15A     -0.846947
      16A     -0.794422    17A     -0.734499    18A     -0.674828
      19A     -0.642747    20A     -0.641267    21A     -0.613102
      22A     -0.598262    23A     -0.572755    24A     -0.561192
      25A     -0.541563    26A     -0.532405    27A     -0.522038
      28A     -0.504963    29A     -0.500850    30A     -0.440781
      31A     -0.438442    32A     -0.404537

  @DF-RHF Final Energy:  -400.07504870719237

   => Energetics <=

    Nuclear Repulsion Energy =            400.1928662648863337
    One-Electron Energy =               -1339.3909089974201834
    Two-Electron Energy =                 539.1229940253415407
    Total Energy =                       -400.0750487071923089
  Basis Set: (AUG-CC-PVTZ AUX)
    Blend: AUG-CC-PVTZ-RI
    Molecular point group: c1

    Geometry (in Angstrom), charge = 0, multiplicity = 1:

       Center              X                  Y                   Z               Mass
    ------------   -----------------  -----------------  -----------------  -----------------
         O           -2.493012447089    -0.619937491983    -0.153243958474    15.994914619570
         O           -0.007467447089    -1.404433491983    -0.380203958474    15.994914619570
         N            0.884100552911     0.369177508017     0.734621041526    14.003074004430
         C           -1.540878447089     0.302412508017     0.332885041526    12.000000000000
         C            2.256495552911    -0.100467491983     0.603828041526    12.000000000000
         C           -0.149525447089    -0.318028491983     0.198482041526    12.000000000000
         C           -1.646320447089     1.605462508017    -0.450321958474    12.000000000000
         C            2.865351552911     0.252895508017    -0.745885958474    12.000000000000
         H           -1.732721447089     0.493044508017     1.400079041526     1.007825032230
         H            2.833164552911     0.332785508017     1.425658041526     1.007825032230
         H            2.239503552911    -1.184012491983     0.738707041526     1.007825032230
         H            0.709191552911     1.277667508017     1.143183041526     1.007825032230
         H           -1.391819447089     1.421137508017    -1.496880958474     1.007825032230
         H           -0.987207447089     2.384765508017    -0.054544958474     1.007825032230
         H           -2.675742447089     1.966288508017    -0.402581958474     1.007825032230
         H            2.284251552911    -0.213740491983    -1.543553958474     1.007825032230
         H            2.871269552911     1.335008508017    -0.899417958474     1.007825032230
         H            3.895526552911    -0.110093491983    -0.808177958474     1.007825032230
         H           -1.900139747089    -1.449060591983    -0.516877058474     1.007825032230

  Basis Set: AUG-CC-PVTZ
    Blend: AUG-CC-PVTZ
  Basis Set: (AUG-CC-PVTZ AUX)
    Blend: AUG-CC-PVTZ-JKFIT
	 Reference Energy          =    -400.0750487071923658 [Eh]
	 Singles Energy            =      -0.0000000000000000 [Eh]
	 Same-Spin Energy          =      -0.4037002921098711 [Eh]
	 Opposite-Spin Energy      =      -1.3109123213816307 [Eh]
	 Correlation Energy        =      -1.7146126134915018 [Eh]
	 Total Energy              =    -401.7896613206838765 [Eh]

	 ================> DF-SCS-MP2 Energies <==================
	-----------------------------------------------------------
	 SCS Same-Spin Scale       =       0.3333333333333333 [-]
	 SCS Opposite-Spin Scale   =       1.2000000000000000 [-]
	 SCS Same-Spin Energy      =      -0.1345667640366237 [Eh]
	 SCS Opposite-Spin Energy  =      -1.5730947856579569 [Eh]
	 SCS Correlation Energy    =      -1.7076615496945806 [Eh]
	 SCS Total Energy          =    -401.7827102568869577 [Eh]
	-----------------------------------------------------------

  Dipole Moment: [D]
     X:     3.0619      Y:     3.0545      Z:     1.5299     Total:     4.5876

*** Psi4 exiting successfully. Buy a developer a beer!
