                               Psi4 1.3.2 release

  ==> Input File <==

--------------------------------------------------------------------------
#psi4
#
memory 32 gb

molecule  {
0 1
  O       -2.4925410    -0.6205970    -0.1535330
  O       -0.0496636    -1.4060800    -0.3874980
  N        0.8541620     0.4018587     0.7481474
  C       -1.5404070     0.3017530     0.3325960
  C        2.2569670    -0.1011270     0.6035390
  C       -0.1490540    -0.3186880     0.1981930
  C       -1.6458490     1.6048030    -0.4506110
  C        2.8658230     0.2522360    -0.7461750
  H       -1.7322500     0.4923850     1.3997900
  H        2.8336360     0.3321260     1.4253690
  H        2.2399750    -1.1846720     0.7384180
  H        0.7096630     1.2770080     1.1428940
  H       -1.3913480     1.4204780    -1.4971700
  H       -0.9867360     2.3841060    -0.0548340
  H       -2.6752710     1.9656290    -0.4028710
  H        2.2847230    -0.2144000    -1.5438430
  H        2.8717410     1.3343490    -0.8997070
  H        3.8959980    -0.1107530    -0.8084670
  H       -1.9544520    -1.3731060    -0.4835650
units angstrom
no_reorient  #important for SAPT in psi4, default
symmetry c1  #important for SAPT in psi4, default
}

set PROPERTIES_ORIGIN ["COM"]
properties('MP2/aug-cc-pvtz', properties = ['dipole'])
--------------------------------------------------------------------------

    Molecular point group: c1
  Charge       = 0
  Multiplicity = 1
  Basis Set: AUG-CC-PVTZ
    Blend: AUG-CC-PVTZ
  Basis Set: (AUG-CC-PVTZ AUX)
    Blend: AUG-CC-PVTZ-JKFIT

    Orbital Energies [Eh]
    ---------------------

    Doubly Occupied:

       1A    -20.544073     2A    -20.536139     3A    -15.598794
       4A    -11.360146     5A    -11.293205     6A    -11.279200
       7A    -11.228831     8A    -11.226138     9A     -1.398330
      10A     -1.342237    11A     -1.247642    12A     -1.050979
      13A     -1.013532    14A     -0.900416    15A     -0.848275
      16A     -0.806959    17A     -0.742060    18A     -0.674708
      19A     -0.642832    20A     -0.641458    21A     -0.614732
      22A     -0.601940    23A     -0.574318    24A     -0.561264
      25A     -0.543183    26A     -0.532662    27A     -0.522790
      28A     -0.511916    29A     -0.504303    30A     -0.442991
      31A     -0.434099    32A     -0.408736

  @DF-RHF Final Energy:  -400.08470692079635

   => Energetics <=

    Nuclear Repulsion Energy =            400.3127254976650988
    One-Electron Energy =               -1339.5370852557523449
    Two-Electron Energy =                 539.1396528372908961
    Total Energy =                       -400.0847069207964068
  Basis Set: (AUG-CC-PVTZ AUX)
    Blend: AUG-CC-PVTZ-RI
    Molecular point group: c1

    Geometry (in Angstrom), charge = 0, multiplicity = 1:

       Center              X                  Y                   Z               Mass
    ------------   -----------------  -----------------  -----------------  -----------------
         O           -2.483074621378    -0.624449821377    -0.154228573498    15.994914619570
         O           -0.040197221378    -1.409932821377    -0.388193573498    15.994914619570
         N            0.863628378622     0.398005878623     0.747451826502    14.003074004430
         C           -1.530940621378     0.297900178623     0.331900426502    12.000000000000
         C            2.266433378622    -0.104979821377     0.602843426502    12.000000000000
         C           -0.139587621378    -0.322540821377     0.197497426502    12.000000000000
         C           -1.636382621378     1.600950178623    -0.451306573498    12.000000000000
         C            2.875289378622     0.248383178623    -0.746870573498    12.000000000000
         H           -1.722783621378     0.488532178623     1.399094426502     1.007825032230
         H            2.843102378622     0.328273178623     1.424673426502     1.007825032230
         H            2.249441378622    -1.188524821377     0.737722426502     1.007825032230
         H            0.719129378622     1.273155178623     1.142198426502     1.007825032230
         H           -1.381881621378     1.416625178623    -1.497865573498     1.007825032230
         H           -0.977269621378     2.380253178623    -0.055529573498     1.007825032230
         H           -2.665804621378     1.961776178623    -0.403566573498     1.007825032230
         H            2.294189378622    -0.218252821377    -1.544538573498     1.007825032230
         H            2.881207378622     1.330496178623    -0.900402573498     1.007825032230
         H            3.905464378622    -0.114605821377    -0.809162573498     1.007825032230
         H           -1.944985621378    -1.376958821377    -0.484260573498     1.007825032230

  Basis Set: AUG-CC-PVTZ
    Blend: AUG-CC-PVTZ
  Basis Set: (AUG-CC-PVTZ AUX)
    Blend: AUG-CC-PVTZ-JKFIT
	 Reference Energy          =    -400.0847069207963500 [Eh]
	 Singles Energy            =      -0.0000000000000000 [Eh]
	 Same-Spin Energy          =      -0.4018248999290933 [Eh]
	 Opposite-Spin Energy      =      -1.3074687438746531 [Eh]
	 Correlation Energy        =      -1.7092936438037465 [Eh]
	 Total Energy              =    -401.7940005646000827 [Eh]

	 ================> DF-SCS-MP2 Energies <==================
	-----------------------------------------------------------
	 SCS Same-Spin Scale       =       0.3333333333333333 [-]
	 SCS Opposite-Spin Scale   =       1.2000000000000000 [-]
	 SCS Same-Spin Energy      =      -0.1339416333096978 [Eh]
	 SCS Opposite-Spin Energy  =      -1.5689624926495835 [Eh]
	 SCS Correlation Energy    =      -1.7029041259592814 [Eh]
	 SCS Total Energy          =    -401.7876110467556146 [Eh]
	-----------------------------------------------------------

  Dipole Moment: [D]
     X:     3.1688      Y:     3.0878      Z:     1.5474     Total:     4.6873

*** Psi4 exiting successfully. Buy a developer a beer!
