                               Psi4 1.4a3.dev225

  ==> Input File <==

--------------------------------------------------------------------------
#psi4
#
memory 32 gb

molecule  {
0 1
  O       -2.5334200    -0.7491890    -0.0380440
  O       -0.0309920    -1.3916750    -0.5246560
  N        0.8474210     0.2516040     0.7908210
  C       -1.5793960     0.2040340     0.3844480
  C        2.2299320    -0.1523350     0.5631470
  C       -0.1821000    -0.3862620     0.1848690
  C       -1.7285235     1.4802436    -0.4039889
  C        2.7876300     0.3918150    -0.7462470
  H       -1.7371730     0.4054880     1.4537200
  H        2.8183710     0.1913570     1.4185970
  H        2.2480760    -1.2444890     0.5585260
  H        0.6595560     1.1005830     1.3085070
  H       -1.5202540     1.2971370    -1.4686150
  H       -1.0543700     2.2823790    -0.0604110
  H       -2.7592110     1.8535180    -0.3272230
  H        2.1936920     0.0168210    -1.5822170
  H        2.7616940     1.4848860    -0.7566670
  H        3.8242090     0.0700520    -0.8849050
  H       -2.0046360    -1.4186050    -0.5240660
units angstrom
no_reorient  #important for SAPT in psi4, default
symmetry c1  #important for SAPT in psi4, default
}

set PROPERTIES_ORIGIN ["COM"]
properties('MP2/aug-cc-pvtz', properties = ['dipole'])
--------------------------------------------------------------------------

    Molecular point group: c1
  Charge       = 0
  Multiplicity = 1
  Basis Set: AUG-CC-PVTZ
    Blend: AUG-CC-PVTZ
  Basis Set: (AUG-CC-PVTZ AUX)
    Blend: AUG-CC-PVTZ-JKFIT

    Orbital Energies [Eh]
    ---------------------

    Doubly Occupied:

       1A    -20.549439     2A    -20.533155     3A    -15.599262
       4A    -11.359291     5A    -11.297793     6A    -11.274424
       7A    -11.231460     8A    -11.223943     9A     -1.397390
      10A     -1.347049    11A     -1.244929    12A     -1.053633
      13A     -1.014058    14A     -0.901601    15A     -0.847942
      16A     -0.793838    17A     -0.746081    18A     -0.675405
      19A     -0.645956    20A     -0.638494    21A     -0.614799
      22A     -0.597803    23A     -0.584101    24A     -0.562248
      25A     -0.540738    26A     -0.530342    27A     -0.521291
      28A     -0.512855    29A     -0.502806    30A     -0.448789
      31A     -0.434294    32A     -0.403855

  @DF-RHF Final Energy:  -400.08705364098432

   => Energetics <=

    Nuclear Repulsion Energy =            400.7263872419342192
    One-Electron Energy =               -1340.3687539353509237
    Two-Electron Energy =                 539.5553130524324388
    Total Energy =                       -400.0870536409843226
  Basis Set: (AUG-CC-PVTZ AUX)
    Blend: AUG-CC-PVTZ-RI
    Molecular point group: c1

    Geometry (in Angstrom), charge = 0, multiplicity = 1:

       Center              X                  Y                   Z               Mass
    ------------   -----------------  -----------------  -----------------  -----------------
         O           -2.487740591856    -0.696375275701    -0.046489606673    15.994914619570
         O            0.014687408144    -1.338861275701    -0.533101606673    15.994914619570
         N            0.893100408144     0.304417724299     0.782375393327    14.003074004430
         C           -1.533716591856     0.256847724299     0.376002393327    12.000000000000
         C            2.275611408144    -0.099521275701     0.554701393327    12.000000000000
         C           -0.136420591856    -0.333448275701     0.176423393327    12.000000000000
         C           -1.682844091856     1.533057324299    -0.412434506673    12.000000000000
         C            2.833309408144     0.444628724299    -0.754692606673    12.000000000000
         H           -1.691493591856     0.458301724299     1.445274393327     1.007825032230
         H            2.864050408144     0.244170724299     1.410151393327     1.007825032230
         H            2.293755408144    -1.191675275701     0.550080393327     1.007825032230
         H            0.705235408144     1.153396724299     1.300061393327     1.007825032230
         H           -1.474574591856     1.349950724299    -1.477060606673     1.007825032230
         H           -1.008690591856     2.335192724299    -0.068856606673     1.007825032230
         H           -2.713531591856     1.906331724299    -0.335668606673     1.007825032230
         H            2.239371408144     0.069634724299    -1.590662606673     1.007825032230
         H            2.807373408144     1.537699724299    -0.765112606673     1.007825032230
         H            3.869888408144     0.122865724299    -0.893350606673     1.007825032230
         H           -1.958956591856    -1.365791275701    -0.532511606673     1.007825032230

  Basis Set: AUG-CC-PVTZ
    Blend: AUG-CC-PVTZ
  Basis Set: (AUG-CC-PVTZ AUX)
    Blend: AUG-CC-PVTZ-JKFIT
	 Reference Energy          =    -400.0870536409843226 [Eh]
	 Singles Energy            =      -0.0000000000000000 [Eh]
	 Same-Spin Energy          =      -0.4021569989519004 [Eh]
	 Opposite-Spin Energy      =      -1.3079274326016230 [Eh]
	 Correlation Energy        =      -1.7100844315535233 [Eh]
	 Total Energy              =    -401.7971380725378481 [Eh]

	 ================> DF-SCS-MP2 Energies <==================
	-----------------------------------------------------------
	 SCS Same-Spin Scale       =       0.3333333333333333 [-]
	 SCS Opposite-Spin Scale   =       1.2000000000000000 [-]
	 SCS Same-Spin Energy      =      -0.1340523329839668 [Eh]
	 SCS Opposite-Spin Energy  =      -1.5695129191219477 [Eh]
	 SCS Correlation Energy    =      -1.7035652521059144 [Eh]
	 SCS Total Energy          =    -401.7906188930902545 [Eh]
	-----------------------------------------------------------

  Dipole Moment: [D]
     X:     2.8727      Y:     3.1376      Z:     1.6053     Total:     4.5468

*** Psi4 exiting successfully. Buy a developer a beer!
