                               Psi4 1.3.2 release

  ==> Input File <==

--------------------------------------------------------------------------
#psi4
#
memory 32 gb

molecule  {
0 1
  O       -2.4925410    -0.6205970    -0.1535330
  O       -0.0069960    -1.4050930    -0.3804930
  N        0.8845720     0.3685180     0.7343320
  C       -1.5260451     0.2770373     0.2877357
  C        2.2569670    -0.1011270     0.6035390
  C       -0.1490540    -0.3186880     0.1981930
  C       -1.6458490     1.6048030    -0.4506110
  C        2.8658230     0.2522360    -0.7461750
  H       -1.7322500     0.4923850     1.3997900
  H        2.8336360     0.3321260     1.4253690
  H        2.2399750    -1.1846720     0.7384180
  H        0.7096630     1.2770080     1.1428940
  H       -1.3855812     1.3837609    -1.4886058
  H       -0.9867360     2.3841060    -0.0548340
  H       -2.6752710     1.9656290    -0.4028710
  H        2.2847230    -0.2144000    -1.5438430
  H        2.8717410     1.3343490    -0.8997070
  H        3.8959980    -0.1107530    -0.8084670
  H       -1.9544520    -1.3731060    -0.4835650
units angstrom
no_reorient  #important for SAPT in psi4, default
symmetry c1  #important for SAPT in psi4, default
}

set PROPERTIES_ORIGIN ["COM"]
properties('MP2/aug-cc-pvtz', properties = ['dipole'])
--------------------------------------------------------------------------

    Molecular point group: c1
  Charge       = 0
  Multiplicity = 1
  Basis Set: AUG-CC-PVTZ
    Blend: AUG-CC-PVTZ
  Basis Set: (AUG-CC-PVTZ AUX)
    Blend: AUG-CC-PVTZ-JKFIT

    Orbital Energies [Eh]
    ---------------------

    Doubly Occupied:

       1A    -20.552327     2A    -20.533121     3A    -15.599056
       4A    -11.358542     5A    -11.299320     6A    -11.274387
       7A    -11.231149     8A    -11.223436     9A     -1.402768
      10A     -1.354731    11A     -1.246029    12A     -1.053685
      13A     -1.012791    14A     -0.904758    15A     -0.848656
      16A     -0.793368    17A     -0.748993    18A     -0.676917
      19A     -0.646454    20A     -0.643324    21A     -0.614444
      22A     -0.598376    23A     -0.577547    24A     -0.564100
      25A     -0.546228    26A     -0.533249    27A     -0.523001
      28A     -0.516786    29A     -0.502672    30A     -0.441195
      31A     -0.435998    32A     -0.403099

  @DF-RHF Final Energy:  -400.08420639761010

   => Energetics <=

    Nuclear Repulsion Energy =            401.3529004688417103
    One-Electron Energy =               -1341.5532051339362170
    Two-Electron Energy =                 540.1160982674844036
    Total Energy =                       -400.0842063976101599
  Basis Set: (AUG-CC-PVTZ AUX)
    Blend: AUG-CC-PVTZ-RI
    Molecular point group: c1

    Geometry (in Angstrom), charge = 0, multiplicity = 1:

       Center              X                  Y                   Z               Mass
    ------------   -----------------  -----------------  -----------------  -----------------
         O           -2.494062527493    -0.617747694910    -0.149008968033    15.994914619570
         O           -0.008517527493    -1.402243694910    -0.375968968033    15.994914619570
         N            0.883050472507     0.371367305090     0.738856031967    14.003074004430
         C           -1.527566627493     0.279886605090     0.292259731967    12.000000000000
         C            2.255445472507    -0.098277694910     0.608063031967    12.000000000000
         C           -0.150575527493    -0.315838694910     0.202717031967    12.000000000000
         C           -1.647370527493     1.607652305090    -0.446086968033    12.000000000000
         C            2.864301472507     0.255085305090    -0.741650968033    12.000000000000
         H           -1.733771527493     0.495234305090     1.404314031967     1.007825032230
         H            2.832114472507     0.334975305090     1.429893031967     1.007825032230
         H            2.238453472507    -1.181822694910     0.742942031967     1.007825032230
         H            0.708141472507     1.279857305090     1.147418031967     1.007825032230
         H           -1.387102727493     1.386610205090    -1.484081768033     1.007825032230
         H           -0.988257527493     2.386955305090    -0.050309968033     1.007825032230
         H           -2.676792527493     1.968478305090    -0.398346968033     1.007825032230
         H            2.283201472507    -0.211550694910    -1.539318968033     1.007825032230
         H            2.870219472507     1.337198305090    -0.895182968033     1.007825032230
         H            3.894476472507    -0.107903694910    -0.803942968033     1.007825032230
         H           -1.955973527493    -1.370256694910    -0.479040968033     1.007825032230

  Basis Set: AUG-CC-PVTZ
    Blend: AUG-CC-PVTZ
  Basis Set: (AUG-CC-PVTZ AUX)
    Blend: AUG-CC-PVTZ-JKFIT
	 Reference Energy          =    -400.0842063976101031 [Eh]
	 Singles Energy            =      -0.0000000000000000 [Eh]
	 Same-Spin Energy          =      -0.4024049110185357 [Eh]
	 Opposite-Spin Energy      =      -1.3078500534856063 [Eh]
	 Correlation Energy        =      -1.7102549645041421 [Eh]
	 Total Energy              =    -401.7944613621142480 [Eh]

	 ================> DF-SCS-MP2 Energies <==================
	-----------------------------------------------------------
	 SCS Same-Spin Scale       =       0.3333333333333333 [-]
	 SCS Opposite-Spin Scale   =       1.2000000000000000 [-]
	 SCS Same-Spin Energy      =      -0.1341349703395119 [Eh]
	 SCS Opposite-Spin Energy  =      -1.5694200641827276 [Eh]
	 SCS Correlation Energy    =      -1.7035550345222394 [Eh]
	 SCS Total Energy          =    -401.7877614321323563 [Eh]
	-----------------------------------------------------------

  Dipole Moment: [D]
     X:     2.8558      Y:     3.0925      Z:     1.4888     Total:     4.4650

*** Psi4 exiting successfully. Buy a developer a beer!
