                               Psi4 1.3.2 release

  ==> Input File <==

--------------------------------------------------------------------------
#psi4
#
memory 32 gb

molecule  {
0 1
  O       -2.4925410    -0.6205970    -0.1535330
  O       -0.0069960    -1.4050930    -0.3804930
  N        0.8993115     0.3515475     0.7271485
  C       -1.5507131     0.2809047     0.3194972
  C        2.2569670    -0.1011270     0.6035390
  C       -0.1490540    -0.3186880     0.1981930
  C       -1.6458490     1.6048030    -0.4506110
  C        2.8658230     0.2522360    -0.7461750
  H       -1.7322500     0.4923850     1.3997900
  H        2.8336360     0.3321260     1.4253690
  H        2.2399750    -1.1846720     0.7384180
  H        0.7096630     1.2770080     1.1428940
  H       -1.3913480     1.4204780    -1.4971700
  H       -0.9867360     2.3841060    -0.0548340
  H       -2.6752710     1.9656290    -0.4028710
  H        2.2847230    -0.2144000    -1.5438430
  H        2.8717410     1.3343490    -0.8997070
  H        3.8959980    -0.1107530    -0.8084670
  H       -1.9544520    -1.3731060    -0.4835650
units angstrom
no_reorient  #important for SAPT in psi4, default
symmetry c1  #important for SAPT in psi4, default
}

set PROPERTIES_ORIGIN ["COM"]
properties('MP2/aug-cc-pvtz', properties = ['dipole'])
--------------------------------------------------------------------------

    Molecular point group: c1
  Charge       = 0
  Multiplicity = 1
  Basis Set: AUG-CC-PVTZ
    Blend: AUG-CC-PVTZ
  Basis Set: (AUG-CC-PVTZ AUX)
    Blend: AUG-CC-PVTZ-JKFIT

    Orbital Energies [Eh]
    ---------------------

    Doubly Occupied:

       1A    -20.552137     2A    -20.531999     3A    -15.599811
       4A    -11.358247     5A    -11.300112     6A    -11.272244
       7A    -11.231031     8A    -11.222336     9A     -1.401724
      10A     -1.355631    11A     -1.246325    12A     -1.051339
      13A     -1.010929    14A     -0.903139    15A     -0.849867
      16A     -0.787934    17A     -0.749575    18A     -0.678509
      19A     -0.651564    20A     -0.641257    21A     -0.614715
      22A     -0.595489    23A     -0.580053    24A     -0.563737
      25A     -0.545367    26A     -0.534785    27A     -0.520799
      28A     -0.515755    29A     -0.501343    30A     -0.442905
      31A     -0.435649    32A     -0.401316

  @DF-RHF Final Energy:  -400.08623372108190

   => Energetics <=

    Nuclear Repulsion Energy =            400.9888419805363924
    One-Electron Energy =               -1340.8549079143342624
    Two-Electron Energy =                 539.7798322127160873
    Total Energy =                       -400.0862337210818396
  Basis Set: (AUG-CC-PVTZ AUX)
    Blend: AUG-CC-PVTZ-RI
    Molecular point group: c1

    Geometry (in Angstrom), charge = 0, multiplicity = 1:

       Center              X                  Y                   Z               Mass
    ------------   -----------------  -----------------  -----------------  -----------------
         O           -2.493247439958    -0.616430413560    -0.151331466111    15.994914619570
         O           -0.007702439958    -1.400926413560    -0.378291466111    15.994914619570
         N            0.898605060042     0.355714086440     0.729350033889    14.003074004430
         C           -1.551419539958     0.285071286440     0.321698733889    12.000000000000
         C            2.256260560042    -0.096960413560     0.605740533889    12.000000000000
         C           -0.149760439958    -0.314521413560     0.200394533889    12.000000000000
         C           -1.646555439958     1.608969586440    -0.448409466111    12.000000000000
         C            2.865116560042     0.256402586440    -0.743973466111    12.000000000000
         H           -1.732956439958     0.496551586440     1.401991533889     1.007825032230
         H            2.832929560042     0.336292586440     1.427570533889     1.007825032230
         H            2.239268560042    -1.180505413560     0.740619533889     1.007825032230
         H            0.708956560042     1.281174586440     1.145095533889     1.007825032230
         H           -1.392054439958     1.424644586440    -1.494968466111     1.007825032230
         H           -0.987442439958     2.388272586440    -0.052632466111     1.007825032230
         H           -2.675977439958     1.969795586440    -0.400669466111     1.007825032230
         H            2.284016560042    -0.210233413560    -1.541641466111     1.007825032230
         H            2.871034560042     1.338515586440    -0.897505466111     1.007825032230
         H            3.895291560042    -0.106586413560    -0.806265466111     1.007825032230
         H           -1.955158439958    -1.368939413560    -0.481363466111     1.007825032230

  Basis Set: AUG-CC-PVTZ
    Blend: AUG-CC-PVTZ
  Basis Set: (AUG-CC-PVTZ AUX)
    Blend: AUG-CC-PVTZ-JKFIT
	 Reference Energy          =    -400.0862337210818964 [Eh]
	 Singles Energy            =      -0.0000000000000000 [Eh]
	 Same-Spin Energy          =      -0.4023296177515448 [Eh]
	 Opposite-Spin Energy      =      -1.3075678311695802 [Eh]
	 Correlation Energy        =      -1.7098974489211249 [Eh]
	 Total Energy              =    -401.7961311700030365 [Eh]

	 ================> DF-SCS-MP2 Energies <==================
	-----------------------------------------------------------
	 SCS Same-Spin Scale       =       0.3333333333333333 [-]
	 SCS Opposite-Spin Scale   =       1.2000000000000000 [-]
	 SCS Same-Spin Energy      =      -0.1341098725838483 [Eh]
	 SCS Opposite-Spin Energy  =      -1.5690813974034963 [Eh]
	 SCS Correlation Energy    =      -1.7031912699873446 [Eh]
	 SCS Total Energy          =    -401.7894249910692679 [Eh]
	-----------------------------------------------------------

  Dipole Moment: [D]
     X:     2.7985      Y:     3.1040      Z:     1.5455     Total:     4.4559

*** Psi4 exiting successfully. Buy a developer a beer!
