                               Psi4 1.3.2 release

  ==> Input File <==

--------------------------------------------------------------------------
#psi4
#
memory 32 gb

molecule  {
0 1
  O       -2.4925410    -0.6205970    -0.1535330
  O       -0.0069960    -1.4050930    -0.3804930
  N        0.8845720     0.3685180     0.7343320
  C       -1.5404070     0.3017530     0.3325960
  C        2.2569670    -0.1011270     0.6035390
  C       -0.1417394    -0.2983249     0.1825634
  C       -1.6205670     1.6019227    -0.4583552
  C        2.8658230     0.2522360    -0.7461750
  H       -1.7322500     0.4923850     1.3997900
  H        2.8336360     0.3321260     1.4253690
  H        2.2399750    -1.1846720     0.7384180
  H        0.7096630     1.2770080     1.1428940
  H       -1.3913480     1.4204780    -1.4971700
  H       -0.9867360     2.3841060    -0.0548340
  H       -2.6752710     1.9656290    -0.4028710
  H        2.2847230    -0.2144000    -1.5438430
  H        2.8717410     1.3343490    -0.8997070
  H        3.8959980    -0.1107530    -0.8084670
  H       -1.9544520    -1.3731060    -0.4835650
units angstrom
no_reorient  #important for SAPT in psi4, default
symmetry c1  #important for SAPT in psi4, default
}

set PROPERTIES_ORIGIN ["COM"]
properties('MP2/aug-cc-pvtz', properties = ['dipole'])
--------------------------------------------------------------------------

    Molecular point group: c1
  Charge       = 0
  Multiplicity = 1
  Basis Set: AUG-CC-PVTZ
    Blend: AUG-CC-PVTZ
  Basis Set: (AUG-CC-PVTZ AUX)
    Blend: AUG-CC-PVTZ-JKFIT

    Orbital Energies [Eh]
    ---------------------

    Doubly Occupied:

       1A    -20.548757     2A    -20.530583     3A    -15.600787
       4A    -11.358240     5A    -11.298528     6A    -11.274971
       7A    -11.230974     8A    -11.224014     9A     -1.393600
      10A     -1.344973    11A     -1.247968    12A     -1.054363
      13A     -1.013918    14A     -0.902599    15A     -0.849951
      16A     -0.795854    17A     -0.744910    18A     -0.677300
      19A     -0.648948    20A     -0.638783    21A     -0.614464
      22A     -0.597757    23A     -0.578175    24A     -0.557890
      25A     -0.545662    26A     -0.536944    27A     -0.519055
      28A     -0.512564    29A     -0.501714    30A     -0.446496
      31A     -0.433515    32A     -0.404169

  @DF-RHF Final Energy:  -400.08571855448650

   => Energetics <=

    Nuclear Repulsion Energy =            400.8175717198172947
    One-Electron Energy =               -1340.5497265717847313
    Two-Electron Energy =                 539.6464362974808182
    Total Energy =                       -400.0857185544865615
  Basis Set: (AUG-CC-PVTZ AUX)
    Blend: AUG-CC-PVTZ-RI
    Molecular point group: c1

    Geometry (in Angstrom), charge = 0, multiplicity = 1:

       Center              X                  Y                   Z               Mass
    ------------   -----------------  -----------------  -----------------  -----------------
         O           -2.495881850459    -0.622388890272    -0.151137503726    15.994914619570
         O           -0.010336850459    -1.406884890272    -0.378097503726    15.994914619570
         N            0.881231149541     0.366726109728     0.736727496274    14.003074004430
         C           -1.543747850459     0.299961109728     0.334991496274    12.000000000000
         C            2.253626149541    -0.102918890272     0.605934496274    12.000000000000
         C           -0.145080250459    -0.300116790272     0.184958896274    12.000000000000
         C           -1.623907850459     1.600130809728    -0.455959703726    12.000000000000
         C            2.862482149541     0.250444109728    -0.743779503726    12.000000000000
         H           -1.735590850459     0.490593109728     1.402185496274     1.007825032230
         H            2.830295149541     0.330334109728     1.427764496274     1.007825032230
         H            2.236634149541    -1.186463890272     0.740813496274     1.007825032230
         H            0.706322149541     1.275216109728     1.145289496274     1.007825032230
         H           -1.394688850459     1.418686109728    -1.494774503726     1.007825032230
         H           -0.990076850459     2.382314109728    -0.052438503726     1.007825032230
         H           -2.678611850459     1.963837109728    -0.400475503726     1.007825032230
         H            2.281382149541    -0.216191890272    -1.541447503726     1.007825032230
         H            2.868400149541     1.332557109728    -0.897311503726     1.007825032230
         H            3.892657149541    -0.112544890272    -0.806071503726     1.007825032230
         H           -1.957792850459    -1.374897890272    -0.481169503726     1.007825032230

  Basis Set: AUG-CC-PVTZ
    Blend: AUG-CC-PVTZ
  Basis Set: (AUG-CC-PVTZ AUX)
    Blend: AUG-CC-PVTZ-JKFIT
	 Reference Energy          =    -400.0857185544865047 [Eh]
	 Singles Energy            =      -0.0000000000000000 [Eh]
	 Same-Spin Energy          =      -0.4024030133313657 [Eh]
	 Opposite-Spin Energy      =      -1.3081769345840928 [Eh]
	 Correlation Energy        =      -1.7105799479154586 [Eh]
	 Total Energy              =    -401.7962985024019531 [Eh]

	 ================> DF-SCS-MP2 Energies <==================
	-----------------------------------------------------------
	 SCS Same-Spin Scale       =       0.3333333333333333 [-]
	 SCS Opposite-Spin Scale   =       1.2000000000000000 [-]
	 SCS Same-Spin Energy      =      -0.1341343377771219 [Eh]
	 SCS Opposite-Spin Energy  =      -1.5698123215009112 [Eh]
	 SCS Correlation Energy    =      -1.7039466592780332 [Eh]
	 SCS Total Energy          =    -401.7896652137645219 [Eh]
	-----------------------------------------------------------

  Dipole Moment: [D]
     X:     2.9626      Y:     3.2147      Z:     1.5854     Total:     4.6503

*** Psi4 exiting successfully. Buy a developer a beer!
