                               Psi4 1.3.2 release

  ==> Input File <==

--------------------------------------------------------------------------
#psi4
#
memory 32 gb

molecule  {
0 1
  O       -2.4925410    -0.6205970    -0.1535330
  O       -0.0069960    -1.4050930    -0.3804930
  N        0.8845720     0.3685180     0.7343320
  C       -1.5404070     0.3017530     0.3325960
  C        2.2569670    -0.1011270     0.6035390
  C       -0.1490540    -0.3186880     0.1981930
  C       -1.6458490     1.6048030    -0.4506110
  C        2.8658230     0.2522360    -0.7461750
  H       -1.7496755     0.5097005     1.4967257
  H        2.8336360     0.3321260     1.4253690
  H        2.2399750    -1.1846720     0.7384180
  H        0.7096630     1.2770080     1.1428940
  H       -1.3913480     1.4204780    -1.4971700
  H       -0.9867360     2.3841060    -0.0548340
  H       -2.6752710     1.9656290    -0.4028710
  H        2.2847230    -0.2144000    -1.5438430
  H        2.8717410     1.3343490    -0.8997070
  H        3.8959980    -0.1107530    -0.8084670
  H       -1.9544520    -1.3731060    -0.4835650
units angstrom
no_reorient  #important for SAPT in psi4, default
symmetry c1  #important for SAPT in psi4, default
}

set PROPERTIES_ORIGIN ["COM"]
properties('MP2/aug-cc-pvtz', properties = ['dipole'])
--------------------------------------------------------------------------

    Molecular point group: c1
  Charge       = 0
  Multiplicity = 1
  Basis Set: AUG-CC-PVTZ
    Blend: AUG-CC-PVTZ
  Basis Set: (AUG-CC-PVTZ AUX)
    Blend: AUG-CC-PVTZ-JKFIT

    Orbital Energies [Eh]
    ---------------------

    Doubly Occupied:

       1A    -20.550881     2A    -20.534135     3A    -15.598631
       4A    -11.360147     5A    -11.310095     6A    -11.273989
       7A    -11.232283     8A    -11.223311     9A     -1.399116
      10A     -1.347973    11A     -1.245748    12A     -1.051185
      13A     -1.012061    14A     -0.901906    15A     -0.845701
      16A     -0.792849    17A     -0.742243    18A     -0.673293
      19A     -0.645352    20A     -0.639237    21A     -0.613140
      22A     -0.597891    23A     -0.577928    24A     -0.564100
      25A     -0.543410    26A     -0.531348    27A     -0.521631
      28A     -0.514001    29A     -0.502260    30A     -0.442771
      31A     -0.435865    32A     -0.403151

  @DF-RHF Final Energy:  -400.08109561130556

   => Energetics <=

    Nuclear Repulsion Energy =            400.1180452450298048
    One-Electron Energy =               -1339.1430138609568985
    Two-Electron Energy =                 538.9438730046214232
    Total Energy =                       -400.0810956113056136
  Basis Set: (AUG-CC-PVTZ AUX)
    Blend: AUG-CC-PVTZ-RI
    Molecular point group: c1

    Geometry (in Angstrom), charge = 0, multiplicity = 1:

       Center              X                  Y                   Z               Mass
    ------------   -----------------  -----------------  -----------------  -----------------
         O           -2.492390864631    -0.620746045348    -0.154367629488    15.994914619570
         O           -0.006845864631    -1.405242045348    -0.381327629488    15.994914619570
         N            0.884722135369     0.368368954652     0.733497370512    14.003074004430
         C           -1.540256864631     0.301603954652     0.331761370512    12.000000000000
         C            2.257117135369    -0.101276045348     0.602704370512    12.000000000000
         C           -0.148903864631    -0.318837045348     0.197358370512    12.000000000000
         C           -1.645698864631     1.604653954652    -0.451445629488    12.000000000000
         C            2.865973135369     0.252086954652    -0.747009629488    12.000000000000
         H           -1.749525364631     0.509551454652     1.495891070512     1.007825032230
         H            2.833786135369     0.331976954652     1.424534370512     1.007825032230
         H            2.240125135369    -1.184821045348     0.737583370512     1.007825032230
         H            0.709813135369     1.276858954652     1.142059370512     1.007825032230
         H           -1.391197864631     1.420328954652    -1.498004629488     1.007825032230
         H           -0.986585864631     2.383956954652    -0.055668629488     1.007825032230
         H           -2.675120864631     1.965479954652    -0.403705629488     1.007825032230
         H            2.284873135369    -0.214549045348    -1.544677629488     1.007825032230
         H            2.871891135369     1.334199954652    -0.900541629488     1.007825032230
         H            3.896148135369    -0.110902045348    -0.809301629488     1.007825032230
         H           -1.954301864631    -1.373255045348    -0.484399629488     1.007825032230

  Basis Set: AUG-CC-PVTZ
    Blend: AUG-CC-PVTZ
  Basis Set: (AUG-CC-PVTZ AUX)
    Blend: AUG-CC-PVTZ-JKFIT
	 Reference Energy          =    -400.0810956113055568 [Eh]
	 Singles Energy            =      -0.0000000000000000 [Eh]
	 Same-Spin Energy          =      -0.4022840797132473 [Eh]
	 Opposite-Spin Energy      =      -1.3085935141682117 [Eh]
	 Correlation Energy        =      -1.7108775938814591 [Eh]
	 Total Energy              =    -401.7919732051869914 [Eh]

	 ================> DF-SCS-MP2 Energies <==================
	-----------------------------------------------------------
	 SCS Same-Spin Scale       =       0.3333333333333333 [-]
	 SCS Opposite-Spin Scale   =       1.2000000000000000 [-]
	 SCS Same-Spin Energy      =      -0.1340946932377491 [Eh]
	 SCS Opposite-Spin Energy  =      -1.5703122170018540 [Eh]
	 SCS Correlation Energy    =      -1.7044069102396031 [Eh]
	 SCS Total Energy          =    -401.7855025215451406 [Eh]
	-----------------------------------------------------------

  Dipole Moment: [D]
     X:     2.8917      Y:     3.1200      Z:     1.4833     Total:     4.5052

*** Psi4 exiting successfully. Buy a developer a beer!
