                               Psi4 1.3.2 release

  ==> Input File <==

--------------------------------------------------------------------------
#psi4
#
memory 32 gb

molecule  {
0 1
  O       -2.4925410    -0.6205970    -0.1535330
  O       -0.0069960    -1.4050930    -0.3804930
  N        0.8845720     0.3685180     0.7343320
  C       -1.5404070     0.3017530     0.3325960
  C        2.4454292    -0.1656203     0.5855780
  C       -0.1490540    -0.3186880     0.1981930
  C       -1.6458490     1.6048030    -0.4506110
  C        2.8658230     0.2522360    -0.7461750
  H       -1.7322500     0.4923850     1.3997900
  H        2.8336360     0.3321260     1.4253690
  H        2.2399750    -1.1846720     0.7384180
  H        0.7096630     1.2770080     1.1428940
  H       -1.3913480     1.4204780    -1.4971700
  H       -0.9867360     2.3841060    -0.0548340
  H       -2.6752710     1.9656290    -0.4028710
  H        2.2847230    -0.2144000    -1.5438430
  H        2.8717410     1.3343490    -0.8997070
  H        3.8959980    -0.1107530    -0.8084670
  H       -1.9544520    -1.3731060    -0.4835650
units angstrom
no_reorient  #important for SAPT in psi4, default
symmetry c1  #important for SAPT in psi4, default
}

set PROPERTIES_ORIGIN ["COM"]
properties('MP2/aug-cc-pvtz', properties = ['dipole'])
--------------------------------------------------------------------------

    Molecular point group: c1
  Charge       = 0
  Multiplicity = 1
  Basis Set: AUG-CC-PVTZ
    Blend: AUG-CC-PVTZ
  Basis Set: (AUG-CC-PVTZ AUX)
    Blend: AUG-CC-PVTZ-JKFIT

    Orbital Energies [Eh]
    ---------------------

    Doubly Occupied:

       1A    -20.542866     2A    -20.523702     3A    -15.583627
       4A    -11.349139     5A    -11.291254     6A    -11.287980
       7A    -11.230456     8A    -11.225896     9A     -1.388245
      10A     -1.339097    11A     -1.209206    12A     -1.062252
      13A     -1.018710    14A     -0.892101    15A     -0.853978
      16A     -0.776681    17A     -0.737592    18A     -0.666158
      19A     -0.648876    20A     -0.626207    21A     -0.619403
      22A     -0.595490    23A     -0.578161    24A     -0.564649
      25A     -0.536903    26A     -0.536254    27A     -0.527347
      28A     -0.517861    29A     -0.491665    30A     -0.440051
      31A     -0.424240    32A     -0.398309

  @DF-RHF Final Energy:  -400.05939599644176

   => Energetics <=

    Nuclear Repulsion Energy =            397.9393780952536304
    One-Electron Energy =               -1335.0288378935124456
    Two-Electron Energy =                 537.0300638018169366
    Total Energy =                       -400.0593959964418218
  Basis Set: (AUG-CC-PVTZ AUX)
    Blend: AUG-CC-PVTZ-RI
    Molecular point group: c1

    Geometry (in Angstrom), charge = 0, multiplicity = 1:

       Center              X                  Y                   Z               Mass
    ------------   -----------------  -----------------  -----------------  -----------------
         O           -2.511857281936    -0.613986756842    -0.151692288204    15.994914619570
         O           -0.026312281936    -1.398482756842    -0.378652288204    15.994914619570
         N            0.865255718064     0.375128243158     0.736172711796    14.003074004430
         C           -1.559723281936     0.308363243158     0.334436711796    12.000000000000
         C            2.426112918064    -0.159010056842     0.587418711796    12.000000000000
         C           -0.168370281936    -0.312077756842     0.200033711796    12.000000000000
         C           -1.665165281936     1.611413243158    -0.448770288204    12.000000000000
         C            2.846506718064     0.258846243158    -0.744334288204    12.000000000000
         H           -1.751566281936     0.498995243158     1.401630711796     1.007825032230
         H            2.814319718064     0.338736243158     1.427209711796     1.007825032230
         H            2.220658718064    -1.178061756842     0.740258711796     1.007825032230
         H            0.690346718064     1.283618243158     1.144734711796     1.007825032230
         H           -1.410664281936     1.427088243158    -1.495329288204     1.007825032230
         H           -1.006052281936     2.390716243158    -0.052993288204     1.007825032230
         H           -2.694587281936     1.972239243158    -0.401030288204     1.007825032230
         H            2.265406718064    -0.207789756842    -1.542002288204     1.007825032230
         H            2.852424718064     1.340959243158    -0.897866288204     1.007825032230
         H            3.876681718064    -0.104142756842    -0.806626288204     1.007825032230
         H           -1.973768281936    -1.366495756842    -0.481724288204     1.007825032230

  Basis Set: AUG-CC-PVTZ
    Blend: AUG-CC-PVTZ
  Basis Set: (AUG-CC-PVTZ AUX)
    Blend: AUG-CC-PVTZ-JKFIT
	 Reference Energy          =    -400.0593959964417650 [Eh]
	 Singles Energy            =      -0.0000000000000000 [Eh]
	 Same-Spin Energy          =      -0.4025729089381890 [Eh]
	 Opposite-Spin Energy      =      -1.3096153899334948 [Eh]
	 Correlation Energy        =      -1.7121882988716837 [Eh]
	 Total Energy              =    -401.7715842953134597 [Eh]

	 ================> DF-SCS-MP2 Energies <==================
	-----------------------------------------------------------
	 SCS Same-Spin Scale       =       0.3333333333333333 [-]
	 SCS Opposite-Spin Scale   =       1.2000000000000000 [-]
	 SCS Same-Spin Energy      =      -0.1341909696460630 [Eh]
	 SCS Opposite-Spin Energy  =      -1.5715384679201938 [Eh]
	 SCS Correlation Energy    =      -1.7057294375662568 [Eh]
	 SCS Total Energy          =    -401.7651254340080413 [Eh]
	-----------------------------------------------------------

  Dipole Moment: [D]
     X:     3.6082      Y:     3.1008      Z:     1.4718     Total:     4.9800

*** Psi4 exiting successfully. Buy a developer a beer!
