                               Psi4 1.4a3.dev225

  ==> Input File <==

--------------------------------------------------------------------------
#psi4
#
memory 32 gb

molecule  {
0 1
  O       -2.5334200    -0.7491890    -0.0380440
  O       -0.0309920    -1.3916750    -0.5246560
  N        0.8474210     0.2516040     0.7908210
  C       -1.5793960     0.2040340     0.3844480
  C        2.2299320    -0.1523350     0.5631470
  C       -0.1973044    -0.3956823     0.1759200
  C       -1.7305020     1.4971750    -0.4144490
  C        2.7876300     0.3918150    -0.7462470
  H       -1.7371730     0.4054880     1.4537200
  H        2.8183710     0.1913570     1.4185970
  H        2.2480760    -1.2444890     0.5585260
  H        0.6595560     1.1005830     1.3085070
  H       -1.5202540     1.2971370    -1.4686150
  H       -1.0543700     2.2823790    -0.0604110
  H       -2.7592110     1.8535180    -0.3272230
  H        2.1936920     0.0168210    -1.5822170
  H        2.7616940     1.4848860    -0.7566670
  H        3.8242090     0.0700520    -0.8849050
  H       -2.0046360    -1.4186050    -0.5240660
units angstrom
no_reorient  #important for SAPT in psi4, default
symmetry c1  #important for SAPT in psi4, default
}

set PROPERTIES_ORIGIN ["COM"]
properties('MP2/aug-cc-pvtz', properties = ['dipole'])
--------------------------------------------------------------------------

    Molecular point group: c1
  Charge       = 0
  Multiplicity = 1
  Basis Set: AUG-CC-PVTZ
    Blend: AUG-CC-PVTZ
  Basis Set: (AUG-CC-PVTZ AUX)
    Blend: AUG-CC-PVTZ-JKFIT

    Orbital Energies [Eh]
    ---------------------

    Doubly Occupied:

       1A    -20.550450     2A    -20.536873     3A    -15.595519
       4A    -11.360326     5A    -11.298955     6A    -11.272534
       7A    -11.231455     8A    -11.222629     9A     -1.403363
      10A     -1.349293    11A     -1.238841    12A     -1.051540
      13A     -1.011196    14A     -0.902488    15A     -0.847533
      16A     -0.789208    17A     -0.747238    18A     -0.675098
      19A     -0.646659    20A     -0.638418    21A     -0.613761
      22A     -0.597170    23A     -0.582448    24A     -0.564390
      25A     -0.541452    26A     -0.532630    27A     -0.523426
      28A     -0.515584    29A     -0.502039    30A     -0.448841
      31A     -0.436214    32A     -0.401725

  @DF-RHF Final Energy:  -400.08754739649521

   => Energetics <=

    Nuclear Repulsion Energy =            400.3988801343444948
    One-Electron Energy =               -1339.7142659562239260
    Two-Electron Energy =                 539.2278384253842205
    Total Energy =                       -400.0875473964952107
  Basis Set: (AUG-CC-PVTZ AUX)
    Blend: AUG-CC-PVTZ-RI
    Molecular point group: c1

    Geometry (in Angstrom), charge = 0, multiplicity = 1:

       Center              X                  Y                   Z               Mass
    ------------   -----------------  -----------------  -----------------  -----------------
         O           -2.485979431975    -0.697145125260    -0.044500272611    15.994914619570
         O            0.016448568025    -1.339631125260    -0.531112272611    15.994914619570
         N            0.894861568025     0.303647874740     0.784364727389    14.003074004430
         C           -1.531955431975     0.256077874740     0.377991727389    12.000000000000
         C            2.277372568025    -0.100291125260     0.556690727389    12.000000000000
         C           -0.149863831975    -0.343638425260     0.169463727389    12.000000000000
         C           -1.683061431975     1.549218874740    -0.420905272611    12.000000000000
         C            2.835070568025     0.443858874740    -0.752703272611    12.000000000000
         H           -1.689732431975     0.457531874740     1.447263727389     1.007825032230
         H            2.865811568025     0.243400874740     1.412140727389     1.007825032230
         H            2.295516568025    -1.192445125260     0.552069727389     1.007825032230
         H            0.706996568025     1.152626874740     1.302050727389     1.007825032230
         H           -1.472813431975     1.349180874740    -1.475071272611     1.007825032230
         H           -1.006929431975     2.334422874740    -0.066867272611     1.007825032230
         H           -2.711770431975     1.905561874740    -0.333679272611     1.007825032230
         H            2.241132568025     0.068864874740    -1.588673272611     1.007825032230
         H            2.809134568025     1.536929874740    -0.763123272611     1.007825032230
         H            3.871649568025     0.122095874740    -0.891361272611     1.007825032230
         H           -1.957195431975    -1.366561125260    -0.530522272611     1.007825032230

  Basis Set: AUG-CC-PVTZ
    Blend: AUG-CC-PVTZ
  Basis Set: (AUG-CC-PVTZ AUX)
    Blend: AUG-CC-PVTZ-JKFIT
	 Reference Energy          =    -400.0875473964952107 [Eh]
	 Singles Energy            =      -0.0000000000000000 [Eh]
	 Same-Spin Energy          =      -0.4018849812390946 [Eh]
	 Opposite-Spin Energy      =      -1.3075983715538628 [Eh]
	 Correlation Energy        =      -1.7094833527929574 [Eh]
	 Total Energy              =    -401.7970307492881830 [Eh]

	 ================> DF-SCS-MP2 Energies <==================
	-----------------------------------------------------------
	 SCS Same-Spin Scale       =       0.3333333333333333 [-]
	 SCS Opposite-Spin Scale   =       1.2000000000000000 [-]
	 SCS Same-Spin Energy      =      -0.1339616604130315 [Eh]
	 SCS Opposite-Spin Energy  =      -1.5691180458646354 [Eh]
	 SCS Correlation Energy    =      -1.7030797062776670 [Eh]
	 SCS Total Energy          =    -401.7906271027728735 [Eh]
	-----------------------------------------------------------

  Dipole Moment: [D]
     X:     2.7344      Y:     3.0561      Z:     1.5418     Total:     4.3811

*** Psi4 exiting successfully. Buy a developer a beer!
