                               Psi4 1.3.2 release

  ==> Input File <==

--------------------------------------------------------------------------
#psi4
#
memory 32 gb

molecule  {
0 1
  O       -2.4925410    -0.6205970    -0.1535330
  O       -0.0069960    -1.4050930    -0.3804930
  N        0.8845720     0.3685180     0.7343320
  C       -1.5404070     0.3017530     0.3325960
  C        2.2527222    -0.1118995     0.5982981
  C       -0.1490540    -0.3186880     0.1981930
  C       -1.6458490     1.6048030    -0.4506110
  C        2.8658230     0.2522360    -0.7461750
  H       -1.7322500     0.4923850     1.3997900
  H        2.8336360     0.3321260     1.4253690
  H        2.2399750    -1.1846720     0.7384180
  H        0.7009914     1.2757926     1.1417888
  H       -1.3913480     1.4204780    -1.4971700
  H       -0.9867360     2.3841060    -0.0548340
  H       -2.6752710     1.9656290    -0.4028710
  H        2.2847230    -0.2144000    -1.5438430
  H        2.8717410     1.3343490    -0.8997070
  H        3.8959980    -0.1107530    -0.8084670
  H       -1.9544520    -1.3731060    -0.4835650
units angstrom
no_reorient  #important for SAPT in psi4, default
symmetry c1  #important for SAPT in psi4, default
}

set PROPERTIES_ORIGIN ["COM"]
properties('MP2/aug-cc-pvtz', properties = ['dipole'])
--------------------------------------------------------------------------

    Molecular point group: c1
  Charge       = 0
  Multiplicity = 1
  Basis Set: AUG-CC-PVTZ
    Blend: AUG-CC-PVTZ
  Basis Set: (AUG-CC-PVTZ AUX)
    Blend: AUG-CC-PVTZ-JKFIT

    Orbital Energies [Eh]
    ---------------------

    Doubly Occupied:

       1A    -20.548551     2A    -20.533312     3A    -15.598821
       4A    -11.358670     5A    -11.298174     6A    -11.274272
       7A    -11.231193     8A    -11.223281     9A     -1.398372
      10A     -1.346650    11A     -1.245864    12A     -1.052852
      13A     -1.012907    14A     -0.902537    15A     -0.849115
      16A     -0.794121    17A     -0.744617    18A     -0.677193
      19A     -0.647671    20A     -0.641505    21A     -0.613102
      22A     -0.598310    23A     -0.577113    24A     -0.563654
      25A     -0.543155    26A     -0.534295    27A     -0.520124
      28A     -0.514756    29A     -0.502922    30A     -0.445725
      31A     -0.436021    32A     -0.403657

  @DF-RHF Final Energy:  -400.08762277563983

   => Energetics <=

    Nuclear Repulsion Energy =            400.7022062245939651
    One-Electron Energy =               -1340.3146322514091935
    Two-Electron Energy =                 539.5248032511753991
    Total Energy =                       -400.0876227756398293
  Basis Set: (AUG-CC-PVTZ AUX)
    Blend: AUG-CC-PVTZ-RI
    Molecular point group: c1

    Geometry (in Angstrom), charge = 0, multiplicity = 1:

       Center              X                  Y                   Z               Mass
    ------------   -----------------  -----------------  -----------------  -----------------
         O           -2.492031148472    -0.619482403432    -0.152986520128    15.994914619570
         O           -0.006486148472    -1.403978403432    -0.379946520128    15.994914619570
         N            0.885081851528     0.369632596568     0.734878479872    14.003074004430
         C           -1.539897148472     0.302867596568     0.333142479872    12.000000000000
         C            2.253232051528    -0.110784903432     0.598844579872    12.000000000000
         C           -0.148544148472    -0.317573403432     0.198739479872    12.000000000000
         C           -1.645339148472     1.605917596568    -0.450064520128    12.000000000000
         C            2.866332851528     0.253350596568    -0.745628520128    12.000000000000
         H           -1.731740148472     0.493499596568     1.400336479872     1.007825032230
         H            2.834145851528     0.333240596568     1.425915479872     1.007825032230
         H            2.240484851528    -1.183557403432     0.738964479872     1.007825032230
         H            0.701501251528     1.276907196568     1.142335279872     1.007825032230
         H           -1.390838148472     1.421592596568    -1.496623520128     1.007825032230
         H           -0.986226148472     2.385220596568    -0.054287520128     1.007825032230
         H           -2.674761148472     1.966743596568    -0.402324520128     1.007825032230
         H            2.285232851528    -0.213285403432    -1.543296520128     1.007825032230
         H            2.872250851528     1.335463596568    -0.899160520128     1.007825032230
         H            3.896507851528    -0.109638403432    -0.807920520128     1.007825032230
         H           -1.953942148472    -1.371991403432    -0.483018520128     1.007825032230

  Basis Set: AUG-CC-PVTZ
    Blend: AUG-CC-PVTZ
  Basis Set: (AUG-CC-PVTZ AUX)
    Blend: AUG-CC-PVTZ-JKFIT
	 Reference Energy          =    -400.0876227756398293 [Eh]
	 Singles Energy            =      -0.0000000000000000 [Eh]
	 Same-Spin Energy          =      -0.4021157846487441 [Eh]
	 Opposite-Spin Energy      =      -1.3076814359346545 [Eh]
	 Correlation Energy        =      -1.7097972205833987 [Eh]
	 Total Energy              =    -401.7974199962232547 [Eh]

	 ================> DF-SCS-MP2 Energies <==================
	-----------------------------------------------------------
	 SCS Same-Spin Scale       =       0.3333333333333333 [-]
	 SCS Opposite-Spin Scale   =       1.2000000000000000 [-]
	 SCS Same-Spin Energy      =      -0.1340385948829147 [Eh]
	 SCS Opposite-Spin Energy  =      -1.5692177231215854 [Eh]
	 SCS Correlation Energy    =      -1.7032563180045002 [Eh]
	 SCS Total Energy          =    -401.7908790936443211 [Eh]
	-----------------------------------------------------------

  Dipole Moment: [D]
     X:     2.8947      Y:     3.1408      Z:     1.5539     Total:     4.5452

*** Psi4 exiting successfully. Buy a developer a beer!
