                               Psi4 1.3.2 release

  ==> Input File <==

--------------------------------------------------------------------------
#psi4
#
memory 32 gb

molecule  {
0 1
  O       -2.4925410    -0.6205970    -0.1535330
  O       -0.0069960    -1.4050930    -0.3804930
  N        0.8845720     0.3685180     0.7343320
  C       -1.5404070     0.3017530     0.3325960
  C        2.2569670    -0.1011270     0.6035390
  C       -0.1342395    -0.3361710     0.1925605
  C       -1.6458490     1.6048030    -0.4506110
  C        2.8658230     0.2522360    -0.7461750
  H       -1.7322500     0.4923850     1.3997900
  H        2.8336360     0.3321260     1.4253690
  H        2.2399750    -1.1846720     0.7384180
  H        0.7268059     1.2783429     1.1468834
  H       -1.3913480     1.4204780    -1.4971700
  H       -0.9867360     2.3841060    -0.0548340
  H       -2.6752710     1.9656290    -0.4028710
  H        2.2847230    -0.2144000    -1.5438430
  H        2.8717410     1.3343490    -0.8997070
  H        3.8959980    -0.1107530    -0.8084670
  H       -1.9544520    -1.3731060    -0.4835650
units angstrom
no_reorient  #important for SAPT in psi4, default
symmetry c1  #important for SAPT in psi4, default
}

set PROPERTIES_ORIGIN ["COM"]
properties('MP2/aug-cc-pvtz', properties = ['dipole'])
--------------------------------------------------------------------------

    Molecular point group: c1
  Charge       = 0
  Multiplicity = 1
  Basis Set: AUG-CC-PVTZ
    Blend: AUG-CC-PVTZ
  Basis Set: (AUG-CC-PVTZ AUX)
    Blend: AUG-CC-PVTZ-JKFIT

    Orbital Energies [Eh]
    ---------------------

    Doubly Occupied:

       1A    -20.547714     2A    -20.536445     3A    -15.597284
       4A    -11.357925     5A    -11.296815     6A    -11.273028
       7A    -11.229552     8A    -11.223262     9A     -1.407562
      10A     -1.348258    11A     -1.247422    12A     -1.049471
      13A     -1.011338    14A     -0.899827    15A     -0.846434
      16A     -0.796642    17A     -0.743436    18A     -0.676673
      19A     -0.647255    20A     -0.644096    21A     -0.613588
      22A     -0.600279    23A     -0.576836    24A     -0.562378
      25A     -0.542839    26A     -0.533309    27A     -0.525010
      28A     -0.516248    29A     -0.502997    30A     -0.444803
      31A     -0.433407    32A     -0.404692

  @DF-RHF Final Energy:  -400.08864184915114

   => Energetics <=

    Nuclear Repulsion Energy =            400.6920501151269036
    One-Electron Energy =               -1340.2877355673917918
    Two-Electron Energy =                 539.5070436031137433
    Total Energy =                       -400.0886418491511449
  Basis Set: (AUG-CC-PVTZ AUX)
    Blend: AUG-CC-PVTZ-RI
    Molecular point group: c1

    Geometry (in Angstrom), charge = 0, multiplicity = 1:

       Center              X                  Y                   Z               Mass
    ------------   -----------------  -----------------  -----------------  -----------------
         O           -2.494206843053    -0.618816564485    -0.152990237836    15.994914619570
         O           -0.008661843053    -1.403312564485    -0.379950237836    15.994914619570
         N            0.882906156947     0.370298435515     0.734874762164    14.003074004430
         C           -1.542072843053     0.303533435515     0.333138762164    12.000000000000
         C            2.255301156947    -0.099346564485     0.604081762164    12.000000000000
         C           -0.135905343053    -0.334390564485     0.193103262164    12.000000000000
         C           -1.647514843053     1.606583435515    -0.450068237836    12.000000000000
         C            2.864157156947     0.254016435515    -0.745632237836    12.000000000000
         H           -1.733915843053     0.494165435515     1.400332762164     1.007825032230
         H            2.831970156947     0.333906435515     1.425911762164     1.007825032230
         H            2.238309156947    -1.182891564485     0.738960762164     1.007825032230
         H            0.725140056947     1.280123335515     1.147426162164     1.007825032230
         H           -1.393013843053     1.422258435515    -1.496627237836     1.007825032230
         H           -0.988401843053     2.385886435515    -0.054291237836     1.007825032230
         H           -2.676936843053     1.967409435515    -0.402328237836     1.007825032230
         H            2.283057156947    -0.212619564485    -1.543300237836     1.007825032230
         H            2.870075156947     1.336129435515    -0.899164237836     1.007825032230
         H            3.894332156947    -0.108972564485    -0.807924237836     1.007825032230
         H           -1.956117843053    -1.371325564485    -0.483022237836     1.007825032230

  Basis Set: AUG-CC-PVTZ
    Blend: AUG-CC-PVTZ
  Basis Set: (AUG-CC-PVTZ AUX)
    Blend: AUG-CC-PVTZ-JKFIT
	 Reference Energy          =    -400.0886418491511449 [Eh]
	 Singles Energy            =      -0.0000000000000000 [Eh]
	 Same-Spin Energy          =      -0.4016508981980934 [Eh]
	 Opposite-Spin Energy      =      -1.3067959588799942 [Eh]
	 Correlation Energy        =      -1.7084468570780875 [Eh]
	 Total Energy              =    -401.7970887062292604 [Eh]

	 ================> DF-SCS-MP2 Energies <==================
	-----------------------------------------------------------
	 SCS Same-Spin Scale       =       0.3333333333333333 [-]
	 SCS Opposite-Spin Scale   =       1.2000000000000000 [-]
	 SCS Same-Spin Energy      =      -0.1338836327326978 [Eh]
	 SCS Opposite-Spin Energy  =      -1.5681551506559930 [Eh]
	 SCS Correlation Energy    =      -1.7020387833886907 [Eh]
	 SCS Total Energy          =    -401.7906806325398179 [Eh]
	-----------------------------------------------------------

  Dipole Moment: [D]
     X:     2.9488      Y:     3.0560      Z:     1.5328     Total:     4.5148

*** Psi4 exiting successfully. Buy a developer a beer!
