                               Psi4 1.3.2 release

  ==> Input File <==

--------------------------------------------------------------------------
#psi4
#
memory 32 gb

molecule  {
0 1
  O       -2.4925410    -0.6205970    -0.1535330
  O       -0.0069960    -1.4050930    -0.3804930
  N        0.8845720     0.3685180     0.7343320
  C       -1.5587133     0.3169956     0.3389060
  C        2.2569670    -0.1011270     0.6035390
  C       -0.1490540    -0.3186880     0.1981930
  C       -1.6458490     1.6048030    -0.4506110
  C        2.8658230     0.2522360    -0.7461750
  H       -1.7322500     0.4923850     1.3997900
  H        2.8336360     0.3321260     1.4253690
  H        2.2399750    -1.1846720     0.7384180
  H        0.7096630     1.2770080     1.1428940
  H       -1.3913480     1.4204780    -1.4971700
  H       -0.9867360     2.3841060    -0.0548340
  H       -2.6752710     1.9656290    -0.4028710
  H        2.2847230    -0.2144000    -1.5438430
  H        2.8717410     1.3343490    -0.8997070
  H        3.8959980    -0.1107530    -0.8084670
  H       -1.9688532    -1.3812027    -0.4881384
units angstrom
no_reorient  #important for SAPT in psi4, default
symmetry c1  #important for SAPT in psi4, default
}

set PROPERTIES_ORIGIN ["COM"]
properties('MP2/aug-cc-pvtz', properties = ['dipole'])
--------------------------------------------------------------------------

    Molecular point group: c1
  Charge       = 0
  Multiplicity = 1
  Basis Set: AUG-CC-PVTZ
    Blend: AUG-CC-PVTZ
  Basis Set: (AUG-CC-PVTZ AUX)
    Blend: AUG-CC-PVTZ-JKFIT

    Orbital Energies [Eh]
    ---------------------

    Doubly Occupied:

       1A    -20.547704     2A    -20.532661     3A    -15.598254
       4A    -11.358514     5A    -11.298474     6A    -11.273529
       7A    -11.230544     8A    -11.222976     9A     -1.396186
      10A     -1.345611    11A     -1.244897    12A     -1.052354
      13A     -1.013872    14A     -0.900285    15A     -0.848525
      16A     -0.793833    17A     -0.742956    18A     -0.677027
      19A     -0.649145    20A     -0.640804    21A     -0.612594
      22A     -0.597197    23A     -0.579998    24A     -0.563539
      25A     -0.541951    26A     -0.534818    27A     -0.520962
      28A     -0.511371    29A     -0.501571    30A     -0.448189
      31A     -0.432013    32A     -0.403071

  @DF-RHF Final Energy:  -400.08738709838815

   => Energetics <=

    Nuclear Repulsion Energy =            400.2858198987207743
    One-Electron Energy =               -1339.5155730384435628
    Two-Electron Energy =                 539.1423660413346397
    Total Energy =                       -400.0873870983881488
  Basis Set: (AUG-CC-PVTZ AUX)
    Blend: AUG-CC-PVTZ-RI
    Molecular point group: c1

    Geometry (in Angstrom), charge = 0, multiplicity = 1:

       Center              X                  Y                   Z               Mass
    ------------   -----------------  -----------------  -----------------  -----------------
         O           -2.490540595374    -0.622089584134    -0.154140574108    15.994914619570
         O           -0.004995595374    -1.406585584134    -0.381100574108    15.994914619570
         N            0.886572404626     0.367025415866     0.733724425892    14.003074004430
         C           -1.556712895374     0.315503015866     0.338298425892    12.000000000000
         C            2.258967404626    -0.102619584134     0.602931425892    12.000000000000
         C           -0.147053595374    -0.320180584134     0.197585425892    12.000000000000
         C           -1.643848595374     1.603310415866    -0.451218574108    12.000000000000
         C            2.867823404626     0.250743415866    -0.746782574108    12.000000000000
         H           -1.730249595374     0.490892415866     1.399182425892     1.007825032230
         H            2.835636404626     0.330633415866     1.424761425892     1.007825032230
         H            2.241975404626    -1.186164584134     0.737810425892     1.007825032230
         H            0.711663404626     1.275515415866     1.142286425892     1.007825032230
         H           -1.389347595374     1.418985415866    -1.497777574108     1.007825032230
         H           -0.984735595374     2.382613415866    -0.055441574108     1.007825032230
         H           -2.673270595374     1.964136415866    -0.403478574108     1.007825032230
         H            2.286723404626    -0.215892584134    -1.544450574108     1.007825032230
         H            2.873741404626     1.332856415866    -0.900314574108     1.007825032230
         H            3.897998404626    -0.112245584134    -0.809074574108     1.007825032230
         H           -1.966852795374    -1.382695284134    -0.488745974108     1.007825032230

  Basis Set: AUG-CC-PVTZ
    Blend: AUG-CC-PVTZ
  Basis Set: (AUG-CC-PVTZ AUX)
    Blend: AUG-CC-PVTZ-JKFIT
	 Reference Energy          =    -400.0873870983881488 [Eh]
	 Singles Energy            =      -0.0000000000000000 [Eh]
	 Same-Spin Energy          =      -0.4020141868825755 [Eh]
	 Opposite-Spin Energy      =      -1.3075229308168956 [Eh]
	 Correlation Energy        =      -1.7095371176994711 [Eh]
	 Total Energy              =    -401.7969242160876320 [Eh]

	 ================> DF-SCS-MP2 Energies <==================
	-----------------------------------------------------------
	 SCS Same-Spin Scale       =       0.3333333333333333 [-]
	 SCS Opposite-Spin Scale   =       1.2000000000000000 [-]
	 SCS Same-Spin Energy      =      -0.1340047289608585 [Eh]
	 SCS Opposite-Spin Energy  =      -1.5690275169802748 [Eh]
	 SCS Correlation Energy    =      -1.7030322459411331 [Eh]
	 SCS Total Energy          =    -401.7904193443292797 [Eh]
	-----------------------------------------------------------

  Dipole Moment: [D]
     X:     2.8785      Y:     3.1482      Z:     1.5577     Total:     4.5413

*** Psi4 exiting successfully. Buy a developer a beer!
