                               Psi4 1.3.2 release

  ==> Input File <==

--------------------------------------------------------------------------
#psi4
#
memory 32 gb

molecule  {
0 1
  O       -2.4925410    -0.6205970    -0.1535330
  O       -0.0069960    -1.4050930    -0.3804930
  N        0.8845720     0.3685180     0.7343320
  C       -1.5404070     0.3017530     0.3325960
  C        2.2569670    -0.1011270     0.6035390
  C       -0.0726060    -0.2678616     0.2378463
  C       -1.6458490     1.6048030    -0.4506110
  C        2.8658230     0.2522360    -0.7461750
  H       -1.7322500     0.4923850     1.3997900
  H        2.8336360     0.3321260     1.4253690
  H        2.2399750    -1.1846720     0.7384180
  H        0.7096630     1.2770080     1.1428940
  H       -1.3913480     1.4204780    -1.4971700
  H       -0.9867360     2.3841060    -0.0548340
  H       -2.6752710     1.9656290    -0.4028710
  H        2.2847230    -0.2144000    -1.5438430
  H        2.8717410     1.3343490    -0.8997070
  H        3.8959980    -0.1107530    -0.8084670
  H       -1.9544520    -1.3731060    -0.4835650
units angstrom
no_reorient  #important for SAPT in psi4, default
symmetry c1  #important for SAPT in psi4, default
}

set PROPERTIES_ORIGIN ["COM"]
properties('MP2/aug-cc-pvtz', properties = ['dipole'])
--------------------------------------------------------------------------

    Molecular point group: c1
  Charge       = 0
  Multiplicity = 1
  Basis Set: AUG-CC-PVTZ
    Blend: AUG-CC-PVTZ
  Basis Set: (AUG-CC-PVTZ AUX)
    Blend: AUG-CC-PVTZ-JKFIT

    Orbital Energies [Eh]
    ---------------------

    Doubly Occupied:

       1A    -20.544278     2A    -20.513562     3A    -15.615910
       4A    -11.351611     5A    -11.297136     6A    -11.283256
       7A    -11.229829     8A    -11.227798     9A     -1.378854
      10A     -1.340604    11A     -1.263290    12A     -1.058307
      13A     -1.017277    14A     -0.906766    15A     -0.849434
      16A     -0.820210    17A     -0.736925    18A     -0.679238
      19A     -0.650243    20A     -0.631923    21A     -0.621247
      22A     -0.597928    23A     -0.572352    24A     -0.561839
      25A     -0.547663    26A     -0.533860    27A     -0.519817
      28A     -0.506976    29A     -0.496235    30A     -0.439887
      31A     -0.417828    32A     -0.408066

  @DF-RHF Final Energy:  -400.07012896259403

   => Energetics <=

    Nuclear Repulsion Energy =            400.7239549457781322
    One-Electron Energy =               -1340.3478747110414133
    Two-Electron Energy =                 539.5537908026692548
    Total Energy =                       -400.0701289625940262
  Basis Set: (AUG-CC-PVTZ AUX)
    Blend: AUG-CC-PVTZ-RI
    Molecular point group: c1

    Geometry (in Angstrom), charge = 0, multiplicity = 1:

       Center              X                  Y                   Z               Mass
    ------------   -----------------  -----------------  -----------------  -----------------
         O           -2.500376395990    -0.625806439731    -0.157597461005    15.994914619570
         O           -0.014831395990    -1.410302439731    -0.384557461005    15.994914619570
         N            0.876736604010     0.363308560269     0.730267538995    14.003074004430
         C           -1.548242395990     0.296543560269     0.328531538995    12.000000000000
         C            2.249131604010    -0.106336439731     0.599474538995    12.000000000000
         C           -0.080441395990    -0.273071039731     0.233781838995    12.000000000000
         C           -1.653684395990     1.599593560269    -0.454675461005    12.000000000000
         C            2.857987604010     0.247026560269    -0.750239461005    12.000000000000
         H           -1.740085395990     0.487175560269     1.395725538995     1.007825032230
         H            2.825800604010     0.326916560269     1.421304538995     1.007825032230
         H            2.232139604010    -1.189881439731     0.734353538995     1.007825032230
         H            0.701827604010     1.271798560269     1.138829538995     1.007825032230
         H           -1.399183395990     1.415268560269    -1.501234461005     1.007825032230
         H           -0.994571395990     2.378896560269    -0.058898461005     1.007825032230
         H           -2.683106395990     1.960419560269    -0.406935461005     1.007825032230
         H            2.276887604010    -0.219609439731    -1.547907461005     1.007825032230
         H            2.863905604010     1.329139560269    -0.903771461005     1.007825032230
         H            3.888162604010    -0.115962439731    -0.812531461005     1.007825032230
         H           -1.962287395990    -1.378315439731    -0.487629461005     1.007825032230

  Basis Set: AUG-CC-PVTZ
    Blend: AUG-CC-PVTZ
  Basis Set: (AUG-CC-PVTZ AUX)
    Blend: AUG-CC-PVTZ-JKFIT
	 Reference Energy          =    -400.0701289625940262 [Eh]
	 Singles Energy            =      -0.0000000000000000 [Eh]
	 Same-Spin Energy          =      -0.4029210417284455 [Eh]
	 Opposite-Spin Energy      =      -1.3090058392039003 [Eh]
	 Correlation Energy        =      -1.7119268809323458 [Eh]
	 Total Energy              =    -401.7820558435263933 [Eh]

	 ================> DF-SCS-MP2 Energies <==================
	-----------------------------------------------------------
	 SCS Same-Spin Scale       =       0.3333333333333333 [-]
	 SCS Opposite-Spin Scale   =       1.2000000000000000 [-]
	 SCS Same-Spin Energy      =      -0.1343070139094818 [Eh]
	 SCS Opposite-Spin Energy  =      -1.5708070070446805 [Eh]
	 SCS Correlation Energy    =      -1.7051140209541622 [Eh]
	 SCS Total Energy          =    -401.7752429835481962 [Eh]
	-----------------------------------------------------------

  Dipole Moment: [D]
     X:     3.5212      Y:     3.5508      Z:     1.8457     Total:     5.3304

*** Psi4 exiting successfully. Buy a developer a beer!
