                               Psi4 1.3.2 release

  ==> Input File <==

--------------------------------------------------------------------------
#psi4
#
memory 32 gb

molecule  {
0 1
  O       -2.4925410    -0.6205970    -0.1535330
  O       -0.0069960    -1.4050930    -0.3804930
  N        0.8845720     0.3685180     0.7343320
  C       -1.5404070     0.3017530     0.3325960
  C        2.2569670    -0.1011270     0.6035390
  C       -0.1490540    -0.3186880     0.1981930
  C       -1.6458490     1.6048030    -0.4506110
  C        2.8658230     0.2522360    -0.7461750
  H       -1.7322500     0.4923850     1.3997900
  H        2.8336360     0.3321260     1.4253690
  H        2.2399750    -1.1846720     0.7384180
  H        0.7096630     1.2770080     1.1428940
  H       -1.3913480     1.4204780    -1.4971700
  H       -0.9867360     2.3841060    -0.0548340
  H       -2.6752710     1.9656290    -0.4028710
  H        2.2847230    -0.2144000    -1.5438430
  H        2.8717410     1.3343490    -0.8997070
  H        3.8959980    -0.1107530    -0.8084670
  H       -1.8448847    -1.5263342    -0.5507671
units angstrom
no_reorient  #important for SAPT in psi4, default
symmetry c1  #important for SAPT in psi4, default
}

set PROPERTIES_ORIGIN ["COM"]
properties('MP2/aug-cc-pvtz', properties = ['dipole'])
--------------------------------------------------------------------------

    Molecular point group: c1
  Charge       = 0
  Multiplicity = 1
  Basis Set: AUG-CC-PVTZ
    Blend: AUG-CC-PVTZ
  Basis Set: (AUG-CC-PVTZ AUX)
    Blend: AUG-CC-PVTZ-JKFIT

    Orbital Energies [Eh]
    ---------------------

    Doubly Occupied:

       1A    -20.549186     2A    -20.539667     3A    -15.600821
       4A    -11.360856     5A    -11.293990     6A    -11.275284
       7A    -11.228644     8A    -11.224463     9A     -1.398120
      10A     -1.314318    11A     -1.248108    12A     -1.048618
      13A     -1.008786    14A     -0.902045    15A     -0.845445
      16A     -0.795290    17A     -0.726606    18A     -0.673974
      19A     -0.643320    20A     -0.635672    21A     -0.613032
      22A     -0.599166    23A     -0.569074    24A     -0.558434
      25A     -0.540872    26A     -0.530422    27A     -0.522996
      28A     -0.504076    29A     -0.487521    30A     -0.440973
      31A     -0.435765    32A     -0.405569

  @DF-RHF Final Energy:  -400.05444918039706

   => Energetics <=

    Nuclear Repulsion Energy =            399.8242702585010306
    One-Electron Energy =               -1338.7152095871254005
    Two-Electron Energy =                 538.8364901482274263
    Total Energy =                       -400.0544491803970004
  Basis Set: (AUG-CC-PVTZ AUX)
    Blend: AUG-CC-PVTZ-RI
    Molecular point group: c1

    Geometry (in Angstrom), charge = 0, multiplicity = 1:

       Center              X                  Y                   Z               Mass
    ------------   -----------------  -----------------  -----------------  -----------------
         O           -2.493484028615    -0.619277991800    -0.152954718430    15.994914619570
         O           -0.007939028615    -1.403773991800    -0.379914718430    15.994914619570
         N            0.883628971385     0.369837008200     0.734910281570    14.003074004430
         C           -1.541350028615     0.303072008200     0.333174281570    12.000000000000
         C            2.256023971385    -0.099807991800     0.604117281570    12.000000000000
         C           -0.149997028615    -0.317368991800     0.198771281570    12.000000000000
         C           -1.646792028615     1.606122008200    -0.450032718430    12.000000000000
         C            2.864879971385     0.253555008200    -0.745596718430    12.000000000000
         H           -1.733193028615     0.493704008200     1.400368281570     1.007825032230
         H            2.832692971385     0.333445008200     1.425947281570     1.007825032230
         H            2.239031971385    -1.183352991800     0.738996281570     1.007825032230
         H            0.708719971385     1.278327008200     1.143472281570     1.007825032230
         H           -1.392291028615     1.421797008200    -1.496591718430     1.007825032230
         H           -0.987679028615     2.385425008200    -0.054255718430     1.007825032230
         H           -2.676214028615     1.966948008200    -0.402292718430     1.007825032230
         H            2.283779971385    -0.213080991800    -1.543264718430     1.007825032230
         H            2.870797971385     1.335668008200    -0.899128718430     1.007825032230
         H            3.895054971385    -0.109433991800    -0.807888718430     1.007825032230
         H           -1.845827728615    -1.525015191800    -0.550188818430     1.007825032230

  Basis Set: AUG-CC-PVTZ
    Blend: AUG-CC-PVTZ
  Basis Set: (AUG-CC-PVTZ AUX)
    Blend: AUG-CC-PVTZ-JKFIT
	 Reference Energy          =    -400.0544491803970573 [Eh]
	 Singles Energy            =      -0.0000000000000000 [Eh]
	 Same-Spin Energy          =      -0.4053237774714594 [Eh]
	 Opposite-Spin Energy      =      -1.3143340590537527 [Eh]
	 Correlation Energy        =      -1.7196578365252120 [Eh]
	 Total Energy              =    -401.7741070169222439 [Eh]

	 ================> DF-SCS-MP2 Energies <==================
	-----------------------------------------------------------
	 SCS Same-Spin Scale       =       0.3333333333333333 [-]
	 SCS Opposite-Spin Scale   =       1.2000000000000000 [-]
	 SCS Same-Spin Energy      =      -0.1351079258238198 [Eh]
	 SCS Opposite-Spin Energy  =      -1.5772008708645031 [Eh]
	 SCS Correlation Energy    =      -1.7123087966883230 [Eh]
	 SCS Total Energy          =    -401.7667579770853763 [Eh]
	-----------------------------------------------------------

  Dipole Moment: [D]
     X:     3.2580      Y:     2.9632      Z:     1.5027     Total:     4.6533

*** Psi4 exiting successfully. Buy a developer a beer!
