                               Psi4 1.3.2 release

  ==> Input File <==

--------------------------------------------------------------------------
#psi4
#
memory 32 gb

molecule  {
0 1
  O       -2.4925410    -0.6205970    -0.1535330
  O       -0.0069960    -1.4050930    -0.3804930
  N        0.8845720     0.3685180     0.7343320
  C       -1.5404070     0.3017530     0.3325960
  C        2.2569670    -0.1011270     0.6035390
  C       -0.1415706    -0.3139784     0.2777701
  C       -1.6458490     1.6048030    -0.4506110
  C        2.8658230     0.2522360    -0.7461750
  H       -1.6800958     0.4708028     1.4114642
  H        2.8336360     0.3321260     1.4253690
  H        2.2399750    -1.1846720     0.7384180
  H        0.7096630     1.2770080     1.1428940
  H       -1.3913480     1.4204780    -1.4971700
  H       -0.9867360     2.3841060    -0.0548340
  H       -2.6752710     1.9656290    -0.4028710
  H        2.2847230    -0.2144000    -1.5438430
  H        2.8717410     1.3343490    -0.8997070
  H        3.8959980    -0.1107530    -0.8084670
  H       -1.9544520    -1.3731060    -0.4835650
units angstrom
no_reorient  #important for SAPT in psi4, default
symmetry c1  #important for SAPT in psi4, default
}

set PROPERTIES_ORIGIN ["COM"]
properties('MP2/aug-cc-pvtz', properties = ['dipole'])
--------------------------------------------------------------------------

    Molecular point group: c1
  Charge       = 0
  Multiplicity = 1
  Basis Set: AUG-CC-PVTZ
    Blend: AUG-CC-PVTZ
  Basis Set: (AUG-CC-PVTZ AUX)
    Blend: AUG-CC-PVTZ-JKFIT

    Orbital Energies [Eh]
    ---------------------

    Doubly Occupied:

       1A    -20.548027     2A    -20.522593     3A    -15.607187
       4A    -11.357509     5A    -11.299318     6A    -11.278195
       7A    -11.232368     8A    -11.225336     9A     -1.382203
      10A     -1.339539    11A     -1.251722    12A     -1.056177
      13A     -1.016096    14A     -0.907398    15A     -0.853650
      16A     -0.802581    17A     -0.739439    18A     -0.677200
      19A     -0.651866    20A     -0.633691    21A     -0.614304
      22A     -0.595952    23A     -0.574545    24A     -0.563990
      25A     -0.545100    26A     -0.535165    27A     -0.516650
      28A     -0.505899    29A     -0.502056    30A     -0.445967
      31A     -0.429008    32A     -0.404044

  @DF-RHF Final Energy:  -400.07896693954581

   => Energetics <=

    Nuclear Repulsion Energy =            400.3660640518849618
    One-Electron Energy =               -1339.6605179459697865
    Two-Electron Energy =                 539.2154869545390738
    Total Energy =                       -400.0789669395458077
  Basis Set: (AUG-CC-PVTZ AUX)
    Blend: AUG-CC-PVTZ-RI
    Molecular point group: c1

    Geometry (in Angstrom), charge = 0, multiplicity = 1:

       Center              X                  Y                   Z               Mass
    ------------   -----------------  -----------------  -----------------  -----------------
         O           -2.493756822596    -0.620893920949    -0.161789939936    15.994914619570
         O           -0.008211822596    -1.405389920949    -0.388749939936    15.994914619570
         N            0.883356177404     0.368221079051     0.726075060064    14.003074004430
         C           -1.541622822596     0.301456079051     0.324339060064    12.000000000000
         C            2.255751177404    -0.101423920949     0.595282060064    12.000000000000
         C           -0.142786422596    -0.314275320949     0.269513160064    12.000000000000
         C           -1.647064822596     1.604506079051    -0.458867939936    12.000000000000
         C            2.864607177404     0.251939079051    -0.754431939936    12.000000000000
         H           -1.681311622596     0.470505879051     1.403207260064     1.007825032230
         H            2.832420177404     0.331829079051     1.417112060064     1.007825032230
         H            2.238759177404    -1.184968920949     0.730161060064     1.007825032230
         H            0.708447177404     1.276711079051     1.134637060064     1.007825032230
         H           -1.392563822596     1.420181079051    -1.505426939936     1.007825032230
         H           -0.987951822596     2.383809079051    -0.063090939936     1.007825032230
         H           -2.676486822596     1.965332079051    -0.411127939936     1.007825032230
         H            2.283507177404    -0.214696920949    -1.552099939936     1.007825032230
         H            2.870525177404     1.334052079051    -0.907963939936     1.007825032230
         H            3.894782177404    -0.111049920949    -0.816723939936     1.007825032230
         H           -1.955667822596    -1.373402920949    -0.491821939936     1.007825032230

  Basis Set: AUG-CC-PVTZ
    Blend: AUG-CC-PVTZ
  Basis Set: (AUG-CC-PVTZ AUX)
    Blend: AUG-CC-PVTZ-JKFIT
	 Reference Energy          =    -400.0789669395458077 [Eh]
	 Singles Energy            =      -0.0000000000000000 [Eh]
	 Same-Spin Energy          =      -0.4029638845174353 [Eh]
	 Opposite-Spin Energy      =      -1.3093049067957909 [Eh]
	 Correlation Energy        =      -1.7122687913132262 [Eh]
	 Total Energy              =    -401.7912357308590572 [Eh]

	 ================> DF-SCS-MP2 Energies <==================
	-----------------------------------------------------------
	 SCS Same-Spin Scale       =       0.3333333333333333 [-]
	 SCS Opposite-Spin Scale   =       1.2000000000000000 [-]
	 SCS Same-Spin Energy      =      -0.1343212948391451 [Eh]
	 SCS Opposite-Spin Energy  =      -1.5711658881549491 [Eh]
	 SCS Correlation Energy    =      -1.7054871829940941 [Eh]
	 SCS Total Energy          =    -401.7844541225398984 [Eh]
	-----------------------------------------------------------

  Dipole Moment: [D]
     X:     3.1125      Y:     3.3748      Z:     1.7150     Total:     4.9008

*** Psi4 exiting successfully. Buy a developer a beer!
