                               Psi4 1.3.2 release

  ==> Input File <==

--------------------------------------------------------------------------
#psi4
#
memory 32 gb

molecule  {
0 1
  O       -2.4370479    -0.6671594    -0.1682572
  O       -0.0069960    -1.4050930    -0.3804930
  N        0.8845720     0.3685180     0.7343320
  C       -1.5404070     0.3017530     0.3325960
  C        2.2569670    -0.1011270     0.6035390
  C       -0.1834512    -0.3838897     0.1669478
  C       -1.6458490     1.6048030    -0.4506110
  C        2.8658230     0.2522360    -0.7461750
  H       -1.7322500     0.4923850     1.3997900
  H        2.8336360     0.3321260     1.4253690
  H        2.2399750    -1.1846720     0.7384180
  H        0.7096630     1.2770080     1.1428940
  H       -1.3913480     1.4204780    -1.4971700
  H       -0.9867360     2.3841060    -0.0548340
  H       -2.6752710     1.9656290    -0.4028710
  H        2.2847230    -0.2144000    -1.5438430
  H        2.8717410     1.3343490    -0.8997070
  H        3.8959980    -0.1107530    -0.8084670
  H       -1.9544520    -1.3731060    -0.4835650
units angstrom
no_reorient  #important for SAPT in psi4, default
symmetry c1  #important for SAPT in psi4, default
}

set PROPERTIES_ORIGIN ["COM"]
properties('MP2/aug-cc-pvtz', properties = ['dipole'])
--------------------------------------------------------------------------

    Molecular point group: c1
  Charge       = 0
  Multiplicity = 1
  Basis Set: AUG-CC-PVTZ
    Blend: AUG-CC-PVTZ
  Basis Set: (AUG-CC-PVTZ AUX)
    Blend: AUG-CC-PVTZ-JKFIT

    Orbital Energies [Eh]
    ---------------------

    Doubly Occupied:

       1A    -20.548166     2A    -20.543335     3A    -15.581105
       4A    -11.357944     5A    -11.300475     6A    -11.265228
       7A    -11.233328     8A    -11.217847     9A     -1.441000
      10A     -1.368301    11A     -1.222697    12A     -1.050817
      13A     -1.005674    14A     -0.899865    15A     -0.844349
      16A     -0.780934    17A     -0.755400    18A     -0.687452
      19A     -0.657506    20A     -0.642132    21A     -0.614225
      22A     -0.597392    23A     -0.583994    24A     -0.563203
      25A     -0.544005    26A     -0.536670    27A     -0.529547
      28A     -0.521966    29A     -0.499022    30A     -0.451682
      31A     -0.435758    32A     -0.394074

  @DF-RHF Final Energy:  -400.08057091295348

   => Energetics <=

    Nuclear Repulsion Energy =            401.7584921602741588
    One-Electron Energy =               -1342.3279393235400221
    Two-Electron Energy =                 540.4888762503123871
    Total Energy =                       -400.0805709129534762
  Basis Set: (AUG-CC-PVTZ AUX)
    Blend: AUG-CC-PVTZ-RI
    Molecular point group: c1

    Geometry (in Angstrom), charge = 0, multiplicity = 1:

       Center              X                  Y                   Z               Mass
    ------------   -----------------  -----------------  -----------------  -----------------
         O           -2.441103497013    -0.654115359576    -0.163043357292    15.994914619570
         O           -0.011051597013    -1.392048959576    -0.375279157292    15.994914619570
         N            0.880516402987     0.381562040424     0.739545842708    14.003074004430
         C           -1.544462597013     0.314797040424     0.337809842708    12.000000000000
         C            2.252911402987    -0.088082959576     0.608752842708    12.000000000000
         C           -0.187506797013    -0.370845659576     0.172161642708    12.000000000000
         C           -1.649904597013     1.617847040424    -0.445397157292    12.000000000000
         C            2.861767402987     0.265280040424    -0.740961157292    12.000000000000
         H           -1.736305597013     0.505429040424     1.405003842708     1.007825032230
         H            2.829580402987     0.345170040424     1.430582842708     1.007825032230
         H            2.235919402987    -1.171627959576     0.743631842708     1.007825032230
         H            0.705607402987     1.290052040424     1.148107842708     1.007825032230
         H           -1.395403597013     1.433522040424    -1.491956157292     1.007825032230
         H           -0.990791597013     2.397150040424    -0.049620157292     1.007825032230
         H           -2.679326597013     1.978673040424    -0.397657157292     1.007825032230
         H            2.280667402987    -0.201355959576    -1.538629157292     1.007825032230
         H            2.867685402987     1.347393040424    -0.894493157292     1.007825032230
         H            3.891942402987    -0.097708959576    -0.803253157292     1.007825032230
         H           -1.958507597013    -1.360061959576    -0.478351157292     1.007825032230

  Basis Set: AUG-CC-PVTZ
    Blend: AUG-CC-PVTZ
  Basis Set: (AUG-CC-PVTZ AUX)
    Blend: AUG-CC-PVTZ-JKFIT
	 Reference Energy          =    -400.0805709129534762 [Eh]
	 Singles Energy            =      -0.0000000000000000 [Eh]
	 Same-Spin Energy          =      -0.3998734420798530 [Eh]
	 Opposite-Spin Energy      =      -1.3033052973668857 [Eh]
	 Correlation Energy        =      -1.7031787394467388 [Eh]
	 Total Energy              =    -401.7837496524002177 [Eh]

	 ================> DF-SCS-MP2 Energies <==================
	-----------------------------------------------------------
	 SCS Same-Spin Scale       =       0.3333333333333333 [-]
	 SCS Opposite-Spin Scale   =       1.2000000000000000 [-]
	 SCS Same-Spin Energy      =      -0.1332911473599510 [Eh]
	 SCS Opposite-Spin Energy  =      -1.5639663568402629 [Eh]
	 SCS Correlation Energy    =      -1.6972575042002138 [Eh]
	 SCS Total Energy          =    -401.7778284171536711 [Eh]
	-----------------------------------------------------------

  Dipole Moment: [D]
     X:     2.3120      Y:     2.8194      Z:     1.3137     Total:     3.8755

*** Psi4 exiting successfully. Buy a developer a beer!
