                               Psi4 1.3.2 release

  ==> Input File <==

--------------------------------------------------------------------------
#psi4
#
memory 32 gb

molecule  {
0 1
  O       -2.4925410    -0.6205970    -0.1535330
  O       -0.0710587    -1.4061232    -0.3906492
  N        0.8845720     0.3685180     0.7343320
  C       -1.5700561     0.2386125     0.2932908
  C        2.2569670    -0.1011270     0.6035390
  C       -0.1490540    -0.3186880     0.1981930
  C       -1.6458490     1.6048030    -0.4506110
  C        2.8658230     0.2522360    -0.7461750
  H       -1.7322500     0.4923850     1.3997900
  H        2.8336360     0.3321260     1.4253690
  H        2.2399750    -1.1846720     0.7384180
  H        0.7096630     1.2770080     1.1428940
  H       -1.3913480     1.4204780    -1.4971700
  H       -0.9867360     2.3841060    -0.0548340
  H       -2.6752710     1.9656290    -0.4028710
  H        2.2847230    -0.2144000    -1.5438430
  H        2.8717410     1.3343490    -0.8997070
  H        3.8959980    -0.1107530    -0.8084670
  H       -1.9544520    -1.3731060    -0.4835650
units angstrom
no_reorient  #important for SAPT in psi4, default
symmetry c1  #important for SAPT in psi4, default
}

set PROPERTIES_ORIGIN ["COM"]
properties('MP2/aug-cc-pvtz', properties = ['dipole'])
--------------------------------------------------------------------------

    Molecular point group: c1
  Charge       = 0
  Multiplicity = 1
  Basis Set: AUG-CC-PVTZ
    Blend: AUG-CC-PVTZ
  Basis Set: (AUG-CC-PVTZ AUX)
    Blend: AUG-CC-PVTZ-JKFIT

    Orbital Energies [Eh]
    ---------------------

    Doubly Occupied:

       1A    -20.552858     2A    -20.533333     3A    -15.601917
       4A    -11.358062     5A    -11.297331     6A    -11.276415
       7A    -11.227459     8A    -11.224746     9A     -1.412227
      10A     -1.365301    11A     -1.248909    12A     -1.046681
      13A     -1.007361    14A     -0.899811    15A     -0.848829
      16A     -0.795455    17A     -0.756765    18A     -0.678214
      19A     -0.650514    20A     -0.642173    21A     -0.617364
      22A     -0.600913    23A     -0.584799    24A     -0.560625
      25A     -0.547315    26A     -0.535674    27A     -0.522270
      28A     -0.512799    29A     -0.504732    30A     -0.432122
      31A     -0.430680    32A     -0.404553

  @DF-RHF Final Energy:  -400.08084945708424

   => Energetics <=

    Nuclear Repulsion Energy =            401.2435090554908470
    One-Electron Energy =               -1341.2922972652270346
    Two-Electron Energy =                 539.9679387526518894
    Total Energy =                       -400.0808494570842413
  Basis Set: (AUG-CC-PVTZ AUX)
    Blend: AUG-CC-PVTZ-RI
    Molecular point group: c1

    Geometry (in Angstrom), charge = 0, multiplicity = 1:

       Center              X                  Y                   Z               Mass
    ------------   -----------------  -----------------  -----------------  -----------------
         O           -2.480749963950    -0.613984669695    -0.148117112226    15.994914619570
         O           -0.059267663950    -1.399510869695    -0.385233312226    15.994914619570
         N            0.896363036050     0.375130330305     0.739747887774    14.003074004430
         C           -1.558265063950     0.245224830305     0.298706687774    12.000000000000
         C            2.268758036050    -0.094514669695     0.608954887774    12.000000000000
         C           -0.137262963950    -0.312075669695     0.203608887774    12.000000000000
         C           -1.634057963950     1.611415330305    -0.445195112226    12.000000000000
         C            2.877614036050     0.258848330305    -0.740759112226    12.000000000000
         H           -1.720458963950     0.498997330305     1.405205887774     1.007825032230
         H            2.845427036050     0.338738330305     1.430784887774     1.007825032230
         H            2.251766036050    -1.178059669695     0.743833887774     1.007825032230
         H            0.721454036050     1.283620330305     1.148309887774     1.007825032230
         H           -1.379556963950     1.427090330305    -1.491754112226     1.007825032230
         H           -0.974944963950     2.390718330305    -0.049418112226     1.007825032230
         H           -2.663479963950     1.972241330305    -0.397455112226     1.007825032230
         H            2.296514036050    -0.207787669695    -1.538427112226     1.007825032230
         H            2.883532036050     1.340961330305    -0.894291112226     1.007825032230
         H            3.907789036050    -0.104140669695    -0.803051112226     1.007825032230
         H           -1.942660963950    -1.366493669695    -0.478149112226     1.007825032230

  Basis Set: AUG-CC-PVTZ
    Blend: AUG-CC-PVTZ
  Basis Set: (AUG-CC-PVTZ AUX)
    Blend: AUG-CC-PVTZ-JKFIT
	 Reference Energy          =    -400.0808494570842413 [Eh]
	 Singles Energy            =      -0.0000000000000000 [Eh]
	 Same-Spin Energy          =      -0.4022883017295802 [Eh]
	 Opposite-Spin Energy      =      -1.3068625123774633 [Eh]
	 Correlation Energy        =      -1.7091508141070435 [Eh]
	 Total Energy              =    -401.7900002711912748 [Eh]

	 ================> DF-SCS-MP2 Energies <==================
	-----------------------------------------------------------
	 SCS Same-Spin Scale       =       0.3333333333333333 [-]
	 SCS Opposite-Spin Scale   =       1.2000000000000000 [-]
	 SCS Same-Spin Energy      =      -0.1340961005765267 [Eh]
	 SCS Opposite-Spin Energy  =      -1.5682350148529560 [Eh]
	 SCS Correlation Energy    =      -1.7023311154294827 [Eh]
	 SCS Total Energy          =    -401.7831805725137428 [Eh]
	-----------------------------------------------------------

  Dipole Moment: [D]
     X:     2.9863      Y:     2.9183      Z:     1.4892     Total:     4.4331

*** Psi4 exiting successfully. Buy a developer a beer!
