                               Psi4 1.3.2 release

  ==> Input File <==

--------------------------------------------------------------------------
#psi4
#
memory 32 gb

molecule  {
0 1
  O       -2.4925410    -0.6205970    -0.1535330
  O       -0.0069960    -1.4050930    -0.3804930
  N        0.8845720     0.3685180     0.7343320
  C       -1.5404070     0.3017530     0.3325960
  C        2.3511981    -0.1333737     0.5945585
  C       -0.1490540    -0.3186880     0.1981930
  C       -1.6458490     1.6048030    -0.4506110
  C        2.8658230     0.2522360    -0.7461750
  H       -1.7322500     0.4923850     1.3997900
  H        2.8336360     0.3321260     1.4253690
  H        2.2399750    -1.1846720     0.7384180
  H        0.7096630     1.2770080     1.1428940
  H       -1.3913480     1.4204780    -1.4971700
  H       -0.9867360     2.3841060    -0.0548340
  H       -2.6752710     1.9656290    -0.4028710
  H        2.2847230    -0.2144000    -1.5438430
  H        2.8717410     1.3343490    -0.8997070
  H        3.8959980    -0.1107530    -0.8084670
  H       -1.9544520    -1.3731060    -0.4835650
units angstrom
no_reorient  #important for SAPT in psi4, default
symmetry c1  #important for SAPT in psi4, default
}

set PROPERTIES_ORIGIN ["COM"]
properties('MP2/aug-cc-pvtz', properties = ['dipole'])
--------------------------------------------------------------------------

    Molecular point group: c1
  Charge       = 0
  Multiplicity = 1
  Basis Set: AUG-CC-PVTZ
    Blend: AUG-CC-PVTZ
  Basis Set: (AUG-CC-PVTZ AUX)
    Blend: AUG-CC-PVTZ-JKFIT

    Orbital Energies [Eh]
    ---------------------

    Doubly Occupied:

       1A    -20.545870     2A    -20.528637     3A    -15.592476
       4A    -11.354394     5A    -11.294936     6A    -11.279208
       7A    -11.228639     8A    -11.226303     9A     -1.393206
      10A     -1.342925    11A     -1.225810    12A     -1.055404
      13A     -1.017620    14A     -0.896671    15A     -0.851191
      16A     -0.785206    17A     -0.741488    18A     -0.669851
      19A     -0.642659    20A     -0.635145    21A     -0.618847
      22A     -0.595926    23A     -0.574944    24A     -0.563799
      25A     -0.540340    26A     -0.535568    27A     -0.526757
      28A     -0.512963    29A     -0.505073    30A     -0.443068
      31A     -0.430662    32A     -0.402913

  @DF-RHF Final Energy:  -400.07982913744411

   => Energetics <=

    Nuclear Repulsion Energy =            399.2499240810379888
    One-Electron Energy =               -1337.5425150227092672
    Two-Electron Energy =                 538.2127618042271706
    Total Energy =                       -400.0798291374441078
  Basis Set: (AUG-CC-PVTZ AUX)
    Blend: AUG-CC-PVTZ-RI
    Molecular point group: c1

    Geometry (in Angstrom), charge = 0, multiplicity = 1:

       Center              X                  Y                   Z               Mass
    ------------   -----------------  -----------------  -----------------  -----------------
         O           -2.502199073319    -0.617291869379    -0.152612743791    15.994914619570
         O           -0.016654073319    -1.401787869379    -0.379572743791    15.994914619570
         N            0.874913926681     0.371823130621     0.735252256209    14.003074004430
         C           -1.550065073319     0.305058130621     0.333516256209    12.000000000000
         C            2.341540026681    -0.130068569379     0.595478756209    12.000000000000
         C           -0.158712073319    -0.315382869379     0.199113256209    12.000000000000
         C           -1.655507073319     1.608108130621    -0.449690743791    12.000000000000
         C            2.856164926681     0.255541130621    -0.745254743791    12.000000000000
         H           -1.741908073319     0.495690130621     1.400710256209     1.007825032230
         H            2.823977926681     0.335431130621     1.426289256209     1.007825032230
         H            2.230316926681    -1.181366869379     0.739338256209     1.007825032230
         H            0.700004926681     1.280313130621     1.143814256209     1.007825032230
         H           -1.401006073319     1.423783130621    -1.496249743791     1.007825032230
         H           -0.996394073319     2.387411130621    -0.053913743791     1.007825032230
         H           -2.684929073319     1.968934130621    -0.401950743791     1.007825032230
         H            2.275064926681    -0.211094869379    -1.542922743791     1.007825032230
         H            2.862082926681     1.337654130621    -0.898786743791     1.007825032230
         H            3.886339926681    -0.107447869379    -0.807546743791     1.007825032230
         H           -1.964110073319    -1.369800869379    -0.482644743791     1.007825032230

  Basis Set: AUG-CC-PVTZ
    Blend: AUG-CC-PVTZ
  Basis Set: (AUG-CC-PVTZ AUX)
    Blend: AUG-CC-PVTZ-JKFIT
	 Reference Energy          =    -400.0798291374441078 [Eh]
	 Singles Energy            =      -0.0000000000000000 [Eh]
	 Same-Spin Energy          =      -0.4020507735139497 [Eh]
	 Opposite-Spin Energy      =      -1.3082152882396667 [Eh]
	 Correlation Energy        =      -1.7102660617536163 [Eh]
	 Total Energy              =    -401.7900951991977081 [Eh]

	 ================> DF-SCS-MP2 Energies <==================
	-----------------------------------------------------------
	 SCS Same-Spin Scale       =       0.3333333333333333 [-]
	 SCS Opposite-Spin Scale   =       1.2000000000000000 [-]
	 SCS Same-Spin Energy      =      -0.1340169245046499 [Eh]
	 SCS Opposite-Spin Energy  =      -1.5698583458876001 [Eh]
	 SCS Correlation Energy    =      -1.7038752703922500 [Eh]
	 SCS Total Energy          =    -401.7837044078363533 [Eh]
	-----------------------------------------------------------

  Dipole Moment: [D]
     X:     3.2497      Y:     3.1262      Z:     1.5208     Total:     4.7588

*** Psi4 exiting successfully. Buy a developer a beer!
