                               Psi4 1.3.2 release

  ==> Input File <==

--------------------------------------------------------------------------
#psi4
#
memory 32 gb

molecule  {
0 1
  O       -2.4834694    -0.6285365    -0.1560807
  O       -0.0069960    -1.4050930    -0.3804930
  N        0.8845720     0.3685180     0.7343320
  C       -1.5404070     0.3017530     0.3325960
  C        2.2569670    -0.1011270     0.6035390
  C       -0.1545244    -0.3296779     0.1929576
  C       -1.6458490     1.6048030    -0.4506110
  C        2.8658230     0.2522360    -0.7461750
  H       -1.7322500     0.4923850     1.3997900
  H        2.8336360     0.3321260     1.4253690
  H        2.2399750    -1.1846720     0.7384180
  H        0.7096630     1.2770080     1.1428940
  H       -1.3913480     1.4204780    -1.4971700
  H       -0.9867360     2.3841060    -0.0548340
  H       -2.6752710     1.9656290    -0.4028710
  H        2.2847230    -0.2144000    -1.5438430
  H        2.8717410     1.3343490    -0.8997070
  H        3.8959980    -0.1107530    -0.8084670
  H       -1.9544520    -1.3731060    -0.4835650
units angstrom
no_reorient  #important for SAPT in psi4, default
symmetry c1  #important for SAPT in psi4, default
}

set PROPERTIES_ORIGIN ["COM"]
properties('MP2/aug-cc-pvtz', properties = ['dipole'])
--------------------------------------------------------------------------

    Molecular point group: c1
  Charge       = 0
  Multiplicity = 1
  Basis Set: AUG-CC-PVTZ
    Blend: AUG-CC-PVTZ
  Basis Set: (AUG-CC-PVTZ AUX)
    Blend: AUG-CC-PVTZ-JKFIT

    Orbital Energies [Eh]
    ---------------------

    Doubly Occupied:

       1A    -20.547735     2A    -20.535900     3A    -15.595977
       4A    -11.358937     5A    -11.298434     6A    -11.272563
       7A    -11.231448     8A    -11.222378     9A     -1.404518
      10A     -1.349991    11A     -1.242415    12A     -1.052122
      13A     -1.011782    14A     -0.902054    15A     -0.848342
      16A     -0.791539    17A     -0.746670    18A     -0.677558
      19A     -0.647749    20A     -0.643826    21A     -0.612750
      22A     -0.597823    23A     -0.578421    24A     -0.563602
      25A     -0.542632    26A     -0.534100    27A     -0.522927
      28A     -0.516167    29A     -0.501765    30A     -0.446712
      31A     -0.436819    32A     -0.402369

  @DF-RHF Final Energy:  -400.08894507118782

   => Energetics <=

    Nuclear Repulsion Energy =            400.7964401002265049
    One-Electron Energy =               -1340.4947181627169357
    Two-Electron Energy =                 539.6093329913026082
    Total Energy =                       -400.0889450711878226
  Basis Set: (AUG-CC-PVTZ AUX)
    Blend: AUG-CC-PVTZ-RI
    Molecular point group: c1

    Geometry (in Angstrom), charge = 0, multiplicity = 1:

       Center              X                  Y                   Z               Mass
    ------------   -----------------  -----------------  -----------------  -----------------
         O           -2.484147906320    -0.626325416978    -0.155196239765    15.994914619570
         O           -0.007674506320    -1.402881916978    -0.379608539765    15.994914619570
         N            0.883893493680     0.370729083022     0.735216460235    14.003074004430
         C           -1.541085506320     0.303964083022     0.333480460235    12.000000000000
         C            2.256288493680    -0.098915916978     0.604423460235    12.000000000000
         C           -0.155202906320    -0.327466816978     0.193842060235    12.000000000000
         C           -1.646527506320     1.607014083022    -0.449726539765    12.000000000000
         C            2.865144493680     0.254447083022    -0.745290539765    12.000000000000
         H           -1.732928506320     0.494596083022     1.400674460235     1.007825032230
         H            2.832957493680     0.334337083022     1.426253460235     1.007825032230
         H            2.239296493680    -1.182460916978     0.739302460235     1.007825032230
         H            0.708984493680     1.279219083022     1.143778460235     1.007825032230
         H           -1.392026506320     1.422689083022    -1.496285539765     1.007825032230
         H           -0.987414506320     2.386317083022    -0.053949539765     1.007825032230
         H           -2.675949506320     1.967840083022    -0.401986539765     1.007825032230
         H            2.284044493680    -0.212188916978    -1.542958539765     1.007825032230
         H            2.871062493680     1.336560083022    -0.898822539765     1.007825032230
         H            3.895319493680    -0.108541916978    -0.807582539765     1.007825032230
         H           -1.955130506320    -1.370894916978    -0.482680539765     1.007825032230

  Basis Set: AUG-CC-PVTZ
    Blend: AUG-CC-PVTZ
  Basis Set: (AUG-CC-PVTZ AUX)
    Blend: AUG-CC-PVTZ-JKFIT
	 Reference Energy          =    -400.0889450711878226 [Eh]
	 Singles Energy            =      -0.0000000000000000 [Eh]
	 Same-Spin Energy          =      -0.4017174127324873 [Eh]
	 Opposite-Spin Energy      =      -1.3068973332045610 [Eh]
	 Correlation Energy        =      -1.7086147459370484 [Eh]
	 Total Energy              =    -401.7975598171248635 [Eh]

	 ================> DF-SCS-MP2 Energies <==================
	-----------------------------------------------------------
	 SCS Same-Spin Scale       =       0.3333333333333333 [-]
	 SCS Opposite-Spin Scale   =       1.2000000000000000 [-]
	 SCS Same-Spin Energy      =      -0.1339058042441624 [Eh]
	 SCS Opposite-Spin Energy  =      -1.5682767998454732 [Eh]
	 SCS Correlation Energy    =      -1.7021826040896357 [Eh]
	 SCS Total Energy          =    -401.7911276752774370 [Eh]
	-----------------------------------------------------------

  Dipole Moment: [D]
     X:     2.8087      Y:     3.0948      Z:     1.5207     Total:     4.4474

*** Psi4 exiting successfully. Buy a developer a beer!
