                               Psi4 1.3.2 release

  ==> Input File <==

--------------------------------------------------------------------------
#psi4
#
memory 32 gb

molecule  {
0 1
  O       -2.4925410    -0.6205970    -0.1535330
  O       -0.0069960    -1.4050930    -0.3804930
  N        0.8840698     0.3636160     0.7460474
  C       -1.5404070     0.3017530     0.3325960
  C        2.2569670    -0.1011270     0.6035390
  C       -0.1490540    -0.3186880     0.1981930
  C       -1.6458490     1.6048030    -0.4506110
  C        2.8771488     0.2463147    -0.7425508
  H       -1.7322500     0.4923850     1.3997900
  H        2.8336360     0.3321260     1.4253690
  H        2.2399750    -1.1846720     0.7384180
  H        0.7096630     1.2770080     1.1428940
  H       -1.3913480     1.4204780    -1.4971700
  H       -0.9867360     2.3841060    -0.0548340
  H       -2.6752710     1.9656290    -0.4028710
  H        2.2847230    -0.2144000    -1.5438430
  H        2.8717410     1.3343490    -0.8997070
  H        3.8959980    -0.1107530    -0.8084670
  H       -1.9544520    -1.3731060    -0.4835650
units angstrom
no_reorient  #important for SAPT in psi4, default
symmetry c1  #important for SAPT in psi4, default
}

set PROPERTIES_ORIGIN ["COM"]
properties('MP2/aug-cc-pvtz', properties = ['dipole'])
--------------------------------------------------------------------------

    Molecular point group: c1
  Charge       = 0
  Multiplicity = 1
  Basis Set: AUG-CC-PVTZ
    Blend: AUG-CC-PVTZ
  Basis Set: (AUG-CC-PVTZ AUX)
    Blend: AUG-CC-PVTZ-JKFIT

    Orbital Energies [Eh]
    ---------------------

    Doubly Occupied:

       1A    -20.548694     2A    -20.533908     3A    -15.599054
       4A    -11.359439     5A    -11.298338     6A    -11.273806
       7A    -11.231272     8A    -11.223520     9A     -1.398488
      10A     -1.346761    11A     -1.245515    12A     -1.052679
      13A     -1.012993    14A     -0.903111    15A     -0.848989
      16A     -0.793804    17A     -0.744896    18A     -0.676618
      19A     -0.647705    20A     -0.641415    21A     -0.613246
      22A     -0.597284    23A     -0.577784    24A     -0.563813
      25A     -0.545067    26A     -0.534745    27A     -0.520668
      28A     -0.514745    29A     -0.500119    30A     -0.445818
      31A     -0.436479    32A     -0.403918

  @DF-RHF Final Energy:  -400.08757089024209

   => Energetics <=

    Nuclear Repulsion Energy =            400.4471481492178668
    One-Electron Energy =               -1339.8000537988089036
    Two-Electron Energy =                 539.2653347593490025
    Total Energy =                       -400.0875708902420911
  Basis Set: (AUG-CC-PVTZ AUX)
    Blend: AUG-CC-PVTZ-RI
    Molecular point group: c1

    Geometry (in Angstrom), charge = 0, multiplicity = 1:

       Center              X                  Y                   Z               Mass
    ------------   -----------------  -----------------  -----------------  -----------------
         O           -2.493641636657    -0.619403791897    -0.155305866134    15.994914619570
         O           -0.008096636657    -1.403899791897    -0.382265866134    15.994914619570
         N            0.882969163343     0.364809208103     0.744274533866    14.003074004430
         C           -1.541507636657     0.302946208103     0.330823133866    12.000000000000
         C            2.255866363343    -0.099933791897     0.601766133866    12.000000000000
         C           -0.150154636657    -0.317494791897     0.196420133866    12.000000000000
         C           -1.646949636657     1.605996208103    -0.452383866134    12.000000000000
         C            2.876048163343     0.247507908103    -0.744323666134    12.000000000000
         H           -1.733350636657     0.493578208103     1.398017133866     1.007825032230
         H            2.832535363343     0.333319208103     1.423596133866     1.007825032230
         H            2.238874363343    -1.183478791897     0.736645133866     1.007825032230
         H            0.708562363343     1.278201208103     1.141121133866     1.007825032230
         H           -1.392448636657     1.421671208103    -1.498942866134     1.007825032230
         H           -0.987836636657     2.385299208103    -0.056606866134     1.007825032230
         H           -2.676371636657     1.966822208103    -0.404643866134     1.007825032230
         H            2.283622363343    -0.213206791897    -1.545615866134     1.007825032230
         H            2.870640363343     1.335542208103    -0.901479866134     1.007825032230
         H            3.894897363343    -0.109559791897    -0.810239866134     1.007825032230
         H           -1.955552636657    -1.371912791897    -0.485337866134     1.007825032230

  Basis Set: AUG-CC-PVTZ
    Blend: AUG-CC-PVTZ
  Basis Set: (AUG-CC-PVTZ AUX)
    Blend: AUG-CC-PVTZ-JKFIT
	 Reference Energy          =    -400.0875708902420911 [Eh]
	 Singles Energy            =      -0.0000000000000000 [Eh]
	 Same-Spin Energy          =      -0.4020979531921128 [Eh]
	 Opposite-Spin Energy      =      -1.3076891507937674 [Eh]
	 Correlation Energy        =      -1.7097871039858803 [Eh]
	 Total Energy              =    -401.7973579942279798 [Eh]

	 ================> DF-SCS-MP2 Energies <==================
	-----------------------------------------------------------
	 SCS Same-Spin Scale       =       0.3333333333333333 [-]
	 SCS Opposite-Spin Scale   =       1.2000000000000000 [-]
	 SCS Same-Spin Energy      =      -0.1340326510640376 [Eh]
	 SCS Opposite-Spin Energy  =      -1.5692269809525208 [Eh]
	 SCS Correlation Energy    =      -1.7032596320165583 [Eh]
	 SCS Total Energy          =    -401.7908305222586591 [Eh]
	-----------------------------------------------------------

  Dipole Moment: [D]
     X:     2.8939      Y:     3.1452      Z:     1.5302     Total:     4.5396

*** Psi4 exiting successfully. Buy a developer a beer!
