                               Psi4 1.3.2 release

  ==> Input File <==

--------------------------------------------------------------------------
#psi4
#
memory 32 gb

molecule  {
0 1
  O       -2.4925410    -0.6205970    -0.1535330
  O       -0.0069960    -1.4050930    -0.3804930
  N        0.8845720     0.3685180     0.7343320
  C       -1.5404070     0.3017530     0.3325960
  C        2.2609891    -0.0910411     0.6101442
  C       -0.1565354    -0.3105456     0.2023095
  C       -1.6458490     1.6048030    -0.4506110
  C        2.8658230     0.2522360    -0.7461750
  H       -1.7322500     0.4923850     1.3997900
  H        2.8336360     0.3321260     1.4253690
  H        2.2399750    -1.1846720     0.7384180
  H        0.7096630     1.2770080     1.1428940
  H       -1.3913480     1.4204780    -1.4971700
  H       -0.9867360     2.3841060    -0.0548340
  H       -2.6752710     1.9656290    -0.4028710
  H        2.2847230    -0.2144000    -1.5438430
  H        2.8717410     1.3343490    -0.8997070
  H        3.8959980    -0.1107530    -0.8084670
  H       -1.9544520    -1.3731060    -0.4835650
units angstrom
no_reorient  #important for SAPT in psi4, default
symmetry c1  #important for SAPT in psi4, default
}

set PROPERTIES_ORIGIN ["COM"]
properties('MP2/aug-cc-pvtz', properties = ['dipole'])
--------------------------------------------------------------------------

    Molecular point group: c1
  Charge       = 0
  Multiplicity = 1
  Basis Set: AUG-CC-PVTZ
    Blend: AUG-CC-PVTZ
  Basis Set: (AUG-CC-PVTZ AUX)
    Blend: AUG-CC-PVTZ-JKFIT

    Orbital Energies [Eh]
    ---------------------

    Doubly Occupied:

       1A    -20.548940     2A    -20.531950     3A    -15.599660
       4A    -11.359983     5A    -11.298807     6A    -11.274278
       7A    -11.231786     8A    -11.223354     9A     -1.394322
      10A     -1.345364    11A     -1.244827    12A     -1.054311
      13A     -1.013199    14A     -0.904546    15A     -0.850617
      16A     -0.792816    17A     -0.745799    18A     -0.676651
      19A     -0.649261    20A     -0.639693    21A     -0.613372
      22A     -0.595698    23A     -0.576998    24A     -0.563858
      25A     -0.543105    26A     -0.534193    27A     -0.520911
      28A     -0.513831    29A     -0.500525    30A     -0.446059
      31A     -0.437212    32A     -0.402700

  @DF-RHF Final Energy:  -400.08649371799788

   => Energetics <=

    Nuclear Repulsion Energy =            400.5052778709249424
    One-Electron Energy =               -1339.9262929819901728
    Two-Electron Energy =                 539.3345213930673481
    Total Energy =                       -400.0864937179978824
  Basis Set: (AUG-CC-PVTZ AUX)
    Blend: AUG-CC-PVTZ-RI
    Molecular point group: c1

    Geometry (in Angstrom), charge = 0, multiplicity = 1:

       Center              X                  Y                   Z               Mass
    ------------   -----------------  -----------------  -----------------  -----------------
         O           -2.492186304041    -0.622465300231    -0.154632119112    15.994914619570
         O           -0.006641304041    -1.406961300231    -0.381592119112    15.994914619570
         N            0.884926695959     0.366649699769     0.733232880888    14.003074004430
         C           -1.540052304041     0.299884699769     0.331496880888    12.000000000000
         C            2.261343795959    -0.092909400231     0.609045080888    12.000000000000
         C           -0.156180704041    -0.312413900231     0.201210380888    12.000000000000
         C           -1.645494304041     1.602934699769    -0.451710119112    12.000000000000
         C            2.866177695959     0.250367699769    -0.747274119112    12.000000000000
         H           -1.731895304041     0.490516699769     1.398690880888     1.007825032230
         H            2.833990695959     0.330257699769     1.424269880888     1.007825032230
         H            2.240329695959    -1.186540300231     0.737318880888     1.007825032230
         H            0.710017695959     1.275139699769     1.141794880888     1.007825032230
         H           -1.390993304041     1.418609699769    -1.498269119112     1.007825032230
         H           -0.986381304041     2.382237699769    -0.055933119112     1.007825032230
         H           -2.674916304041     1.963760699769    -0.403970119112     1.007825032230
         H            2.285077695959    -0.216268300231    -1.544942119112     1.007825032230
         H            2.872095695959     1.332480699769    -0.900806119112     1.007825032230
         H            3.896352695959    -0.112621300231    -0.809566119112     1.007825032230
         H           -1.954097304041    -1.374974300231    -0.484664119112     1.007825032230

  Basis Set: AUG-CC-PVTZ
    Blend: AUG-CC-PVTZ
  Basis Set: (AUG-CC-PVTZ AUX)
    Blend: AUG-CC-PVTZ-JKFIT
	 Reference Energy          =    -400.0864937179978824 [Eh]
	 Singles Energy            =      -0.0000000000000000 [Eh]
	 Same-Spin Energy          =      -0.4023729371830976 [Eh]
	 Opposite-Spin Energy      =      -1.3081933310982183 [Eh]
	 Correlation Energy        =      -1.7105662682813159 [Eh]
	 Total Energy              =    -401.7970599862791801 [Eh]

	 ================> DF-SCS-MP2 Energies <==================
	-----------------------------------------------------------
	 SCS Same-Spin Scale       =       0.3333333333333333 [-]
	 SCS Opposite-Spin Scale   =       1.2000000000000000 [-]
	 SCS Same-Spin Energy      =      -0.1341243123943659 [Eh]
	 SCS Opposite-Spin Energy  =      -1.5698319973178620 [Eh]
	 SCS Correlation Energy    =      -1.7039563097122279 [Eh]
	 SCS Total Energy          =    -401.7904500277101079 [Eh]
	-----------------------------------------------------------

  Dipole Moment: [D]
     X:     2.8883      Y:     3.2001      Z:     1.5836     Total:     4.5925

*** Psi4 exiting successfully. Buy a developer a beer!
