                               Psi4 1.3.2 release

  ==> Input File <==

--------------------------------------------------------------------------
#psi4
#
memory 32 gb

molecule  {
0 1
  O       -2.4925410    -0.6205970    -0.1535330
  O       -0.0069960    -1.4050930    -0.3804930
  N        0.8845720     0.3685180     0.7343320
  C       -1.5404070     0.3017530     0.3325960
  C        2.2398365    -0.1411055     0.5772227
  C       -0.1183472    -0.3507283     0.1821385
  C       -1.6458490     1.6048030    -0.4506110
  C        2.8658230     0.2522360    -0.7461750
  H       -1.7322500     0.4923850     1.3997900
  H        2.8336360     0.3321260     1.4253690
  H        2.2399750    -1.1846720     0.7384180
  H        0.7096630     1.2770080     1.1428940
  H       -1.3913480     1.4204780    -1.4971700
  H       -0.9867360     2.3841060    -0.0548340
  H       -2.6752710     1.9656290    -0.4028710
  H        2.2847230    -0.2144000    -1.5438430
  H        2.8717410     1.3343490    -0.8997070
  H        3.8959980    -0.1107530    -0.8084670
  H       -1.9544520    -1.3731060    -0.4835650
units angstrom
no_reorient  #important for SAPT in psi4, default
symmetry c1  #important for SAPT in psi4, default
}

set PROPERTIES_ORIGIN ["COM"]
properties('MP2/aug-cc-pvtz', properties = ['dipole'])
--------------------------------------------------------------------------

    Molecular point group: c1
  Charge       = 0
  Multiplicity = 1
  Basis Set: AUG-CC-PVTZ
    Blend: AUG-CC-PVTZ
  Basis Set: (AUG-CC-PVTZ AUX)
    Blend: AUG-CC-PVTZ-JKFIT

    Orbital Energies [Eh]
    ---------------------

    Doubly Occupied:

       1A    -20.546922     2A    -20.539313     3A    -15.596041
       4A    -11.355574     5A    -11.295117     6A    -11.273628
       7A    -11.228335     8A    -11.223434     9A     -1.418489
      10A     -1.349110    11A     -1.249348    12A     -1.047320
      13A     -1.010962    14A     -0.895937    15A     -0.844082
      16A     -0.799178    17A     -0.741377    18A     -0.679819
      19A     -0.648459    20A     -0.645035    21A     -0.612463
      22A     -0.604759    23A     -0.576971    24A     -0.562087
      25A     -0.544251    26A     -0.533767    27A     -0.527238
      28A     -0.519650    29A     -0.501040    30A     -0.443981
      31A     -0.428785    32A     -0.406359

  @DF-RHF Final Energy:  -400.08451612397124

   => Energetics <=

    Nuclear Repulsion Energy =            401.1357673074977015
    One-Electron Energy =               -1341.1429012685698581
    Two-Electron Energy =                 539.9226178371010292
    Total Energy =                       -400.0845161239711842
  Basis Set: (AUG-CC-PVTZ AUX)
    Blend: AUG-CC-PVTZ-RI
    Molecular point group: c1

    Geometry (in Angstrom), charge = 0, multiplicity = 1:

       Center              X                  Y                   Z               Mass
    ------------   -----------------  -----------------  -----------------  -----------------
         O           -2.493932366421    -0.613215431357    -0.149190407819    15.994914619570
         O           -0.008387366421    -1.397711431357    -0.376150407819    15.994914619570
         N            0.883180633579     0.375899568643     0.738674592181    14.003074004430
         C           -1.541798366421     0.309134568643     0.336938592181    12.000000000000
         C            2.238445133579    -0.133723931357     0.581565292181    12.000000000000
         C           -0.119738566421    -0.343346731357     0.186481092181    12.000000000000
         C           -1.647240366421     1.612184568643    -0.446268407819    12.000000000000
         C            2.864431633579     0.259617568643    -0.741832407819    12.000000000000
         H           -1.733641366421     0.499766568643     1.404132592181     1.007825032230
         H            2.832244633579     0.339507568643     1.429711592181     1.007825032230
         H            2.238583633579    -1.177290431357     0.742760592181     1.007825032230
         H            0.708271633579     1.284389568643     1.147236592181     1.007825032230
         H           -1.392739366421     1.427859568643    -1.492827407819     1.007825032230
         H           -0.988127366421     2.391487568643    -0.050491407819     1.007825032230
         H           -2.676662366421     1.973010568643    -0.398528407819     1.007825032230
         H            2.283331633579    -0.207018431357    -1.539500407819     1.007825032230
         H            2.870349633579     1.341730568643    -0.895364407819     1.007825032230
         H            3.894606633579    -0.103371431357    -0.804124407819     1.007825032230
         H           -1.955843366421    -1.365724431357    -0.479222407819     1.007825032230

  Basis Set: AUG-CC-PVTZ
    Blend: AUG-CC-PVTZ
  Basis Set: (AUG-CC-PVTZ AUX)
    Blend: AUG-CC-PVTZ-JKFIT
	 Reference Energy          =    -400.0845161239712411 [Eh]
	 Singles Energy            =      -0.0000000000000000 [Eh]
	 Same-Spin Energy          =      -0.4013248246457427 [Eh]
	 Opposite-Spin Energy      =      -1.3061739421538674 [Eh]
	 Correlation Energy        =      -1.7074987667996100 [Eh]
	 Total Energy              =    -401.7920148907708722 [Eh]

	 ================> DF-SCS-MP2 Energies <==================
	-----------------------------------------------------------
	 SCS Same-Spin Scale       =       0.3333333333333333 [-]
	 SCS Opposite-Spin Scale   =       1.2000000000000000 [-]
	 SCS Same-Spin Energy      =      -0.1337749415485809 [Eh]
	 SCS Opposite-Spin Energy  =      -1.5674087305846409 [Eh]
	 SCS Correlation Energy    =      -1.7011836721332219 [Eh]
	 SCS Total Energy          =    -401.7856997961044385 [Eh]
	-----------------------------------------------------------

  Dipole Moment: [D]
     X:     2.9682      Y:     2.9358      Z:     1.4600     Total:     4.4227

*** Psi4 exiting successfully. Buy a developer a beer!
