                               Psi4 1.3.2 release

  ==> Input File <==

--------------------------------------------------------------------------
#psi4
#
memory 32 gb

molecule  {
0 1
  O       -2.4925410    -0.6205970    -0.1535330
  O       -0.0176508    -1.4054717    -0.3822967
  N        0.8845720     0.3685180     0.7343320
  C       -1.5456157     0.2913431     0.3260678
  C        2.2569670    -0.1011270     0.6035390
  C       -0.1490540    -0.3186880     0.1981930
  C       -1.6458490     1.6048030    -0.4506110
  C        2.8658230     0.2522360    -0.7461750
  H       -1.7322500     0.4923850     1.3997900
  H        2.8336360     0.3321260     1.4253690
  H        2.2399750    -1.1846720     0.7384180
  H        0.7096630     1.2770080     1.1428940
  H       -1.3913480     1.4204780    -1.4971700
  H       -0.9867360     2.3841060    -0.0548340
  H       -2.6752710     1.9656290    -0.4028710
  H        2.2847230    -0.2144000    -1.5438430
  H        2.8717410     1.3343490    -0.8997070
  H        3.8959980    -0.1107530    -0.8084670
  H       -1.9544520    -1.3731060    -0.4835650
units angstrom
no_reorient  #important for SAPT in psi4, default
symmetry c1  #important for SAPT in psi4, default
}

set PROPERTIES_ORIGIN ["COM"]
properties('MP2/aug-cc-pvtz', properties = ['dipole'])
--------------------------------------------------------------------------

    Molecular point group: c1
  Charge       = 0
  Multiplicity = 1
  Basis Set: AUG-CC-PVTZ
    Blend: AUG-CC-PVTZ
  Basis Set: (AUG-CC-PVTZ AUX)
    Blend: AUG-CC-PVTZ-JKFIT

    Orbital Energies [Eh]
    ---------------------

    Doubly Occupied:

       1A    -20.549226     2A    -20.533365     3A    -15.599326
       4A    -11.358804     5A    -11.297871     6A    -11.274411
       7A    -11.230500     8A    -11.223517     9A     -1.399759
      10A     -1.350099    11A     -1.246302    12A     -1.051590
      13A     -1.012043    14A     -0.902239    15A     -0.849032
      16A     -0.794271    17A     -0.746407    18A     -0.676983
      19A     -0.648460    20A     -0.641401    21A     -0.613862
      22A     -0.598171    23A     -0.577787    24A     -0.563043
      25A     -0.544128    26A     -0.534191    27A     -0.521406
      28A     -0.514543    29A     -0.502581    30A     -0.443704
      31A     -0.435534    32A     -0.403821

  @DF-RHF Final Energy:  -400.08787451329056

   => Energetics <=

    Nuclear Repulsion Energy =            400.7159912589288524
    One-Electron Energy =               -1340.3309760635713701
    Two-Electron Energy =                 539.5271102913519599
    Total Energy =                       -400.0878745132905578
  Basis Set: (AUG-CC-PVTZ AUX)
    Blend: AUG-CC-PVTZ-RI
    Molecular point group: c1

    Geometry (in Angstrom), charge = 0, multiplicity = 1:

       Center              X                  Y                   Z               Mass
    ------------   -----------------  -----------------  -----------------  -----------------
         O           -2.490551378467    -0.619478293696    -0.152617676978    15.994914619570
         O           -0.015661178467    -1.404352993696    -0.381381376978    15.994914619570
         N            0.886561621533     0.369636706304     0.735247323022    14.003074004430
         C           -1.543626078467     0.292461806304     0.326983123022    12.000000000000
         C            2.258956621533    -0.100008293696     0.604454323022    12.000000000000
         C           -0.147064378467    -0.317569293696     0.199108323022    12.000000000000
         C           -1.643859378467     1.605921706304    -0.449695676978    12.000000000000
         C            2.867812621533     0.253354706304    -0.745259676978    12.000000000000
         H           -1.730260378467     0.493503706304     1.400705323022     1.007825032230
         H            2.835625621533     0.333244706304     1.426284323022     1.007825032230
         H            2.241964621533    -1.183553293696     0.739333323022     1.007825032230
         H            0.711652621533     1.278126706304     1.143809323022     1.007825032230
         H           -1.389358378467     1.421596706304    -1.496254676978     1.007825032230
         H           -0.984746378467     2.385224706304    -0.053918676978     1.007825032230
         H           -2.673281378467     1.966747706304    -0.401955676978     1.007825032230
         H            2.286712621533    -0.213281293696    -1.542927676978     1.007825032230
         H            2.873730621533     1.335467706304    -0.898791676978     1.007825032230
         H            3.897987621533    -0.109634293696    -0.807551676978     1.007825032230
         H           -1.952462378467    -1.371987293696    -0.482649676978     1.007825032230

  Basis Set: AUG-CC-PVTZ
    Blend: AUG-CC-PVTZ
  Basis Set: (AUG-CC-PVTZ AUX)
    Blend: AUG-CC-PVTZ-JKFIT
	 Reference Energy          =    -400.0878745132905578 [Eh]
	 Singles Energy            =      -0.0000000000000000 [Eh]
	 Same-Spin Energy          =      -0.4021004561395403 [Eh]
	 Opposite-Spin Energy      =      -1.3074619226210822 [Eh]
	 Correlation Energy        =      -1.7095623787606224 [Eh]
	 Total Energy              =    -401.7974368920511665 [Eh]

	 ================> DF-SCS-MP2 Energies <==================
	-----------------------------------------------------------
	 SCS Same-Spin Scale       =       0.3333333333333333 [-]
	 SCS Opposite-Spin Scale   =       1.2000000000000000 [-]
	 SCS Same-Spin Energy      =      -0.1340334853798467 [Eh]
	 SCS Opposite-Spin Energy  =      -1.5689543071452985 [Eh]
	 SCS Correlation Energy    =      -1.7029877925251453 [Eh]
	 SCS Total Energy          =    -401.7908623058157218 [Eh]
	-----------------------------------------------------------

  Dipole Moment: [D]
     X:     2.9172      Y:     3.1131      Z:     1.5508     Total:     4.5394

*** Psi4 exiting successfully. Buy a developer a beer!
