                               Psi4 1.4a3.dev225

  ==> Input File <==

--------------------------------------------------------------------------
#psi4
#
memory 32 gb

molecule  {
0 1
  O       -2.5334200    -0.7491890    -0.0380440
  O       -0.0309920    -1.3916750    -0.5246560
  N        0.8474210     0.2516040     0.7908210
  C       -1.5793960     0.2040340     0.3844480
  C        2.2299320    -0.1523350     0.5631470
  C       -0.2003660    -0.3785454     0.1874780
  C       -1.7305020     1.4971750    -0.4144490
  C        2.7876300     0.3918150    -0.7462470
  H       -1.7371730     0.4054880     1.4537200
  H        2.8183710     0.1913570     1.4185970
  H        2.2480760    -1.2444890     0.5585260
  H        0.6595560     1.1005830     1.3085070
  H       -1.5202540     1.2971370    -1.4686150
  H       -1.0543700     2.2823790    -0.0604110
  H       -2.7592110     1.8535180    -0.3272230
  H        2.1936920     0.0168210    -1.5822170
  H        2.7616940     1.4848860    -0.7566670
  H        3.8242090     0.0700520    -0.8849050
  H       -2.0046360    -1.4186050    -0.5240660
units angstrom
no_reorient  #important for SAPT in psi4, default
symmetry c1  #important for SAPT in psi4, default
}

set PROPERTIES_ORIGIN ["COM"]
properties('MP2/aug-cc-pvtz', properties = ['dipole'])
--------------------------------------------------------------------------

    Molecular point group: c1
  Charge       = 0
  Multiplicity = 1
  Basis Set: AUG-CC-PVTZ
    Blend: AUG-CC-PVTZ
  Basis Set: (AUG-CC-PVTZ AUX)
    Blend: AUG-CC-PVTZ-JKFIT

    Orbital Energies [Eh]
    ---------------------

    Doubly Occupied:

       1A    -20.550524     2A    -20.532648     3A    -15.598813
       4A    -11.360929     5A    -11.299524     6A    -11.274079
       7A    -11.232126     8A    -11.223338     9A     -1.393901
      10A     -1.345927    11A     -1.240891    12A     -1.054147
      13A     -1.012961    14A     -0.904883    15A     -0.849774
      16A     -0.790581    17A     -0.747266    18A     -0.675209
      19A     -0.645210    20A     -0.637154    21A     -0.614054
      22A     -0.595521    23A     -0.581774    24A     -0.565196
      25A     -0.542072    26A     -0.533141    27A     -0.519815
      28A     -0.512828    29A     -0.501753    30A     -0.448427
      31A     -0.436696    32A     -0.401986

  @DF-RHF Final Energy:  -400.08593041540331

   => Energetics <=

    Nuclear Repulsion Energy =            400.3294446518600012
    One-Electron Energy =               -1339.5844514276350310
    Two-Electron Energy =                 539.1690763603717187
    Total Energy =                       -400.0859304154032543
  Basis Set: (AUG-CC-PVTZ AUX)
    Blend: AUG-CC-PVTZ-RI
    Molecular point group: c1

    Geometry (in Angstrom), charge = 0, multiplicity = 1:

       Center              X                  Y                   Z               Mass
    ------------   -----------------  -----------------  -----------------  -----------------
         O           -2.485665633543    -0.698901570374    -0.045684908843    15.994914619570
         O            0.016762366457    -1.341387570374    -0.532296908843    15.994914619570
         N            0.895175366457     0.301891429626     0.783180091157    14.003074004430
         C           -1.531641633543     0.254321429626     0.376807091157    12.000000000000
         C            2.277686366457    -0.102047570374     0.555506091157    12.000000000000
         C           -0.152611633543    -0.328257970374     0.179837091157    12.000000000000
         C           -1.682747633543     1.547462429626    -0.422089908843    12.000000000000
         C            2.835384366457     0.442102429626    -0.753887908843    12.000000000000
         H           -1.689418633543     0.455775429626     1.446079091157     1.007825032230
         H            2.866125366457     0.241644429626     1.410956091157     1.007825032230
         H            2.295830366457    -1.194201570374     0.550885091157     1.007825032230
         H            0.707310366457     1.150870429626     1.300866091157     1.007825032230
         H           -1.472499633543     1.347424429626    -1.476255908843     1.007825032230
         H           -1.006615633543     2.332666429626    -0.068051908843     1.007825032230
         H           -2.711456633543     1.903805429626    -0.334863908843     1.007825032230
         H            2.241446366457     0.067108429626    -1.589857908843     1.007825032230
         H            2.809448366457     1.535173429626    -0.764307908843     1.007825032230
         H            3.871963366457     0.120339429626    -0.892545908843     1.007825032230
         H           -1.956881633543    -1.368317570374    -0.531706908843     1.007825032230

  Basis Set: AUG-CC-PVTZ
    Blend: AUG-CC-PVTZ
  Basis Set: (AUG-CC-PVTZ AUX)
    Blend: AUG-CC-PVTZ-JKFIT
	 Reference Energy          =    -400.0859304154033111 [Eh]
	 Singles Energy            =      -0.0000000000000000 [Eh]
	 Same-Spin Energy          =      -0.4023512293227143 [Eh]
	 Opposite-Spin Energy      =      -1.3084662661833653 [Eh]
	 Correlation Energy        =      -1.7108174955060795 [Eh]
	 Total Energy              =    -401.7967479109094029 [Eh]

	 ================> DF-SCS-MP2 Energies <==================
	-----------------------------------------------------------
	 SCS Same-Spin Scale       =       0.3333333333333333 [-]
	 SCS Opposite-Spin Scale   =       1.2000000000000000 [-]
	 SCS Same-Spin Energy      =      -0.1341170764409048 [Eh]
	 SCS Opposite-Spin Energy  =      -1.5701595194200382 [Eh]
	 SCS Correlation Energy    =      -1.7042765958609429 [Eh]
	 SCS Total Energy          =    -401.7902070112642718 [Eh]
	-----------------------------------------------------------

  Dipole Moment: [D]
     X:     2.7814      Y:     3.1620      Z:     1.6094     Total:     4.5083

*** Psi4 exiting successfully. Buy a developer a beer!
