                               Psi4 1.3.2 release

  ==> Input File <==

--------------------------------------------------------------------------
#psi4
#
memory 32 gb

molecule  {
0 1
  O       -2.4925410    -0.6205970    -0.1535330
  O       -0.0069960    -1.4050930    -0.3804930
  N        0.8845720     0.3685180     0.7343320
  C       -1.5404070     0.3017530     0.3325960
  C        2.2649065    -0.0809201     0.6167589
  C       -0.1639374    -0.3023514     0.2064665
  C       -1.6458490     1.6048030    -0.4506110
  C        2.8658230     0.2522360    -0.7461750
  H       -1.7322500     0.4923850     1.3997900
  H        2.8336360     0.3321260     1.4253690
  H        2.2399750    -1.1846720     0.7384180
  H        0.7096630     1.2770080     1.1428940
  H       -1.3913480     1.4204780    -1.4971700
  H       -0.9867360     2.3841060    -0.0548340
  H       -2.6752710     1.9656290    -0.4028710
  H        2.2847230    -0.2144000    -1.5438430
  H        2.8717410     1.3343490    -0.8997070
  H        3.8959980    -0.1107530    -0.8084670
  H       -1.9544520    -1.3731060    -0.4835650
units angstrom
no_reorient  #important for SAPT in psi4, default
symmetry c1  #important for SAPT in psi4, default
}

set PROPERTIES_ORIGIN ["COM"]
properties('MP2/aug-cc-pvtz', properties = ['dipole'])
--------------------------------------------------------------------------

    Molecular point group: c1
  Charge       = 0
  Multiplicity = 1
  Basis Set: AUG-CC-PVTZ
    Blend: AUG-CC-PVTZ
  Basis Set: (AUG-CC-PVTZ AUX)
    Blend: AUG-CC-PVTZ-JKFIT

    Orbital Energies [Eh]
    ---------------------

    Doubly Occupied:

       1A    -20.549336     2A    -20.530514     3A    -15.600550
       4A    -11.360959     5A    -11.299372     6A    -11.274603
       7A    -11.232473     8A    -11.223470     9A     -1.390806
      10A     -1.343800    11A     -1.243789    12A     -1.055930
      13A     -1.013613    14A     -0.906339    15A     -0.852223
      16A     -0.791558    17A     -0.746769    18A     -0.676855
      19A     -0.650779    20A     -0.637911    21A     -0.613294
      22A     -0.593662    23A     -0.576820    24A     -0.564205
      25A     -0.543307    26A     -0.534448    27A     -0.520804
      28A     -0.513316    29A     -0.498283    30A     -0.446399
      31A     -0.437944    32A     -0.401791

  @DF-RHF Final Energy:  -400.08432477172857

   => Energetics <=

    Nuclear Repulsion Energy =            400.3869938859394324
    One-Electron Energy =               -1339.6907908088417116
    Two-Electron Energy =                 539.2194721511737043
    Total Energy =                       -400.0843247717285749
  Basis Set: (AUG-CC-PVTZ AUX)
    Blend: AUG-CC-PVTZ-RI
    Molecular point group: c1

    Geometry (in Angstrom), charge = 0, multiplicity = 1:

       Center              X                  Y                   Z               Mass
    ------------   -----------------  -----------------  -----------------  -----------------
         O           -2.491829150259    -0.624342515105    -0.155736163592    15.994914619570
         O           -0.006284150259    -1.408838515105    -0.382696163592    15.994914619570
         N            0.885283849741     0.364772484895     0.732128836408    14.003074004430
         C           -1.539695150259     0.298007484895     0.330392836408    12.000000000000
         C            2.265618349741    -0.084665615105     0.614555736408    12.000000000000
         C           -0.163225550259    -0.306096915105     0.204263336408    12.000000000000
         C           -1.645137150259     1.601057484895    -0.452814163592    12.000000000000
         C            2.866534849741     0.248490484895    -0.748378163592    12.000000000000
         H           -1.731538150259     0.488639484895     1.397586836408     1.007825032230
         H            2.834347849741     0.328380484895     1.423165836408     1.007825032230
         H            2.240686849741    -1.188417515105     0.736214836408     1.007825032230
         H            0.710374849741     1.273262484895     1.140690836408     1.007825032230
         H           -1.390636150259     1.416732484895    -1.499373163592     1.007825032230
         H           -0.986024150259     2.380360484895    -0.057037163592     1.007825032230
         H           -2.674559150259     1.961883484895    -0.405074163592     1.007825032230
         H            2.285434849741    -0.218145515105    -1.546046163592     1.007825032230
         H            2.872452849741     1.330603484895    -0.901910163592     1.007825032230
         H            3.896709849741    -0.114498515105    -0.810670163592     1.007825032230
         H           -1.953740150259    -1.376851515105    -0.485768163592     1.007825032230

  Basis Set: AUG-CC-PVTZ
    Blend: AUG-CC-PVTZ
  Basis Set: (AUG-CC-PVTZ AUX)
    Blend: AUG-CC-PVTZ-JKFIT
	 Reference Energy          =    -400.0843247717285749 [Eh]
	 Singles Energy            =      -0.0000000000000000 [Eh]
	 Same-Spin Energy          =      -0.4026506378886693 [Eh]
	 Opposite-Spin Energy      =      -1.3087498013532293 [Eh]
	 Correlation Energy        =      -1.7114004392418987 [Eh]
	 Total Energy              =    -401.7957252109704882 [Eh]

	 ================> DF-SCS-MP2 Energies <==================
	-----------------------------------------------------------
	 SCS Same-Spin Scale       =       0.3333333333333333 [-]
	 SCS Opposite-Spin Scale   =       1.2000000000000000 [-]
	 SCS Same-Spin Energy      =      -0.1342168792962231 [Eh]
	 SCS Opposite-Spin Energy  =      -1.5704997616238752 [Eh]
	 SCS Correlation Energy    =      -1.7047166409200982 [Eh]
	 SCS Total Energy          =    -401.7890414126486576 [Eh]
	-----------------------------------------------------------

  Dipole Moment: [D]
     X:     2.8746      Y:     3.2515      Z:     1.6063     Total:     4.6277

*** Psi4 exiting successfully. Buy a developer a beer!
