                               Psi4 1.3.2 release

  ==> Input File <==

--------------------------------------------------------------------------
#psi4
#
memory 32 gb

molecule  {
0 1
  O       -2.4925410    -0.6205970    -0.1535330
  O       -0.0069960    -1.4050930    -0.3804930
  N        0.8845720     0.3685180     0.7343320
  C       -1.5404070     0.3017530     0.3325960
  C        2.2569670    -0.1011270     0.6035390
  C       -0.3310090    -0.2375495     0.2157696
  C       -1.6458490     1.6048030    -0.4506110
  C        2.8658230     0.2522360    -0.7461750
  H       -1.7322500     0.4923850     1.3997900
  H        2.8336360     0.3321260     1.4253690
  H        2.2399750    -1.1846720     0.7384180
  H        0.7096630     1.2770080     1.1428940
  H       -1.3913480     1.4204780    -1.4971700
  H       -0.9867360     2.3841060    -0.0548340
  H       -2.6752710     1.9656290    -0.4028710
  H        2.2847230    -0.2144000    -1.5438430
  H        2.8717410     1.3343490    -0.8997070
  H        3.8959980    -0.1107530    -0.8084670
  H       -1.9544520    -1.3731060    -0.4835650
units angstrom
no_reorient  #important for SAPT in psi4, default
symmetry c1  #important for SAPT in psi4, default
}

set PROPERTIES_ORIGIN ["COM"]
properties('MP2/aug-cc-pvtz', properties = ['dipole'])
--------------------------------------------------------------------------

    Molecular point group: c1
  Charge       = 0
  Multiplicity = 1
  Basis Set: AUG-CC-PVTZ
    Blend: AUG-CC-PVTZ
  Basis Set: (AUG-CC-PVTZ AUX)
    Blend: AUG-CC-PVTZ-JKFIT

    Orbital Energies [Eh]
    ---------------------

    Doubly Occupied:

       1A    -20.559250     2A    -20.529659     3A    -15.594554
       4A    -11.377301     5A    -11.302259     6A    -11.270470
       7A    -11.247180     8A    -11.216965     9A     -1.390709
      10A     -1.315240    11A     -1.208258    12A     -1.092304
      13A     -1.008440    14A     -0.940199    15A     -0.852643
      16A     -0.776220    17A     -0.746405    18A     -0.689898
      19A     -0.649180    20A     -0.636260    21A     -0.609962
      22A     -0.585347    23A     -0.573322    24A     -0.563663
      25A     -0.543671    26A     -0.536269    27A     -0.522755
      28A     -0.500207    29A     -0.488018    30A     -0.453643
      31A     -0.440618    32A     -0.386267

  @DF-RHF Final Energy:  -400.01706283049748

   => Energetics <=

    Nuclear Repulsion Energy =            400.2654541267864374
    One-Electron Energy =               -1339.3507626492507825
    Two-Electron Energy =                 539.0682456919669221
    Total Energy =                       -400.0170628304974798
  Basis Set: (AUG-CC-PVTZ AUX)
    Blend: AUG-CC-PVTZ-RI
    Molecular point group: c1

    Geometry (in Angstrom), charge = 0, multiplicity = 1:

       Center              X                  Y                   Z               Mass
    ------------   -----------------  -----------------  -----------------  -----------------
         O           -2.473891402380    -0.628913275855    -0.155334711508    15.994914619570
         O            0.011653597620    -1.413409275855    -0.382294711508    15.994914619570
         N            0.903221597620     0.360201724145     0.732530288492    14.003074004430
         C           -1.521757402380     0.293436724145     0.330794288492    12.000000000000
         C            2.275616597620    -0.109443275855     0.601737288492    12.000000000000
         C           -0.312359402380    -0.245865775855     0.213967888492    12.000000000000
         C           -1.627199402380     1.596486724145    -0.452412711508    12.000000000000
         C            2.884472597620     0.243919724145    -0.747976711508    12.000000000000
         H           -1.713600402380     0.484068724145     1.397988288492     1.007825032230
         H            2.852285597620     0.323809724145     1.423567288492     1.007825032230
         H            2.258624597620    -1.192988275855     0.736616288492     1.007825032230
         H            0.728312597620     1.268691724145     1.141092288492     1.007825032230
         H           -1.372698402380     1.412161724145    -1.498971711508     1.007825032230
         H           -0.968086402380     2.375789724145    -0.056635711508     1.007825032230
         H           -2.656621402380     1.957312724145    -0.404672711508     1.007825032230
         H            2.303372597620    -0.222716275855    -1.545644711508     1.007825032230
         H            2.890390597620     1.326032724145    -0.901508711508     1.007825032230
         H            3.914647597620    -0.119069275855    -0.810268711508     1.007825032230
         H           -1.935802402380    -1.381422275855    -0.485366711508     1.007825032230

  Basis Set: AUG-CC-PVTZ
    Blend: AUG-CC-PVTZ
  Basis Set: (AUG-CC-PVTZ AUX)
    Blend: AUG-CC-PVTZ-JKFIT
	 Reference Energy          =    -400.0170628304974798 [Eh]
	 Singles Energy            =      -0.0000000000000000 [Eh]
	 Same-Spin Energy          =      -0.4076040581257390 [Eh]
	 Opposite-Spin Energy      =      -1.3181185673559614 [Eh]
	 Correlation Energy        =      -1.7257226254817004 [Eh]
	 Total Energy              =    -401.7427854559791740 [Eh]

	 ================> DF-SCS-MP2 Energies <==================
	-----------------------------------------------------------
	 SCS Same-Spin Scale       =       0.3333333333333333 [-]
	 SCS Opposite-Spin Scale   =       1.2000000000000000 [-]
	 SCS Same-Spin Energy      =      -0.1358680193752463 [Eh]
	 SCS Opposite-Spin Energy  =      -1.5817422808271537 [Eh]
	 SCS Correlation Energy    =      -1.7176103002024001 [Eh]
	 SCS Total Energy          =    -401.7346731306998890 [Eh]
	-----------------------------------------------------------

  Dipole Moment: [D]
     X:     2.0159      Y:     3.4615      Z:     1.5204     Total:     4.2846

*** Psi4 exiting successfully. Buy a developer a beer!
