                               Psi4 1.3.2 release

  ==> Input File <==

--------------------------------------------------------------------------
#psi4
#
memory 32 gb

molecule  {
0 1
  O       -2.4925410    -0.6205970    -0.1535330
  O       -0.0069960    -1.4050930    -0.3804930
  N        0.8845720     0.3685180     0.7343320
  C       -1.5404070     0.3017530     0.3325960
  C        2.2569670    -0.1011270     0.6035390
  C       -0.1348508    -0.2777790     0.1669795
  C       -1.5952606     1.5986463    -0.4658584
  C        2.8658230     0.2522360    -0.7461750
  H       -1.7322500     0.4923850     1.3997900
  H        2.8336360     0.3321260     1.4253690
  H        2.2399750    -1.1846720     0.7384180
  H        0.7096630     1.2770080     1.1428940
  H       -1.3913480     1.4204780    -1.4971700
  H       -0.9867360     2.3841060    -0.0548340
  H       -2.6752710     1.9656290    -0.4028710
  H        2.2847230    -0.2144000    -1.5438430
  H        2.8717410     1.3343490    -0.8997070
  H        3.8959980    -0.1107530    -0.8084670
  H       -1.9544520    -1.3731060    -0.4835650
units angstrom
no_reorient  #important for SAPT in psi4, default
symmetry c1  #important for SAPT in psi4, default
}

set PROPERTIES_ORIGIN ["COM"]
properties('MP2/aug-cc-pvtz', properties = ['dipole'])
--------------------------------------------------------------------------

    Molecular point group: c1
  Charge       = 0
  Multiplicity = 1
  Basis Set: AUG-CC-PVTZ
    Blend: AUG-CC-PVTZ
  Basis Set: (AUG-CC-PVTZ AUX)
    Blend: AUG-CC-PVTZ-JKFIT

    Orbital Energies [Eh]
    ---------------------

    Doubly Occupied:

       1A    -20.549027     2A    -20.527883     3A    -15.602772
       4A    -11.357690     5A    -11.299059     6A    -11.275917
       7A    -11.231141     8A    -11.224747     9A     -1.389253
      10A     -1.343232    11A     -1.249584    12A     -1.056066
      13A     -1.015137    14A     -0.902618    15A     -0.850833
      16A     -0.797522    17A     -0.744995    18A     -0.678121
      19A     -0.650117    20A     -0.636228    21A     -0.615773
      22A     -0.597741    23A     -0.579432    24A     -0.553000
      25A     -0.549273    26A     -0.538319    27A     -0.517563
      28A     -0.509947    29A     -0.500188    30A     -0.447372
      31A     -0.430467    32A     -0.404508

  @DF-RHF Final Energy:  -400.08092060451889

   => Energetics <=

    Nuclear Repulsion Energy =            400.9991006578060819
    One-Electron Energy =               -1340.9089959467560220
    Two-Electron Energy =                 539.8289746844310457
    Total Energy =                       -400.0809206045188375
  Basis Set: (AUG-CC-PVTZ AUX)
    Blend: AUG-CC-PVTZ-RI
    Molecular point group: c1

    Geometry (in Angstrom), charge = 0, multiplicity = 1:

       Center              X                  Y                   Z               Mass
    ------------   -----------------  -----------------  -----------------  -----------------
         O           -2.499181674259    -0.624158926212    -0.148771193366    15.994914619570
         O           -0.013636674259    -1.408654926212    -0.375731193366    15.994914619570
         N            0.877931325741     0.364956073788     0.739093806634    14.003074004430
         C           -1.547047674259     0.298191073788     0.337357806634    12.000000000000
         C            2.250326325741    -0.104688926212     0.608300806634    12.000000000000
         C           -0.141491474259    -0.281340926212     0.171741306634    12.000000000000
         C           -1.601901274259     1.595084373788    -0.461096593366    12.000000000000
         C            2.859182325741     0.248674073788    -0.741413193366    12.000000000000
         H           -1.738890674259     0.488823073788     1.404551806634     1.007825032230
         H            2.826995325741     0.328564073788     1.430130806634     1.007825032230
         H            2.233334325741    -1.188233926212     0.743179806634     1.007825032230
         H            0.703022325741     1.273446073788     1.147655806634     1.007825032230
         H           -1.397988674259     1.416916073788    -1.492408193366     1.007825032230
         H           -0.993376674259     2.380544073788    -0.050072193366     1.007825032230
         H           -2.681911674259     1.962067073788    -0.398109193366     1.007825032230
         H            2.278082325741    -0.217961926212    -1.539081193366     1.007825032230
         H            2.865100325741     1.330787073788    -0.894945193366     1.007825032230
         H            3.889357325741    -0.114314926212    -0.803705193366     1.007825032230
         H           -1.961092674259    -1.376667926212    -0.478803193366     1.007825032230

  Basis Set: AUG-CC-PVTZ
    Blend: AUG-CC-PVTZ
  Basis Set: (AUG-CC-PVTZ AUX)
    Blend: AUG-CC-PVTZ-JKFIT
	 Reference Energy          =    -400.0809206045188944 [Eh]
	 Singles Energy            =      -0.0000000000000000 [Eh]
	 Same-Spin Energy          =      -0.4027760823302718 [Eh]
	 Opposite-Spin Energy      =      -1.3088843590818726 [Eh]
	 Correlation Energy        =      -1.7116604414121444 [Eh]
	 Total Energy              =    -401.7925810459310583 [Eh]

	 ================> DF-SCS-MP2 Energies <==================
	-----------------------------------------------------------
	 SCS Same-Spin Scale       =       0.3333333333333333 [-]
	 SCS Opposite-Spin Scale   =       1.2000000000000000 [-]
	 SCS Same-Spin Energy      =      -0.1342586941100906 [Eh]
	 SCS Opposite-Spin Energy  =      -1.5706612308982471 [Eh]
	 SCS Correlation Energy    =      -1.7049199250083378 [Eh]
	 SCS Total Energy          =    -401.7858405295272064 [Eh]
	-----------------------------------------------------------

  Dipole Moment: [D]
     X:     3.0215      Y:     3.2771      Z:     1.6116     Total:     4.7398

*** Psi4 exiting successfully. Buy a developer a beer!
