                               Psi4 1.3.2 release

  ==> Input File <==

--------------------------------------------------------------------------
#psi4
#
memory 32 gb

molecule  {
0 1
  O       -2.4925410    -0.6205970    -0.1535330
  O       -0.0069960    -1.4050930    -0.3804930
  N        0.8858898     0.3782144     0.7108722
  C       -1.5404070     0.3017530     0.3325960
  C        2.2569670    -0.1011270     0.6035390
  C       -0.1490540    -0.3186880     0.1981930
  C       -1.6458490     1.6048030    -0.4506110
  C        2.8430331     0.2639974    -0.7531149
  H       -1.7322500     0.4923850     1.3997900
  H        2.8336360     0.3321260     1.4253690
  H        2.2399750    -1.1846720     0.7384180
  H        0.7096630     1.2770080     1.1428940
  H       -1.3913480     1.4204780    -1.4971700
  H       -0.9867360     2.3841060    -0.0548340
  H       -2.6752710     1.9656290    -0.4028710
  H        2.2847230    -0.2144000    -1.5438430
  H        2.8717410     1.3343490    -0.8997070
  H        3.8959980    -0.1107530    -0.8084670
  H       -1.9544520    -1.3731060    -0.4835650
units angstrom
no_reorient  #important for SAPT in psi4, default
symmetry c1  #important for SAPT in psi4, default
}

set PROPERTIES_ORIGIN ["COM"]
properties('MP2/aug-cc-pvtz', properties = ['dipole'])
--------------------------------------------------------------------------

    Molecular point group: c1
  Charge       = 0
  Multiplicity = 1
  Basis Set: AUG-CC-PVTZ
    Blend: AUG-CC-PVTZ
  Basis Set: (AUG-CC-PVTZ AUX)
    Blend: AUG-CC-PVTZ-JKFIT

    Orbital Energies [Eh]
    ---------------------

    Doubly Occupied:

       1A    -20.548306     2A    -20.532548     3A    -15.598454
       4A    -11.358329     5A    -11.297962     6A    -11.274466
       7A    -11.230799     8A    -11.222983     9A     -1.398105
      10A     -1.346415    11A     -1.246326    12A     -1.052982
      13A     -1.012386    14A     -0.902136    15A     -0.849426
      16A     -0.794400    17A     -0.744806    18A     -0.676971
      19A     -0.648510    20A     -0.641692    21A     -0.614198
      22A     -0.598297    23A     -0.576166    24A     -0.563121
      25A     -0.539966    26A     -0.531297    27A     -0.522646
      28A     -0.513831    29A     -0.505530    30A     -0.445499
      31A     -0.435628    32A     -0.402810

  @DF-RHF Final Energy:  -400.08681155141795

   => Energetics <=

    Nuclear Repulsion Energy =            400.9769881902435031
    One-Electron Energy =               -1340.8736186864789488
    Two-Electron Energy =                 539.8098189448174935
    Total Energy =                       -400.0868115514180090
  Basis Set: (AUG-CC-PVTZ AUX)
    Blend: AUG-CC-PVTZ-RI
    Molecular point group: c1

    Geometry (in Angstrom), charge = 0, multiplicity = 1:

       Center              X                  Y                   Z               Mass
    ------------   -----------------  -----------------  -----------------  -----------------
         O           -2.490362629530    -0.622962200763    -0.150016017042    15.994914619570
         O           -0.004817629530    -1.407458200763    -0.376976017042    15.994914619570
         N            0.888068170470     0.375849199237     0.714389182958    14.003074004430
         C           -1.538228629530     0.299387799237     0.336112982958    12.000000000000
         C            2.259145370470    -0.103492200763     0.607055982958    12.000000000000
         C           -0.146875629530    -0.321053200763     0.201709982958    12.000000000000
         C           -1.643670629530     1.602437799237    -0.447094017042    12.000000000000
         C            2.845211470470     0.261632199237    -0.749597917042    12.000000000000
         H           -1.730071629530     0.490019799237     1.403306982958     1.007825032230
         H            2.835814370470     0.329760799237     1.428885982958     1.007825032230
         H            2.242153370470    -1.187037200763     0.741934982958     1.007825032230
         H            0.711841370470     1.274642799237     1.146410982958     1.007825032230
         H           -1.389169629530     1.418112799237    -1.493653017042     1.007825032230
         H           -0.984557629530     2.381740799237    -0.051317017042     1.007825032230
         H           -2.673092629530     1.963263799237    -0.399354017042     1.007825032230
         H            2.286901370470    -0.216765200763    -1.540326017042     1.007825032230
         H            2.873919370470     1.331983799237    -0.896190017042     1.007825032230
         H            3.898176370470    -0.113118200763    -0.804950017042     1.007825032230
         H           -1.952273629530    -1.375471200763    -0.480048017042     1.007825032230

  Basis Set: AUG-CC-PVTZ
    Blend: AUG-CC-PVTZ
  Basis Set: (AUG-CC-PVTZ AUX)
    Blend: AUG-CC-PVTZ-JKFIT
	 Reference Energy          =    -400.0868115514179522 [Eh]
	 Singles Energy            =      -0.0000000000000000 [Eh]
	 Same-Spin Energy          =      -0.4021901528969249 [Eh]
	 Opposite-Spin Energy      =      -1.3077860595926136 [Eh]
	 Correlation Energy        =      -1.7099762124895386 [Eh]
	 Total Energy              =    -401.7967877639075027 [Eh]

	 ================> DF-SCS-MP2 Energies <==================
	-----------------------------------------------------------
	 SCS Same-Spin Scale       =       0.3333333333333333 [-]
	 SCS Opposite-Spin Scale   =       1.2000000000000000 [-]
	 SCS Same-Spin Energy      =      -0.1340633842989750 [Eh]
	 SCS Opposite-Spin Energy  =      -1.5693432715111364 [Eh]
	 SCS Correlation Energy    =      -1.7034066558101113 [Eh]
	 SCS Total Energy          =    -401.7902182072280652 [Eh]
	-----------------------------------------------------------

  Dipole Moment: [D]
     X:     2.9126      Y:     3.1521      Z:     1.6196     Total:     4.5871

*** Psi4 exiting successfully. Buy a developer a beer!
