                               Psi4 1.3.2 release

  ==> Input File <==

--------------------------------------------------------------------------
#psi4
#
memory 32 gb

molecule  {
0 1
  O       -2.4925410    -0.6205970    -0.1535330
  O       -0.0069960    -1.4050930    -0.3804930
  N        0.8783002     0.3552895     0.7135524
  C       -1.5404070     0.3017530     0.3325960
  C        2.2569670    -0.1011270     0.6035390
  C       -0.1490540    -0.3186880     0.1981930
  C       -1.6458490     1.6048030    -0.4506110
  C        2.8658230     0.2522360    -0.7461750
  H       -1.7322500     0.4923850     1.3997900
  H        2.8492250     0.3232128     1.4189077
  H        2.2399750    -1.1846720     0.7384180
  H        0.7096630     1.2770080     1.1428940
  H       -1.3913480     1.4204780    -1.4971700
  H       -0.9867360     2.3841060    -0.0548340
  H       -2.6752710     1.9656290    -0.4028710
  H        2.2847230    -0.2144000    -1.5438430
  H        2.8717410     1.3343490    -0.8997070
  H        3.8959980    -0.1107530    -0.8084670
  H       -1.9544520    -1.3731060    -0.4835650
units angstrom
no_reorient  #important for SAPT in psi4, default
symmetry c1  #important for SAPT in psi4, default
}

set PROPERTIES_ORIGIN ["COM"]
properties('MP2/aug-cc-pvtz', properties = ['dipole'])
--------------------------------------------------------------------------

    Molecular point group: c1
  Charge       = 0
  Multiplicity = 1
  Basis Set: AUG-CC-PVTZ
    Blend: AUG-CC-PVTZ
  Basis Set: (AUG-CC-PVTZ AUX)
    Blend: AUG-CC-PVTZ-JKFIT

    Orbital Energies [Eh]
    ---------------------

    Doubly Occupied:

       1A    -20.547935     2A    -20.529429     3A    -15.601296
       4A    -11.355920     5A    -11.297783     6A    -11.275003
       7A    -11.230756     8A    -11.223557     9A     -1.398055
      10A     -1.346250    11A     -1.247581    12A     -1.053765
      13A     -1.013528    14A     -0.903138    15A     -0.849642
      16A     -0.792345    17A     -0.744966    18A     -0.677500
      19A     -0.649414    20A     -0.640466    21A     -0.614762
      22A     -0.595843    23A     -0.576712    24A     -0.563205
      25A     -0.543145    26A     -0.534193    27A     -0.520967
      28A     -0.512696    29A     -0.502152    30A     -0.445164
      31A     -0.434956    32A     -0.403650

  @DF-RHF Final Energy:  -400.08697419186728

   => Energetics <=

    Nuclear Repulsion Energy =            401.0499791451728129
    One-Electron Energy =               -1341.0223583965100715
    Two-Electron Energy =                 539.8854050594700311
    Total Energy =                       -400.0869741918672844
  Basis Set: (AUG-CC-PVTZ AUX)
    Blend: AUG-CC-PVTZ-RI
    Molecular point group: c1

    Geometry (in Angstrom), charge = 0, multiplicity = 1:

       Center              X                  Y                   Z               Mass
    ------------   -----------------  -----------------  -----------------  -----------------
         O           -2.491924925820    -0.618938089664    -0.150992263849    15.994914619570
         O           -0.006379925820    -1.403434089664    -0.377952263849    15.994914619570
         N            0.878916274180     0.356948410336     0.716093136151    14.003074004430
         C           -1.539790925820     0.303411910336     0.335136736151    12.000000000000
         C            2.257583074180    -0.099468089664     0.606079736151    12.000000000000
         C           -0.148437925820    -0.317029089664     0.200733736151    12.000000000000
         C           -1.645232925820     1.606461910336    -0.448070263849    12.000000000000
         C            2.866439074180     0.253894910336    -0.743634263849    12.000000000000
         H           -1.731633925820     0.494043910336     1.402330736151     1.007825032230
         H            2.849841074180     0.324871710336     1.421448436151     1.007825032230
         H            2.240591074180    -1.183013089664     0.740958736151     1.007825032230
         H            0.710279074180     1.278666910336     1.145434736151     1.007825032230
         H           -1.390731925820     1.422136910336    -1.494629263849     1.007825032230
         H           -0.986119925820     2.385764910336    -0.052293263849     1.007825032230
         H           -2.674654925820     1.967287910336    -0.400330263849     1.007825032230
         H            2.285339074180    -0.212741089664    -1.541302263849     1.007825032230
         H            2.872357074180     1.336007910336    -0.897166263849     1.007825032230
         H            3.896614074180    -0.109094089664    -0.805926263849     1.007825032230
         H           -1.953835925820    -1.371447089664    -0.481024263849     1.007825032230

  Basis Set: AUG-CC-PVTZ
    Blend: AUG-CC-PVTZ
  Basis Set: (AUG-CC-PVTZ AUX)
    Blend: AUG-CC-PVTZ-JKFIT
	 Reference Energy          =    -400.0869741918672844 [Eh]
	 Singles Energy            =      -0.0000000000000000 [Eh]
	 Same-Spin Energy          =      -0.4022039544667320 [Eh]
	 Opposite-Spin Energy      =      -1.3076721274095953 [Eh]
	 Correlation Energy        =      -1.7098760818763272 [Eh]
	 Total Energy              =    -401.7968502737435870 [Eh]

	 ================> DF-SCS-MP2 Energies <==================
	-----------------------------------------------------------
	 SCS Same-Spin Scale       =       0.3333333333333333 [-]
	 SCS Opposite-Spin Scale   =       1.2000000000000000 [-]
	 SCS Same-Spin Energy      =      -0.1340679848222440 [Eh]
	 SCS Opposite-Spin Energy  =      -1.5692065528915142 [Eh]
	 SCS Correlation Energy    =      -1.7032745377137581 [Eh]
	 SCS Total Energy          =    -401.7902487295810374 [Eh]
	-----------------------------------------------------------

  Dipole Moment: [D]
     X:     2.9770      Y:     3.2039      Z:     1.6274     Total:     4.6665

*** Psi4 exiting successfully. Buy a developer a beer!
