                               Psi4 1.3.2 release

  ==> Input File <==

--------------------------------------------------------------------------
#psi4
#
memory 32 gb

molecule  {
0 1
  O       -2.4925410    -0.6205970    -0.1535330
  O       -0.0069960    -1.4050930    -0.3804930
  N        0.8845720     0.3685180     0.7343320
  C       -1.5404070     0.3017530     0.3325960
  C        2.2569670    -0.1011270     0.6035390
  C       -0.1375893    -0.4063659     0.1514903
  C       -1.6458490     1.6048030    -0.4506110
  C        2.8658230     0.2522360    -0.7461750
  H       -1.7322500     0.4923850     1.3997900
  H        2.8336360     0.3321260     1.4253690
  H        2.2399750    -1.1846720     0.7384180
  H        0.7096630     1.2770080     1.1428940
  H       -1.3913480     1.4204780    -1.4971700
  H       -0.9867360     2.3841060    -0.0548340
  H       -2.6752710     1.9656290    -0.4028710
  H        2.2847230    -0.2144000    -1.5438430
  H        2.8717410     1.3343490    -0.8997070
  H        3.8959980    -0.1107530    -0.8084670
  H       -1.9544520    -1.3731060    -0.4835650
units angstrom
no_reorient  #important for SAPT in psi4, default
symmetry c1  #important for SAPT in psi4, default
}

set PROPERTIES_ORIGIN ["COM"]
properties('MP2/aug-cc-pvtz', properties = ['dipole'])
--------------------------------------------------------------------------

    Molecular point group: c1
  Charge       = 0
  Multiplicity = 1
  Basis Set: AUG-CC-PVTZ
    Blend: AUG-CC-PVTZ
  Basis Set: (AUG-CC-PVTZ AUX)
    Blend: AUG-CC-PVTZ-JKFIT

    Orbital Energies [Eh]
    ---------------------

    Doubly Occupied:

       1A    -20.554034     2A    -20.548366     3A    -15.582732
       4A    -11.355837     5A    -11.294361     6A    -11.266576
       7A    -11.227828     8A    -11.219895     9A     -1.463285
      10A     -1.354534    11A     -1.230065    12A     -1.040628
      13A     -1.004540    14A     -0.890805    15A     -0.839233
      16A     -0.787132    17A     -0.747391    18A     -0.688433
      19A     -0.659894    20A     -0.639565    21A     -0.616914
      22A     -0.602738    23A     -0.576569    24A     -0.560859
      25A     -0.549946    26A     -0.534918    27A     -0.533429
      28A     -0.527357    29A     -0.501928    30A     -0.445065
      31A     -0.426190    32A     -0.398783

  @DF-RHF Final Energy:  -400.07683351779161

   => Energetics <=

    Nuclear Repulsion Energy =            401.0567445893689182
    One-Electron Energy =               -1340.9274943613643245
    Two-Electron Energy =                 539.7939162542038503
    Total Energy =                       -400.0768335177915560
  Basis Set: (AUG-CC-PVTZ AUX)
    Blend: AUG-CC-PVTZ-RI
    Molecular point group: c1

    Geometry (in Angstrom), charge = 0, multiplicity = 1:

       Center              X                  Y                   Z               Mass
    ------------   -----------------  -----------------  -----------------  -----------------
         O           -2.493715938158    -0.611610453228    -0.148746410096    15.994914619570
         O           -0.008170938158    -1.396106453228    -0.375706410096    15.994914619570
         N            0.883397061842     0.377504546772     0.739118589904    14.003074004430
         C           -1.541581938158     0.310739546772     0.337382589904    12.000000000000
         C            2.255792061842    -0.092140453228     0.608325589904    12.000000000000
         C           -0.138764238158    -0.397379353228     0.156276889904    12.000000000000
         C           -1.647023938158     1.613789546772    -0.445824410096    12.000000000000
         C            2.864648061842     0.261222546772    -0.741388410096    12.000000000000
         H           -1.733424938158     0.501371546772     1.404576589904     1.007825032230
         H            2.832461061842     0.341112546772     1.430155589904     1.007825032230
         H            2.238800061842    -1.175685453228     0.743204589904     1.007825032230
         H            0.708488061842     1.285994546772     1.147680589904     1.007825032230
         H           -1.392522938158     1.429464546772    -1.492383410096     1.007825032230
         H           -0.987910938158     2.393092546772    -0.050047410096     1.007825032230
         H           -2.676445938158     1.974615546772    -0.398084410096     1.007825032230
         H            2.283548061842    -0.205413453228    -1.539056410096     1.007825032230
         H            2.870566061842     1.343335546772    -0.894920410096     1.007825032230
         H            3.894823061842    -0.101766453228    -0.803680410096     1.007825032230
         H           -1.955626938158    -1.364119453228    -0.478778410096     1.007825032230

  Basis Set: AUG-CC-PVTZ
    Blend: AUG-CC-PVTZ
  Basis Set: (AUG-CC-PVTZ AUX)
    Blend: AUG-CC-PVTZ-JKFIT
	 Reference Energy          =    -400.0768335177916128 [Eh]
	 Singles Energy            =      -0.0000000000000000 [Eh]
	 Same-Spin Energy          =      -0.4000981971688424 [Eh]
	 Opposite-Spin Energy      =      -1.3039905024530576 [Eh]
	 Correlation Energy        =      -1.7040886996219000 [Eh]
	 Total Energy              =    -401.7809222174134902 [Eh]

	 ================> DF-SCS-MP2 Energies <==================
	-----------------------------------------------------------
	 SCS Same-Spin Scale       =       0.3333333333333333 [-]
	 SCS Opposite-Spin Scale   =       1.2000000000000000 [-]
	 SCS Same-Spin Energy      =      -0.1333660657229475 [Eh]
	 SCS Opposite-Spin Energy  =      -1.5647886029436691 [Eh]
	 SCS Correlation Energy    =      -1.6981546686666165 [Eh]
	 SCS Total Energy          =    -401.7749881864582449 [Eh]
	-----------------------------------------------------------

  Dipole Moment: [D]
     X:     2.6640      Y:     2.5639      Z:     1.2611     Total:     3.9065

*** Psi4 exiting successfully. Buy a developer a beer!
