                               Psi4 1.3.2 release

  ==> Input File <==

--------------------------------------------------------------------------
#psi4
#
memory 32 gb

molecule  {
0 1
  O       -2.4925410    -0.6205970    -0.1535330
  O       -0.0069960    -1.4050930    -0.3804930
  N        0.8845720     0.3685180     0.7343320
  C       -1.5404070     0.3017530     0.3325960
  C        2.2569670    -0.1011270     0.6035390
  C       -0.1561633    -0.3208836     0.1453329
  C       -1.6458490     1.6048030    -0.4506110
  C        2.8658230     0.2522360    -0.7461750
  H       -1.7667361     0.5064865     1.3903799
  H        2.8336360     0.3321260     1.4253690
  H        2.2399750    -1.1846720     0.7384180
  H        0.7096630     1.2770080     1.1428940
  H       -1.3913480     1.4204780    -1.4971700
  H       -0.9867360     2.3841060    -0.0548340
  H       -2.6752710     1.9656290    -0.4028710
  H        2.2847230    -0.2144000    -1.5438430
  H        2.8717410     1.3343490    -0.8997070
  H        3.8959980    -0.1107530    -0.8084670
  H       -1.9544520    -1.3731060    -0.4835650
units angstrom
no_reorient  #important for SAPT in psi4, default
symmetry c1  #important for SAPT in psi4, default
}

set PROPERTIES_ORIGIN ["COM"]
properties('MP2/aug-cc-pvtz', properties = ['dipole'])
--------------------------------------------------------------------------

    Molecular point group: c1
  Charge       = 0
  Multiplicity = 1
  Basis Set: AUG-CC-PVTZ
    Blend: AUG-CC-PVTZ
  Basis Set: (AUG-CC-PVTZ AUX)
    Blend: AUG-CC-PVTZ-JKFIT

    Orbital Energies [Eh]
    ---------------------

    Doubly Occupied:

       1A    -20.549021     2A    -20.540791     3A    -15.593233
       4A    -11.360572     5A    -11.297929     6A    -11.271163
       7A    -11.230400     8A    -11.221901     9A     -1.412469
      10A     -1.350766    11A     -1.238227    12A     -1.050999
      13A     -1.010242    14A     -0.899827    15A     -0.846230
      16A     -0.788485    17A     -0.748760    18A     -0.677270
      19A     -0.648381    20A     -0.644315    21A     -0.613074
      22A     -0.598380    23A     -0.577706    24A     -0.563032
      25A     -0.542087    26A     -0.533936    27A     -0.525250
      28A     -0.519250    29A     -0.501772    30A     -0.446033
      31A     -0.438314    32A     -0.401394

  @DF-RHF Final Energy:  -400.08653183852664

   => Energetics <=

    Nuclear Repulsion Energy =            400.7432824194613659
    One-Electron Energy =               -1340.3772068370287798
    Two-Electron Energy =                 539.5473925790407748
    Total Energy =                       -400.0865318385266391
  Basis Set: (AUG-CC-PVTZ AUX)
    Blend: AUG-CC-PVTZ-RI
    Molecular point group: c1

    Geometry (in Angstrom), charge = 0, multiplicity = 1:

       Center              X                  Y                   Z               Mass
    ------------   -----------------  -----------------  -----------------  -----------------
         O           -2.491515338546    -0.620493341148    -0.148034305025    15.994914619570
         O           -0.005970338546    -1.404989341148    -0.374994305025    15.994914619570
         N            0.885597661454     0.368621658852     0.739830694975    14.003074004430
         C           -1.539381338546     0.301856658852     0.338094694975    12.000000000000
         C            2.257992661454    -0.101023341148     0.609037694975    12.000000000000
         C           -0.155137638546    -0.320779941148     0.150831594975    12.000000000000
         C           -1.644823338546     1.604906658852    -0.445112305025    12.000000000000
         C            2.866848661454     0.252339658852    -0.740676305025    12.000000000000
         H           -1.765710438546     0.506590158852     1.395878594975     1.007825032230
         H            2.834661661454     0.332229658852     1.430867694975     1.007825032230
         H            2.241000661454    -1.184568341148     0.743916694975     1.007825032230
         H            0.710688661454     1.277111658852     1.148392694975     1.007825032230
         H           -1.390322338546     1.420581658852    -1.491671305025     1.007825032230
         H           -0.985710338546     2.384209658852    -0.049335305025     1.007825032230
         H           -2.674245338546     1.965732658852    -0.397372305025     1.007825032230
         H            2.285748661454    -0.214296341148    -1.538344305025     1.007825032230
         H            2.872766661454     1.334452658852    -0.894208305025     1.007825032230
         H            3.897023661454    -0.110649341148    -0.802968305025     1.007825032230
         H           -1.953426338546    -1.373002341148    -0.478066305025     1.007825032230

  Basis Set: AUG-CC-PVTZ
    Blend: AUG-CC-PVTZ
  Basis Set: (AUG-CC-PVTZ AUX)
    Blend: AUG-CC-PVTZ-JKFIT
	 Reference Energy          =    -400.0865318385266391 [Eh]
	 Singles Energy            =      -0.0000000000000000 [Eh]
	 Same-Spin Energy          =      -0.4017808607225125 [Eh]
	 Opposite-Spin Energy      =      -1.3071724980380059 [Eh]
	 Correlation Energy        =      -1.7089533587605183 [Eh]
	 Total Energy              =    -401.7954851972871779 [Eh]

	 ================> DF-SCS-MP2 Energies <==================
	-----------------------------------------------------------
	 SCS Same-Spin Scale       =       0.3333333333333333 [-]
	 SCS Opposite-Spin Scale   =       1.2000000000000000 [-]
	 SCS Same-Spin Energy      =      -0.1339269535741708 [Eh]
	 SCS Opposite-Spin Energy  =      -1.5686069976456072 [Eh]
	 SCS Correlation Energy    =      -1.7025339512197779 [Eh]
	 SCS Total Energy          =    -401.7890657897464166 [Eh]
	-----------------------------------------------------------

  Dipole Moment: [D]
     X:     2.7519      Y:     2.9978      Z:     1.4429     Total:     4.3176

*** Psi4 exiting successfully. Buy a developer a beer!
