                               Psi4 1.3.2 release

  ==> Input File <==

--------------------------------------------------------------------------
#psi4
#
memory 32 gb

molecule  {
0 1
  O       -2.4925410    -0.6205970    -0.1535330
  O       -0.0069960    -1.4050930    -0.3804930
  N        0.8845720     0.3685180     0.7343320
  C       -1.5404070     0.3017530     0.3325960
  C        2.2569670    -0.1011270     0.6035390
  C       -0.1506727    -0.3193079     0.1849601
  C       -1.6458490     1.6048030    -0.4506110
  C        2.8658230     0.2522360    -0.7461750
  H       -1.7408951     0.4959328     1.3975589
  H        2.8336360     0.3321260     1.4253690
  H        2.2399750    -1.1846720     0.7384180
  H        0.7096630     1.2770080     1.1428940
  H       -1.3913480     1.4204780    -1.4971700
  H       -0.9867360     2.3841060    -0.0548340
  H       -2.6752710     1.9656290    -0.4028710
  H        2.2847230    -0.2144000    -1.5438430
  H        2.8717410     1.3343490    -0.8997070
  H        3.8959980    -0.1107530    -0.8084670
  H       -1.9544520    -1.3731060    -0.4835650
units angstrom
no_reorient  #important for SAPT in psi4, default
symmetry c1  #important for SAPT in psi4, default
}

set PROPERTIES_ORIGIN ["COM"]
properties('MP2/aug-cc-pvtz', properties = ['dipole'])
--------------------------------------------------------------------------

    Molecular point group: c1
  Charge       = 0
  Multiplicity = 1
  Basis Set: AUG-CC-PVTZ
    Blend: AUG-CC-PVTZ
  Basis Set: (AUG-CC-PVTZ AUX)
    Blend: AUG-CC-PVTZ-JKFIT

    Orbital Energies [Eh]
    ---------------------

    Doubly Occupied:

       1A    -20.548653     2A    -20.535234     3A    -15.597424
       4A    -11.359374     5A    -11.298083     6A    -11.273305
       7A    -11.230914     8A    -11.222935     9A     -1.401674
      10A     -1.347730    11A     -1.244102    12A     -1.052281
      13A     -1.012169    14A     -0.902020    15A     -0.848374
      16A     -0.792663    17A     -0.745818    18A     -0.676780
      19A     -0.647356    20A     -0.642879    21A     -0.613231
      22A     -0.597925    23A     -0.577305    24A     -0.563403
      25A     -0.542729    26A     -0.533941    27A     -0.522306
      28A     -0.515803    29A     -0.502082    30A     -0.445697
      31A     -0.436942    32A     -0.403139

  @DF-RHF Final Energy:  -400.08802589081466

   => Energetics <=

    Nuclear Repulsion Energy =            400.6598343711565349
    One-Electron Energy =               -1340.2271843321702818
    Two-Electron Energy =                 539.4793240701990271
    Total Energy =                       -400.0880258908147198
  Basis Set: (AUG-CC-PVTZ AUX)
    Blend: AUG-CC-PVTZ-RI
    Molecular point group: c1

    Geometry (in Angstrom), charge = 0, multiplicity = 1:

       Center              X                  Y                   Z               Mass
    ------------   -----------------  -----------------  -----------------  -----------------
         O           -2.492300538483    -0.620563995309    -0.152157688929    15.994914619570
         O           -0.006755538483    -1.405059995309    -0.379117688929    15.994914619570
         N            0.884812461517     0.368551004691     0.735707311071    14.003074004430
         C           -1.540166538483     0.301786004691     0.333971311071    12.000000000000
         C            2.257207461517    -0.101093995309     0.604914311071    12.000000000000
         C           -0.150432238483    -0.319274895309     0.186335411071    12.000000000000
         C           -1.645608538483     1.604836004691    -0.449235688929    12.000000000000
         C            2.866063461517     0.252269004691    -0.744799688929    12.000000000000
         H           -1.740654638483     0.495965804691     1.398934211071     1.007825032230
         H            2.833876461517     0.332159004691     1.426744311071     1.007825032230
         H            2.240215461517    -1.184638995309     0.739793311071     1.007825032230
         H            0.709903461517     1.277041004691     1.144269311071     1.007825032230
         H           -1.391107538483     1.420511004691    -1.495794688929     1.007825032230
         H           -0.986495538483     2.384139004691    -0.053458688929     1.007825032230
         H           -2.675030538483     1.965662004691    -0.401495688929     1.007825032230
         H            2.284963461517    -0.214366995309    -1.542467688929     1.007825032230
         H            2.871981461517     1.334382004691    -0.898331688929     1.007825032230
         H            3.896238461517    -0.110719995309    -0.807091688929     1.007825032230
         H           -1.954211538483    -1.373072995309    -0.482189688929     1.007825032230

  Basis Set: AUG-CC-PVTZ
    Blend: AUG-CC-PVTZ
  Basis Set: (AUG-CC-PVTZ AUX)
    Blend: AUG-CC-PVTZ-JKFIT
	 Reference Energy          =    -400.0880258908146629 [Eh]
	 Singles Energy            =      -0.0000000000000000 [Eh]
	 Same-Spin Energy          =      -0.4020155929412214 [Eh]
	 Opposite-Spin Energy      =      -1.3075146034324541 [Eh]
	 Correlation Energy        =      -1.7095301963736755 [Eh]
	 Total Energy              =    -401.7975560871883545 [Eh]

	 ================> DF-SCS-MP2 Energies <==================
	-----------------------------------------------------------
	 SCS Same-Spin Scale       =       0.3333333333333333 [-]
	 SCS Opposite-Spin Scale   =       1.2000000000000000 [-]
	 SCS Same-Spin Energy      =      -0.1340051976470738 [Eh]
	 SCS Opposite-Spin Energy  =      -1.5690175241189448 [Eh]
	 SCS Correlation Energy    =      -1.7030227217660185 [Eh]
	 SCS Total Energy          =    -401.7910486125807097 [Eh]
	-----------------------------------------------------------

  Dipole Moment: [D]
     X:     2.8658      Y:     3.1105      Z:     1.5319     Total:     4.4983

*** Psi4 exiting successfully. Buy a developer a beer!
