                               Psi4 1.3.2 release

  ==> Input File <==

--------------------------------------------------------------------------
#psi4
#
memory 32 gb

molecule  {
0 1
  O       -2.4925410    -0.6205970    -0.1535330
  O       -0.0069960    -1.4050930    -0.3804930
  N        0.8878648     0.3750788     0.7447073
  C       -1.5404070     0.3017530     0.3325960
  C        2.2569670    -0.1011270     0.6035390
  C       -0.1490540    -0.3186880     0.1981930
  C       -1.6458490     1.6048030    -0.4506110
  C        2.8658230     0.2522360    -0.7461750
  H       -1.7322500     0.4923850     1.3997900
  H        2.8257753     0.3365333     1.4285059
  H        2.2399750    -1.1846720     0.7384180
  H        0.7096630     1.2770080     1.1428940
  H       -1.3913480     1.4204780    -1.4971700
  H       -0.9867360     2.3841060    -0.0548340
  H       -2.6752710     1.9656290    -0.4028710
  H        2.2847230    -0.2144000    -1.5438430
  H        2.8717410     1.3343490    -0.8997070
  H        3.8959980    -0.1107530    -0.8084670
  H       -1.9544520    -1.3731060    -0.4835650
units angstrom
no_reorient  #important for SAPT in psi4, default
symmetry c1  #important for SAPT in psi4, default
}

set PROPERTIES_ORIGIN ["COM"]
properties('MP2/aug-cc-pvtz', properties = ['dipole'])
--------------------------------------------------------------------------

    Molecular point group: c1
  Charge       = 0
  Multiplicity = 1
  Basis Set: AUG-CC-PVTZ
    Blend: AUG-CC-PVTZ
  Basis Set: (AUG-CC-PVTZ AUX)
    Blend: AUG-CC-PVTZ-JKFIT

    Orbital Energies [Eh]
    ---------------------

    Doubly Occupied:

       1A    -20.548852     2A    -20.535371     3A    -15.597581
       4A    -11.360558     5A    -11.298402     6A    -11.273553
       7A    -11.231277     8A    -11.223151     9A     -1.398554
      10A     -1.346851    11A     -1.244906    12A     -1.052318
      13A     -1.012434    14A     -0.902600    15A     -0.848971
      16A     -0.794781    17A     -0.744789    18A     -0.676441
      19A     -0.647276    20A     -0.641961    21A     -0.612625
      22A     -0.598582    23A     -0.577270    24A     -0.563658
      25A     -0.542959    26A     -0.533950    27A     -0.521623
      28A     -0.515318    29A     -0.502108    30A     -0.445958
      31A     -0.436689    32A     -0.403480

  @DF-RHF Final Energy:  -400.08753877750513

   => Energetics <=

    Nuclear Repulsion Energy =            400.4152790351186013
    One-Electron Energy =               -1339.7359386154471395
    Two-Electron Energy =                 539.2331208028233505
    Total Energy =                       -400.0875387775051877
  Basis Set: (AUG-CC-PVTZ AUX)
    Blend: AUG-CC-PVTZ-RI
    Molecular point group: c1

    Geometry (in Angstrom), charge = 0, multiplicity = 1:

       Center              X                  Y                   Z               Mass
    ------------   -----------------  -----------------  -----------------  -----------------
         O           -2.492867030102    -0.621419626223    -0.154801125883    15.994914619570
         O           -0.007322030102    -1.405915626223    -0.381761125883    15.994914619570
         N            0.887538769898     0.374256173777     0.743439174117    14.003074004430
         C           -1.540733030102     0.300930373777     0.331327874117    12.000000000000
         C            2.256640969898    -0.101949626223     0.602270874117    12.000000000000
         C           -0.149380030102    -0.319510626223     0.196924874117    12.000000000000
         C           -1.646175030102     1.603980373777    -0.451879125883    12.000000000000
         C            2.865496969898     0.251413373777    -0.747443125883    12.000000000000
         H           -1.732576030102     0.491562373777     1.398521874117     1.007825032230
         H            2.825449269898     0.335710673777     1.427237774117     1.007825032230
         H            2.239648969898    -1.185494626223     0.737149874117     1.007825032230
         H            0.709336969898     1.276185373777     1.141625874117     1.007825032230
         H           -1.391674030102     1.419655373777    -1.498438125883     1.007825032230
         H           -0.987062030102     2.383283373777    -0.056102125883     1.007825032230
         H           -2.675597030102     1.964806373777    -0.404139125883     1.007825032230
         H            2.284396969898    -0.215222626223    -1.545111125883     1.007825032230
         H            2.871414969898     1.333526373777    -0.900975125883     1.007825032230
         H            3.895671969898    -0.111575626223    -0.809735125883     1.007825032230
         H           -1.954778030102    -1.373928626223    -0.484833125883     1.007825032230

  Basis Set: AUG-CC-PVTZ
    Blend: AUG-CC-PVTZ
  Basis Set: (AUG-CC-PVTZ AUX)
    Blend: AUG-CC-PVTZ-JKFIT
	 Reference Energy          =    -400.0875387775051308 [Eh]
	 Singles Energy            =      -0.0000000000000000 [Eh]
	 Same-Spin Energy          =      -0.4020877946364014 [Eh]
	 Opposite-Spin Energy      =      -1.3077311946338823 [Eh]
	 Correlation Energy        =      -1.7098189892702838 [Eh]
	 Total Energy              =    -401.7973577667754057 [Eh]

	 ================> DF-SCS-MP2 Energies <==================
	-----------------------------------------------------------
	 SCS Same-Spin Scale       =       0.3333333333333333 [-]
	 SCS Opposite-Spin Scale   =       1.2000000000000000 [-]
	 SCS Same-Spin Energy      =      -0.1340292648788005 [Eh]
	 SCS Opposite-Spin Energy  =      -1.5692774335606587 [Eh]
	 SCS Correlation Energy    =      -1.7033066984394591 [Eh]
	 SCS Total Energy          =    -401.7908454759445931 [Eh]
	-----------------------------------------------------------

  Dipole Moment: [D]
     X:     2.8649      Y:     3.1199      Z:     1.5255     Total:     4.5021

*** Psi4 exiting successfully. Buy a developer a beer!
