                               Psi4 1.4a3.dev225

  ==> Input File <==

--------------------------------------------------------------------------
#psi4
#
memory 32 gb

molecule  {
0 1
  O       -2.5334200    -0.7491890    -0.0380440
  O       -0.0309920    -1.3916750    -0.5246560
  N        0.8474210     0.2516040     0.7908210
  C       -1.5793960     0.2040340     0.3844480
  C        2.2299320    -0.1523350     0.5631470
  C       -0.1364349    -0.4055535     0.1783466
  C       -1.7305020     1.4971750    -0.4144490
  C        2.7876300     0.3918150    -0.7462470
  H       -1.7371730     0.4054880     1.4537200
  H        2.8183710     0.1913570     1.4185970
  H        2.2480760    -1.2444890     0.5585260
  H        0.6595560     1.1005830     1.3085070
  H       -1.5202540     1.2971370    -1.4686150
  H       -1.0543700     2.2823790    -0.0604110
  H       -2.7592110     1.8535180    -0.3272230
  H        2.1936920     0.0168210    -1.5822170
  H        2.7616940     1.4848860    -0.7566670
  H        3.8242090     0.0700520    -0.8849050
  H       -2.0046360    -1.4186050    -0.5240660
units angstrom
no_reorient  #important for SAPT in psi4, default
symmetry c1  #important for SAPT in psi4, default
}

set PROPERTIES_ORIGIN ["COM"]
properties('MP2/aug-cc-pvtz', properties = ['dipole'])
--------------------------------------------------------------------------

    Molecular point group: c1
  Charge       = 0
  Multiplicity = 1
  Basis Set: AUG-CC-PVTZ
    Blend: AUG-CC-PVTZ
  Basis Set: (AUG-CC-PVTZ AUX)
    Blend: AUG-CC-PVTZ-JKFIT

    Orbital Energies [Eh]
    ---------------------

    Doubly Occupied:

       1A    -20.547047     2A    -20.534188     3A    -15.600293
       4A    -11.355313     5A    -11.295521     6A    -11.275223
       7A    -11.227285     8A    -11.225439     9A     -1.407236
      10A     -1.346991    11A     -1.254867    12A     -1.047161
      13A     -1.011356    14A     -0.897555    15A     -0.844089
      16A     -0.802194    17A     -0.740644    18A     -0.675226
      19A     -0.647551    20A     -0.637367    21A     -0.616133
      22A     -0.603756    23A     -0.580007    24A     -0.562611
      25A     -0.542372    26A     -0.531466    27A     -0.526327
      28A     -0.514604    29A     -0.505349    30A     -0.444329
      31A     -0.424517    32A     -0.408129

  @DF-RHF Final Energy:  -400.08720003692201

   => Energetics <=

    Nuclear Repulsion Energy =            400.5557529715358100
    One-Electron Energy =               -1340.0216094067575341
    Two-Electron Energy =                 539.3786563982996540
    Total Energy =                       -400.0872000369220132
  Basis Set: (AUG-CC-PVTZ AUX)
    Blend: AUG-CC-PVTZ-RI
    Molecular point group: c1

    Geometry (in Angstrom), charge = 0, multiplicity = 1:

       Center              X                  Y                   Z               Mass
    ------------   -----------------  -----------------  -----------------  -----------------
         O           -2.492218246225    -0.696133377451    -0.044748986773    15.994914619570
         O            0.010209753775    -1.338619377451    -0.531360986773    15.994914619570
         N            0.888622753775     0.304659622549     0.784116013227    14.003074004430
         C           -1.538194246225     0.257089622549     0.377743013227    12.000000000000
         C            2.271133753775    -0.099279377451     0.556442013227    12.000000000000
         C           -0.095233146225    -0.352497877451     0.171641613227    12.000000000000
         C           -1.689300246225     1.550230622549    -0.421153986773    12.000000000000
         C            2.828831753775     0.444870622549    -0.752951986773    12.000000000000
         H           -1.695971246225     0.458543622549     1.447015013227     1.007825032230
         H            2.859572753775     0.244412622549     1.411892013227     1.007825032230
         H            2.289277753775    -1.191433377451     0.551821013227     1.007825032230
         H            0.700757753775     1.153638622549     1.301802013227     1.007825032230
         H           -1.479052246225     1.350192622549    -1.475319986773     1.007825032230
         H           -1.013168246225     2.335434622549    -0.067115986773     1.007825032230
         H           -2.718009246225     1.906573622549    -0.333927986773     1.007825032230
         H            2.234893753775     0.069876622549    -1.588921986773     1.007825032230
         H            2.802895753775     1.537941622549    -0.763371986773     1.007825032230
         H            3.865410753775     0.123107622549    -0.891609986773     1.007825032230
         H           -1.963434246225    -1.365549377451    -0.530770986773     1.007825032230

  Basis Set: AUG-CC-PVTZ
    Blend: AUG-CC-PVTZ
  Basis Set: (AUG-CC-PVTZ AUX)
    Blend: AUG-CC-PVTZ-JKFIT
	 Reference Energy          =    -400.0872000369220132 [Eh]
	 Singles Energy            =      -0.0000000000000000 [Eh]
	 Same-Spin Energy          =      -0.4014134634606406 [Eh]
	 Opposite-Spin Energy      =      -1.3065537218481775 [Eh]
	 Correlation Energy        =      -1.7079671853088181 [Eh]
	 Total Energy              =    -401.7951672222308162 [Eh]

	 ================> DF-SCS-MP2 Energies <==================
	-----------------------------------------------------------
	 SCS Same-Spin Scale       =       0.3333333333333333 [-]
	 SCS Opposite-Spin Scale   =       1.2000000000000000 [-]
	 SCS Same-Spin Energy      =      -0.1338044878202135 [Eh]
	 SCS Opposite-Spin Energy  =      -1.5678644662178129 [Eh]
	 SCS Correlation Energy    =      -1.7016689540380265 [Eh]
	 SCS Total Energy          =    -401.7888689909600544 [Eh]
	-----------------------------------------------------------

  Dipole Moment: [D]
     X:     3.0891      Y:     3.0455      Z:     1.6064     Total:     4.6258

*** Psi4 exiting successfully. Buy a developer a beer!
