                               Psi4 1.3.2 release

  ==> Input File <==

--------------------------------------------------------------------------
#psi4
#
memory 32 gb

molecule  {
0 1
  O       -2.4925410    -0.6205970    -0.1535330
  O        0.0354985    -1.4027824    -0.3727830
  N        0.9137226     0.3343400     0.7198634
  C       -1.5404070     0.3017530     0.3325960
  C        2.2569670    -0.1011270     0.6035390
  C       -0.1490540    -0.3186880     0.1981930
  C       -1.6458490     1.6048030    -0.4506110
  C        2.8658230     0.2522360    -0.7461750
  H       -1.7322500     0.4923850     1.3997900
  H        2.8336360     0.3321260     1.4253690
  H        2.2399750    -1.1846720     0.7384180
  H        0.7096630     1.2770080     1.1428940
  H       -1.3913480     1.4204780    -1.4971700
  H       -0.9867360     2.3841060    -0.0548340
  H       -2.6752710     1.9656290    -0.4028710
  H        2.2847230    -0.2144000    -1.5438430
  H        2.8717410     1.3343490    -0.8997070
  H        3.8959980    -0.1107530    -0.8084670
  H       -1.9544520    -1.3731060    -0.4835650
units angstrom
no_reorient  #important for SAPT in psi4, default
symmetry c1  #important for SAPT in psi4, default
}

set PROPERTIES_ORIGIN ["COM"]
properties('MP2/aug-cc-pvtz', properties = ['dipole'])
--------------------------------------------------------------------------

    Molecular point group: c1
  Charge       = 0
  Multiplicity = 1
  Basis Set: AUG-CC-PVTZ
    Blend: AUG-CC-PVTZ
  Basis Set: (AUG-CC-PVTZ AUX)
    Blend: AUG-CC-PVTZ-JKFIT

    Orbital Energies [Eh]
    ---------------------

    Doubly Occupied:

       1A    -20.552927     2A    -20.530709     3A    -15.598746
       4A    -11.358531     5A    -11.303116     6A    -11.268921
       7A    -11.233315     8A    -11.220466     9A     -1.399022
      10A     -1.351094    11A     -1.244924    12A     -1.054877
      13A     -1.011814    14A     -0.905647    15A     -0.851226
      16A     -0.781042    17A     -0.747680    18A     -0.679423
      19A     -0.653215    20A     -0.641215    21A     -0.614367
      22A     -0.591103    23A     -0.579438    24A     -0.565771
      25A     -0.543425    26A     -0.534886    27A     -0.519831
      28A     -0.517454    29A     -0.498649    30A     -0.448636
      31A     -0.437198    32A     -0.397764

  @DF-RHF Final Energy:  -400.08273081159194

   => Energetics <=

    Nuclear Repulsion Energy =            401.0234781520701404
    One-Electron Energy =               -1340.9395538074475098
    Two-Electron Energy =                 539.8333448437854258
    Total Energy =                       -400.0827308115920005
  Basis Set: (AUG-CC-PVTZ AUX)
    Blend: AUG-CC-PVTZ-RI
    Molecular point group: c1

    Geometry (in Angstrom), charge = 0, multiplicity = 1:

       Center              X                  Y                   Z               Mass
    ------------   -----------------  -----------------  -----------------  -----------------
         O           -2.501832830872    -0.616824844348    -0.152856014748    15.994914619570
         O            0.026206669128    -1.399010244348    -0.372106014748    15.994914619570
         N            0.904430769128     0.338112155652     0.720540385252    14.003074004430
         C           -1.549698830872     0.305525155652     0.333272985252    12.000000000000
         C            2.247675169128    -0.097354844348     0.604215985252    12.000000000000
         C           -0.158345830872    -0.314915844348     0.198869985252    12.000000000000
         C           -1.655140830872     1.608575155652    -0.449934014748    12.000000000000
         C            2.856531169128     0.256008155652    -0.745498014748    12.000000000000
         H           -1.741541830872     0.496157155652     1.400466985252     1.007825032230
         H            2.824344169128     0.335898155652     1.426045985252     1.007825032230
         H            2.230683169128    -1.180899844348     0.739094985252     1.007825032230
         H            0.700371169128     1.280780155652     1.143570985252     1.007825032230
         H           -1.400639830872     1.424250155652    -1.496493014748     1.007825032230
         H           -0.996027830872     2.387878155652    -0.054157014748     1.007825032230
         H           -2.684562830872     1.969401155652    -0.402194014748     1.007825032230
         H            2.275431169128    -0.210627844348    -1.543166014748     1.007825032230
         H            2.862449169128     1.338121155652    -0.899030014748     1.007825032230
         H            3.886706169128    -0.106980844348    -0.807790014748     1.007825032230
         H           -1.963743830872    -1.369333844348    -0.482888014748     1.007825032230

  Basis Set: AUG-CC-PVTZ
    Blend: AUG-CC-PVTZ
  Basis Set: (AUG-CC-PVTZ AUX)
    Blend: AUG-CC-PVTZ-JKFIT
	 Reference Energy          =    -400.0827308115919436 [Eh]
	 Singles Energy            =      -0.0000000000000000 [Eh]
	 Same-Spin Energy          =      -0.4026659822782722 [Eh]
	 Opposite-Spin Energy      =      -1.3084675639225969 [Eh]
	 Correlation Energy        =      -1.7111335462008692 [Eh]
	 Total Energy              =    -401.7938643577928133 [Eh]

	 ================> DF-SCS-MP2 Energies <==================
	-----------------------------------------------------------
	 SCS Same-Spin Scale       =       0.3333333333333333 [-]
	 SCS Opposite-Spin Scale   =       1.2000000000000000 [-]
	 SCS Same-Spin Energy      =      -0.1342219940927574 [Eh]
	 SCS Opposite-Spin Energy  =      -1.5701610767071161 [Eh]
	 SCS Correlation Energy    =      -1.7043830707998735 [Eh]
	 SCS Total Energy          =    -401.7871138823917931 [Eh]
	-----------------------------------------------------------

  Dipole Moment: [D]
     X:     2.6391      Y:     3.1962      Z:     1.5668     Total:     4.4312

*** Psi4 exiting successfully. Buy a developer a beer!
