                               Psi4 1.3.2 release

  ==> Input File <==

--------------------------------------------------------------------------
#psi4
#
memory 32 gb

molecule  {
0 1
  O       -2.5222554    -0.6226193    -0.0858771
  O       -0.0069960    -1.4050930    -0.3804930
  N        0.8845720     0.3685180     0.7343320
  C       -1.5404070     0.3017530     0.3325960
  C        2.2569670    -0.1011270     0.6035390
  C       -0.1490540    -0.3186880     0.1981930
  C       -1.6458490     1.6048030    -0.4506110
  C        2.8658230     0.2522360    -0.7461750
  H       -1.7766393     0.4557410     1.3967996
  H        2.8336360     0.3321260     1.4253690
  H        2.2399750    -1.1846720     0.7384180
  H        0.7096630     1.2770080     1.1428940
  H       -1.3913480     1.4204780    -1.4971700
  H       -0.9867360     2.3841060    -0.0548340
  H       -2.6752710     1.9656290    -0.4028710
  H        2.2847230    -0.2144000    -1.5438430
  H        2.8717410     1.3343490    -0.8997070
  H        3.8959980    -0.1107530    -0.8084670
  H       -1.9544520    -1.3731060    -0.4835650
units angstrom
no_reorient  #important for SAPT in psi4, default
symmetry c1  #important for SAPT in psi4, default
}

set PROPERTIES_ORIGIN ["COM"]
properties('MP2/aug-cc-pvtz', properties = ['dipole'])
--------------------------------------------------------------------------

    Molecular point group: c1
  Charge       = 0
  Multiplicity = 1
  Basis Set: AUG-CC-PVTZ
    Blend: AUG-CC-PVTZ
  Basis Set: (AUG-CC-PVTZ AUX)
    Blend: AUG-CC-PVTZ-JKFIT

    Orbital Energies [Eh]
    ---------------------

    Doubly Occupied:

       1A    -20.550478     2A    -20.535052     3A    -15.599625
       4A    -11.360370     5A    -11.296544     6A    -11.274518
       7A    -11.231778     8A    -11.223760     9A     -1.397472
      10A     -1.341662    11A     -1.246508    12A     -1.051492
      13A     -1.012178    14A     -0.902774    15A     -0.848362
      16A     -0.794499    17A     -0.743422    18A     -0.673514
      19A     -0.643716    20A     -0.640540    21A     -0.613330
      22A     -0.598676    23A     -0.576834    24A     -0.564007
      25A     -0.542790    26A     -0.532659    27A     -0.522496
      28A     -0.513504    29A     -0.502887    30A     -0.443143
      31A     -0.437200    32A     -0.404335

  @DF-RHF Final Energy:  -400.08254283674790

   => Energetics <=

    Nuclear Repulsion Energy =            399.9801004606616175
    One-Electron Energy =               -1338.8850344927145670
    Two-Electron Energy =                 538.8223911953051584
    Total Energy =                       -400.0825428367478480
  Basis Set: (AUG-CC-PVTZ AUX)
    Blend: AUG-CC-PVTZ-RI
    Molecular point group: c1

    Geometry (in Angstrom), charge = 0, multiplicity = 1:

       Center              X                  Y                   Z               Mass
    ------------   -----------------  -----------------  -----------------  -----------------
         O           -2.517813682234    -0.622027578289    -0.095094466772    15.994914619570
         O           -0.002554282234    -1.404501278289    -0.389710366772    15.994914619570
         N            0.889013717766     0.369109721711     0.725114633228    14.003074004430
         C           -1.535965282234     0.302344721711     0.323378633228    12.000000000000
         C            2.261408717766    -0.100535278289     0.594321633228    12.000000000000
         C           -0.144612282234    -0.318096278289     0.188975633228    12.000000000000
         C           -1.641407282234     1.605394721711    -0.459828366772    12.000000000000
         C            2.870264717766     0.252827721711    -0.755392366772    12.000000000000
         H           -1.772197582234     0.456332721711     1.387582233228     1.007825032230
         H            2.838077717766     0.332717721711     1.416151633228     1.007825032230
         H            2.244416717766    -1.184080278289     0.729200633228     1.007825032230
         H            0.714104717766     1.277599721711     1.133676633228     1.007825032230
         H           -1.386906282234     1.421069721711    -1.506387366772     1.007825032230
         H           -0.982294282234     2.384697721711    -0.064051366772     1.007825032230
         H           -2.670829282234     1.966220721711    -0.412088366772     1.007825032230
         H            2.289164717766    -0.213808278289    -1.553060366772     1.007825032230
         H            2.876182717766     1.334940721711    -0.908924366772     1.007825032230
         H            3.900439717766    -0.110161278289    -0.817684366772     1.007825032230
         H           -1.950010282234    -1.372514278289    -0.492782366772     1.007825032230

  Basis Set: AUG-CC-PVTZ
    Blend: AUG-CC-PVTZ
  Basis Set: (AUG-CC-PVTZ AUX)
    Blend: AUG-CC-PVTZ-JKFIT
	 Reference Energy          =    -400.0825428367479049 [Eh]
	 Singles Energy            =      -0.0000000000000000 [Eh]
	 Same-Spin Energy          =      -0.4027574062129434 [Eh]
	 Opposite-Spin Energy      =      -1.3092010674349446 [Eh]
	 Correlation Energy        =      -1.7119584736478881 [Eh]
	 Total Energy              =    -401.7945013103957876 [Eh]

	 ================> DF-SCS-MP2 Energies <==================
	-----------------------------------------------------------
	 SCS Same-Spin Scale       =       0.3333333333333333 [-]
	 SCS Opposite-Spin Scale   =       1.2000000000000000 [-]
	 SCS Same-Spin Energy      =      -0.1342524687376478 [Eh]
	 SCS Opposite-Spin Energy  =      -1.5710412809219334 [Eh]
	 SCS Correlation Energy    =      -1.7052937496595812 [Eh]
	 SCS Total Energy          =    -401.7878365864074794 [Eh]
	-----------------------------------------------------------

  Dipole Moment: [D]
     X:     2.9872      Y:     3.1697      Z:     1.4353     Total:     4.5859

*** Psi4 exiting successfully. Buy a developer a beer!
