                               Psi4 1.3.2 release

  ==> Input File <==

--------------------------------------------------------------------------
#psi4
#
memory 32 gb

molecule  {
0 1
  O       -2.4925410    -0.6205970    -0.1535330
  O       -0.0069960    -1.4050930    -0.3804930
  N        0.8845720     0.3685180     0.7343320
  C       -1.5773041     0.3319525     0.3450659
  C        2.2569670    -0.1011270     0.6035390
  C       -0.1490540    -0.3186880     0.1981930
  C       -1.6458490     1.6048030    -0.4506110
  C        2.8658230     0.2522360    -0.7461750
  H       -1.7322500     0.4923850     1.3997900
  H        2.8336360     0.3321260     1.4253690
  H        2.2399750    -1.1846720     0.7384180
  H        0.7096630     1.2770080     1.1428940
  H       -1.3913480     1.4204780    -1.4971700
  H       -0.9867360     2.3841060    -0.0548340
  H       -2.6752710     1.9656290    -0.4028710
  H        2.2847230    -0.2144000    -1.5438430
  H        2.8717410     1.3343490    -0.8997070
  H        3.8959980    -0.1107530    -0.8084670
  H       -1.9834139    -1.3890677    -0.4926099
units angstrom
no_reorient  #important for SAPT in psi4, default
symmetry c1  #important for SAPT in psi4, default
}

set PROPERTIES_ORIGIN ["COM"]
properties('MP2/aug-cc-pvtz', properties = ['dipole'])
--------------------------------------------------------------------------

    Molecular point group: c1
  Charge       = 0
  Multiplicity = 1
  Basis Set: AUG-CC-PVTZ
    Blend: AUG-CC-PVTZ
  Basis Set: (AUG-CC-PVTZ AUX)
    Blend: AUG-CC-PVTZ-JKFIT

    Orbital Energies [Eh]
    ---------------------

    Doubly Occupied:

       1A    -20.546896     2A    -20.531883     3A    -15.597629
       4A    -11.357828     5A    -11.298955     6A    -11.273009
       7A    -11.230122     8A    -11.222646     9A     -1.394095
      10A     -1.344643    11A     -1.243943    12A     -1.052174
      13A     -1.014898    14A     -0.897979    15A     -0.848144
      16A     -0.793535    17A     -0.740828    18A     -0.677634
      19A     -0.650245    20A     -0.640089    21A     -0.611769
      22A     -0.596625    23A     -0.583035    24A     -0.563438
      25A     -0.541161    26A     -0.535557    27A     -0.520583
      28A     -0.508281    29A     -0.500782    30A     -0.450495
      31A     -0.427456    32A     -0.402518

  @DF-RHF Final Energy:  -400.08555777415512

   => Energetics <=

    Nuclear Repulsion Energy =            399.9481011753564417
    One-Electron Energy =               -1338.8695679200779978
    Two-Electron Energy =                 538.8359089705663791
    Total Energy =                       -400.0855577741551770
  Basis Set: (AUG-CC-PVTZ AUX)
    Blend: AUG-CC-PVTZ-RI
    Molecular point group: c1

    Geometry (in Angstrom), charge = 0, multiplicity = 1:

       Center              X                  Y                   Z               Mass
    ------------   -----------------  -----------------  -----------------  -----------------
         O           -2.488509793254    -0.623554887796    -0.154733441515    15.994914619570
         O           -0.002964793254    -1.408050887796    -0.381693441515    15.994914619570
         N            0.888603206746     0.365560112204     0.733131558485    14.003074004430
         C           -1.573272893254     0.328994612204     0.343865458485    12.000000000000
         C            2.260998206746    -0.104084887796     0.602338558485    12.000000000000
         C           -0.145022793254    -0.321645887796     0.196992558485    12.000000000000
         C           -1.641817793254     1.601845112204    -0.451811441515    12.000000000000
         C            2.869854206746     0.249278112204    -0.747375441515    12.000000000000
         H           -1.728218793254     0.489427112204     1.398589558485     1.007825032230
         H            2.837667206746     0.329168112204     1.424168558485     1.007825032230
         H            2.244006206746    -1.187629887796     0.737217558485     1.007825032230
         H            0.713694206746     1.274050112204     1.141693558485     1.007825032230
         H           -1.387316793254     1.417520112204    -1.498370441515     1.007825032230
         H           -0.982704793254     2.381148112204    -0.056034441515     1.007825032230
         H           -2.671239793254     1.962671112204    -0.404071441515     1.007825032230
         H            2.288754206746    -0.217357887796    -1.545043441515     1.007825032230
         H            2.875772206746     1.331391112204    -0.900907441515     1.007825032230
         H            3.900029206746    -0.113710887796    -0.809667441515     1.007825032230
         H           -1.979382693254    -1.392025587796    -0.493810341515     1.007825032230

  Basis Set: AUG-CC-PVTZ
    Blend: AUG-CC-PVTZ
  Basis Set: (AUG-CC-PVTZ AUX)
    Blend: AUG-CC-PVTZ-JKFIT
	 Reference Energy          =    -400.0855577741551201 [Eh]
	 Singles Energy            =      -0.0000000000000000 [Eh]
	 Same-Spin Energy          =      -0.4019775558621895 [Eh]
	 Opposite-Spin Energy      =      -1.3074742813786018 [Eh]
	 Correlation Energy        =      -1.7094518372407914 [Eh]
	 Total Energy              =    -401.7950096113959262 [Eh]

	 ================> DF-SCS-MP2 Energies <==================
	-----------------------------------------------------------
	 SCS Same-Spin Scale       =       0.3333333333333333 [-]
	 SCS Opposite-Spin Scale   =       1.2000000000000000 [-]
	 SCS Same-Spin Energy      =      -0.1339925186207298 [Eh]
	 SCS Opposite-Spin Energy  =      -1.5689691376543220 [Eh]
	 SCS Correlation Energy    =      -1.7029616562750518 [Eh]
	 SCS Total Energy          =    -401.7885194304301990 [Eh]
	-----------------------------------------------------------

  Dipole Moment: [D]
     X:     2.8512      Y:     3.1487      Z:     1.5542     Total:     4.5232

*** Psi4 exiting successfully. Buy a developer a beer!
