                               Psi4 1.4a3.dev225

  ==> Input File <==

--------------------------------------------------------------------------
#psi4
#
memory 32 gb

molecule  {
0 1
  O       -2.5334200    -0.7491890    -0.0380440
  O       -0.0309920    -1.3916750    -0.5246560
  N        0.8474210     0.2516040     0.7908210
  C       -1.5793960     0.2040340     0.3844480
  C        2.2299320    -0.1523350     0.5631470
  C       -0.1821000    -0.3862620     0.1848690
  C       -1.7305020     1.4971750    -0.4144490
  C        2.7876300     0.3918150    -0.7462470
  H       -1.7371730     0.4054880     1.4537200
  H        2.8183710     0.1913570     1.4185970
  H        2.2480760    -1.2444890     0.5585260
  H        0.6688383     1.0586356     1.2829285
  H       -1.5202540     1.2971370    -1.4686150
  H       -1.0543700     2.2823790    -0.0604110
  H       -2.7592110     1.8535180    -0.3272230
  H        2.1936920     0.0168210    -1.5822170
  H        2.7616940     1.4848860    -0.7566670
  H        3.8242090     0.0700520    -0.8849050
  H       -2.0046360    -1.4186050    -0.5240660
units angstrom
no_reorient  #important for SAPT in psi4, default
symmetry c1  #important for SAPT in psi4, default
}

set PROPERTIES_ORIGIN ["COM"]
properties('MP2/aug-cc-pvtz', properties = ['dipole'])
--------------------------------------------------------------------------

    Molecular point group: c1
  Charge       = 0
  Multiplicity = 1
  Basis Set: AUG-CC-PVTZ
    Blend: AUG-CC-PVTZ
  Basis Set: (AUG-CC-PVTZ AUX)
    Blend: AUG-CC-PVTZ-JKFIT

    Orbital Energies [Eh]
    ---------------------

    Doubly Occupied:

       1A    -20.549743     2A    -20.533269     3A    -15.594361
       4A    -11.359384     5A    -11.298838     6A    -11.274422
       7A    -11.230874     8A    -11.224086     9A     -1.397682
      10A     -1.347117    11A     -1.250993    12A     -1.052101
      13A     -1.013990    14A     -0.902946    15A     -0.849702
      16A     -0.805228    17A     -0.746058    18A     -0.675378
      19A     -0.646947    20A     -0.638035    21A     -0.615029
      22A     -0.599770    23A     -0.581681    24A     -0.564839
      25A     -0.542127    26A     -0.533069    27A     -0.521966
      28A     -0.513643    29A     -0.503252    30A     -0.447575
      31A     -0.434204    32A     -0.404636

  @DF-RHF Final Energy:  -400.08729059886696

   => Energetics <=

    Nuclear Repulsion Energy =            400.6933074670356518
    One-Electron Energy =               -1340.2553073679953286
    Two-Electron Energy =                 539.4747093020927196
    Total Energy =                       -400.0872905988669572
  Basis Set: (AUG-CC-PVTZ AUX)
    Blend: AUG-CC-PVTZ-RI
    Molecular point group: c1

    Geometry (in Angstrom), charge = 0, multiplicity = 1:

       Center              X                  Y                   Z               Mass
    ------------   -----------------  -----------------  -----------------  -----------------
         O           -2.487617708433    -0.697749571601    -0.045197317874    15.994914619570
         O            0.014810291567    -1.340235571601    -0.531809317874    15.994914619570
         N            0.893223291567     0.303043428399     0.783667682126    14.003074004430
         C           -1.533593708433     0.255473428399     0.377294682126    12.000000000000
         C            2.275734291567    -0.100895571601     0.555993682126    12.000000000000
         C           -0.136297708433    -0.334822571601     0.177715682126    12.000000000000
         C           -1.684699708433     1.548614428399    -0.421602317874    12.000000000000
         C            2.833432291567     0.443254428399    -0.753400317874    12.000000000000
         H           -1.691370708433     0.456927428399     1.446566682126     1.007825032230
         H            2.864173291567     0.242796428399     1.411443682126     1.007825032230
         H            2.293878291567    -1.193049571601     0.551372682126     1.007825032230
         H            0.714640591567     1.110075028399     1.275775182126     1.007825032230
         H           -1.474451708433     1.348576428399    -1.475768317874     1.007825032230
         H           -1.008567708433     2.333818428399    -0.067564317874     1.007825032230
         H           -2.713408708433     1.904957428399    -0.334376317874     1.007825032230
         H            2.239494291567     0.068260428399    -1.589370317874     1.007825032230
         H            2.807496291567     1.536325428399    -0.763820317874     1.007825032230
         H            3.870011291567     0.121491428399    -0.892058317874     1.007825032230
         H           -1.958833708433    -1.367165571601    -0.531219317874     1.007825032230

  Basis Set: AUG-CC-PVTZ
    Blend: AUG-CC-PVTZ
  Basis Set: (AUG-CC-PVTZ AUX)
    Blend: AUG-CC-PVTZ-JKFIT
	 Reference Energy          =    -400.0872905988669572 [Eh]
	 Singles Energy            =      -0.0000000000000000 [Eh]
	 Same-Spin Energy          =      -0.4016415849740961 [Eh]
	 Opposite-Spin Energy      =      -1.3069359560024243 [Eh]
	 Correlation Energy        =      -1.7085775409765205 [Eh]
	 Total Energy              =    -401.7958681398434919 [Eh]

	 ================> DF-SCS-MP2 Energies <==================
	-----------------------------------------------------------
	 SCS Same-Spin Scale       =       0.3333333333333333 [-]
	 SCS Opposite-Spin Scale   =       1.2000000000000000 [-]
	 SCS Same-Spin Energy      =      -0.1338805283246987 [Eh]
	 SCS Opposite-Spin Energy  =      -1.5683231472029091 [Eh]
	 SCS Correlation Energy    =      -1.7022036755276078 [Eh]
	 SCS Total Energy          =    -401.7894942743945421 [Eh]
	-----------------------------------------------------------

  Dipole Moment: [D]
     X:     2.8621      Y:     3.0974      Z:     1.5854     Total:     4.5054

*** Psi4 exiting successfully. Buy a developer a beer!
