                               Psi4 1.3.2 release

  ==> Input File <==

--------------------------------------------------------------------------
#psi4
#
memory 32 gb

molecule  {
0 1
  O       -2.5073918    -0.5867617    -0.1861449
  O       -0.0069960    -1.4050930    -0.3804930
  N        0.8845720     0.3685180     0.7343320
  C       -1.5404070     0.3017530     0.3325960
  C        2.2569670    -0.1011270     0.6035390
  C       -0.1490540    -0.3186880     0.1981930
  C       -1.6851567     1.5833020    -0.4792847
  C        2.8658230     0.2522360    -0.7461750
  H       -1.7322500     0.4923850     1.3997900
  H        2.8336360     0.3321260     1.4253690
  H        2.2399750    -1.1846720     0.7384180
  H        0.7096630     1.2770080     1.1428940
  H       -1.3913480     1.4204780    -1.4971700
  H       -0.9867360     2.3841060    -0.0548340
  H       -2.6752710     1.9656290    -0.4028710
  H        2.2847230    -0.2144000    -1.5438430
  H        2.8717410     1.3343490    -0.8997070
  H        3.8959980    -0.1107530    -0.8084670
  H       -1.9544520    -1.3731060    -0.4835650
units angstrom
no_reorient  #important for SAPT in psi4, default
symmetry c1  #important for SAPT in psi4, default
}

set PROPERTIES_ORIGIN ["COM"]
properties('MP2/aug-cc-pvtz', properties = ['dipole'])
--------------------------------------------------------------------------

    Molecular point group: c1
  Charge       = 0
  Multiplicity = 1
  Basis Set: AUG-CC-PVTZ
    Blend: AUG-CC-PVTZ
  Basis Set: (AUG-CC-PVTZ AUX)
    Blend: AUG-CC-PVTZ-JKFIT

    Orbital Energies [Eh]
    ---------------------

    Doubly Occupied:

       1A    -20.549550     2A    -20.534914     3A    -15.599544
       4A    -11.360529     5A    -11.297520     6A    -11.274466
       7A    -11.230180     8A    -11.223568     9A     -1.398196
      10A     -1.344275    11A     -1.246445    12A     -1.051064
      13A     -1.011799    14A     -0.903788    15A     -0.848701
      16A     -0.794627    17A     -0.742201    18A     -0.676319
      19A     -0.647486    20A     -0.642668    21A     -0.613277
      22A     -0.597355    23A     -0.574008    24A     -0.568746
      25A     -0.541548    26A     -0.527842    27A     -0.522350
      28A     -0.514425    29A     -0.502462    30A     -0.443374
      31A     -0.438252    32A     -0.404246

  @DF-RHF Final Energy:  -400.08196787874675

   => Energetics <=

    Nuclear Repulsion Energy =            400.3839323360280105
    One-Electron Energy =               -1339.6803479415120819
    Two-Electron Energy =                 539.2144477267372622
    Total Energy =                       -400.0819678787468092
  Basis Set: (AUG-CC-PVTZ AUX)
    Blend: AUG-CC-PVTZ-RI
    Molecular point group: c1

    Geometry (in Angstrom), charge = 0, multiplicity = 1:

       Center              X                  Y                   Z               Mass
    ------------   -----------------  -----------------  -----------------  -----------------
         O           -2.501333961718    -0.589180407618    -0.178750868865    15.994914619570
         O           -0.000938161718    -1.407511707618    -0.373098968865    15.994914619570
         N            0.890629838282     0.366099292382     0.741726031135    14.003074004430
         C           -1.534349161718     0.299334292382     0.339990031135    12.000000000000
         C            2.263024838282    -0.103545707618     0.610933031135    12.000000000000
         C           -0.142996161718    -0.321106707618     0.205587031135    12.000000000000
         C           -1.679098861718     1.580883292382    -0.471890668865    12.000000000000
         C            2.871880838282     0.249817292382    -0.738780968865    12.000000000000
         H           -1.726192161718     0.489966292382     1.407184031135     1.007825032230
         H            2.839693838282     0.329707292382     1.432763031135     1.007825032230
         H            2.246032838282    -1.187090707618     0.745812031135     1.007825032230
         H            0.715720838282     1.274589292382     1.150288031135     1.007825032230
         H           -1.385290161718     1.418059292382    -1.489775968865     1.007825032230
         H           -0.980678161718     2.381687292382    -0.047439968865     1.007825032230
         H           -2.669213161718     1.963210292382    -0.395476968865     1.007825032230
         H            2.290780838282    -0.216818707618    -1.536448968865     1.007825032230
         H            2.877798838282     1.331930292382    -0.892312968865     1.007825032230
         H            3.902055838282    -0.113171707618    -0.801072968865     1.007825032230
         H           -1.948394161718    -1.375524707618    -0.476170968865     1.007825032230

  Basis Set: AUG-CC-PVTZ
    Blend: AUG-CC-PVTZ
  Basis Set: (AUG-CC-PVTZ AUX)
    Blend: AUG-CC-PVTZ-JKFIT
	 Reference Energy          =    -400.0819678787467524 [Eh]
	 Singles Energy            =      -0.0000000000000000 [Eh]
	 Same-Spin Energy          =      -0.4025623466254606 [Eh]
	 Opposite-Spin Energy      =      -1.3087495744224507 [Eh]
	 Correlation Energy        =      -1.7113119210479113 [Eh]
	 Total Energy              =    -401.7932797997946750 [Eh]

	 ================> DF-SCS-MP2 Energies <==================
	-----------------------------------------------------------
	 SCS Same-Spin Scale       =       0.3333333333333333 [-]
	 SCS Opposite-Spin Scale   =       1.2000000000000000 [-]
	 SCS Same-Spin Energy      =      -0.1341874488751535 [Eh]
	 SCS Opposite-Spin Energy  =      -1.5704994893069408 [Eh]
	 SCS Correlation Energy    =      -1.7046869381820944 [Eh]
	 SCS Total Energy          =    -401.7866548169288308 [Eh]
	-----------------------------------------------------------

  Dipole Moment: [D]
     X:     2.9344      Y:     3.0374      Z:     1.6165     Total:     4.5221

*** Psi4 exiting successfully. Buy a developer a beer!
