                               Psi4 1.3.2 release

  ==> Input File <==

--------------------------------------------------------------------------
#psi4
#
memory 32 gb

molecule  {
0 1
  O       -2.4925410    -0.6205970    -0.1535330
  O       -0.0069960    -1.4050930    -0.3804930
  N        0.8845720     0.3685180     0.7343320
  C       -1.5404070     0.3017530     0.3325960
  C        2.2569670    -0.1011270     0.6035390
  C       -0.1523973    -0.3198805     0.1717384
  C       -1.6458490     1.6048030    -0.4506110
  C        2.8658230     0.2522360    -0.7461750
  H       -1.7495249     0.4994658     1.3952468
  H        2.8336360     0.3321260     1.4253690
  H        2.2399750    -1.1846720     0.7384180
  H        0.7096630     1.2770080     1.1428940
  H       -1.3913480     1.4204780    -1.4971700
  H       -0.9867360     2.3841060    -0.0548340
  H       -2.6752710     1.9656290    -0.4028710
  H        2.2847230    -0.2144000    -1.5438430
  H        2.8717410     1.3343490    -0.8997070
  H        3.8959980    -0.1107530    -0.8084670
  H       -1.9544520    -1.3731060    -0.4835650
units angstrom
no_reorient  #important for SAPT in psi4, default
symmetry c1  #important for SAPT in psi4, default
}

set PROPERTIES_ORIGIN ["COM"]
properties('MP2/aug-cc-pvtz', properties = ['dipole'])
--------------------------------------------------------------------------

    Molecular point group: c1
  Charge       = 0
  Multiplicity = 1
  Basis Set: AUG-CC-PVTZ
    Blend: AUG-CC-PVTZ
  Basis Set: (AUG-CC-PVTZ AUX)
    Blend: AUG-CC-PVTZ-JKFIT

    Orbital Energies [Eh]
    ---------------------

    Doubly Occupied:

       1A    -20.548769     2A    -20.537080     3A    -15.596026
       4A    -11.359746     5A    -11.298005     6A    -11.272593
       7A    -11.230734     8A    -11.222590     9A     -1.405160
      10A     -1.348790    11A     -1.242259    12A     -1.051825
      13A     -1.011543    14A     -0.901280    15A     -0.847653
      16A     -0.791248    17A     -0.746798    18A     -0.676889
      19A     -0.646953    20A     -0.644108    21A     -0.613146
      22A     -0.598101    23A     -0.577476    24A     -0.563289
      25A     -0.542475    26A     -0.533887    27A     -0.523303
      28A     -0.517009    29A     -0.501995    30A     -0.445749
      31A     -0.437571    32A     -0.402636

  @DF-RHF Final Energy:  -400.08788147001087

   => Energetics <=

    Nuclear Repulsion Energy =            400.6905918115684813
    One-Electron Energy =               -1340.2835726790540321
    Two-Electron Energy =                 539.5050993974746234
    Total Energy =                       -400.0878814700108705
  Basis Set: (AUG-CC-PVTZ AUX)
    Blend: AUG-CC-PVTZ-RI
    Molecular point group: c1

    Geometry (in Angstrom), charge = 0, multiplicity = 1:

       Center              X                  Y                   Z               Mass
    ------------   -----------------  -----------------  -----------------  -----------------
         O           -2.492049489757    -0.620535719061    -0.150782629169    15.994914619570
         O           -0.006504489757    -1.405031719061    -0.377742629169    15.994914619570
         N            0.885063510243     0.368579280939     0.737082370831    14.003074004430
         C           -1.539915489757     0.301814280939     0.335346370831    12.000000000000
         C            2.257458510243    -0.101065719061     0.606289370831    12.000000000000
         C           -0.151905789757    -0.319819219061     0.174488770831    12.000000000000
         C           -1.645357489757     1.604864280939    -0.447860629169    12.000000000000
         C            2.866314510243     0.252297280939    -0.743424629169    12.000000000000
         H           -1.749033389757     0.499527080939     1.397997170831     1.007825032230
         H            2.834127510243     0.332187280939     1.428119370831     1.007825032230
         H            2.240466510243    -1.184610719061     0.741168370831     1.007825032230
         H            0.710154510243     1.277069280939     1.145644370831     1.007825032230
         H           -1.390856489757     1.420539280939    -1.494419629169     1.007825032230
         H           -0.986244489757     2.384167280939    -0.052083629169     1.007825032230
         H           -2.674779489757     1.965690280939    -0.400120629169     1.007825032230
         H            2.285214510243    -0.214338719061    -1.541092629169     1.007825032230
         H            2.872232510243     1.334410280939    -0.896956629169     1.007825032230
         H            3.896489510243    -0.110691719061    -0.805716629169     1.007825032230
         H           -1.953960489757    -1.373044719061    -0.480814629169     1.007825032230

  Basis Set: AUG-CC-PVTZ
    Blend: AUG-CC-PVTZ
  Basis Set: (AUG-CC-PVTZ AUX)
    Blend: AUG-CC-PVTZ-JKFIT
	 Reference Energy          =    -400.0878814700108705 [Eh]
	 Singles Energy            =      -0.0000000000000000 [Eh]
	 Same-Spin Energy          =      -0.4019253945416650 [Eh]
	 Opposite-Spin Energy      =      -1.3073711936323391 [Eh]
	 Correlation Energy        =      -1.7092965881740041 [Eh]
	 Total Energy              =    -401.7971780581848975 [Eh]

	 ================> DF-SCS-MP2 Energies <==================
	-----------------------------------------------------------
	 SCS Same-Spin Scale       =       0.3333333333333333 [-]
	 SCS Opposite-Spin Scale   =       1.2000000000000000 [-]
	 SCS Same-Spin Energy      =      -0.1339751315138883 [Eh]
	 SCS Opposite-Spin Energy  =      -1.5688454323588068 [Eh]
	 SCS Correlation Energy    =      -1.7028205638726952 [Eh]
	 SCS Total Energy          =    -401.7907020338835764 [Eh]
	-----------------------------------------------------------

  Dipole Moment: [D]
     X:     2.8283      Y:     3.0729      Z:     1.5029     Total:     4.4385

*** Psi4 exiting successfully. Buy a developer a beer!
