                               Psi4 1.3.2 release

  ==> Input File <==

--------------------------------------------------------------------------
#psi4
#
memory 32 gb

molecule  {
0 1
  O       -2.4925410    -0.6205970    -0.1535330
  O       -0.0069960    -1.4050930    -0.3804930
  N        0.8831278     0.3385824     0.8044439
  C       -1.5404070     0.3017530     0.3325960
  C        2.2569670    -0.1011270     0.6035390
  C       -0.1490540    -0.3186880     0.1981930
  C       -1.6458490     1.6048030    -0.4506110
  C        2.9330525     0.2163206    -0.7228977
  H       -1.7322500     0.4923850     1.3997900
  H        2.8336360     0.3321260     1.4253690
  H        2.2399750    -1.1846720     0.7384180
  H        0.7096630     1.2770080     1.1428940
  H       -1.3913480     1.4204780    -1.4971700
  H       -0.9867360     2.3841060    -0.0548340
  H       -2.6752710     1.9656290    -0.4028710
  H        2.2847230    -0.2144000    -1.5438430
  H        2.8717410     1.3343490    -0.8997070
  H        3.8959980    -0.1107530    -0.8084670
  H       -1.9544520    -1.3731060    -0.4835650
units angstrom
no_reorient  #important for SAPT in psi4, default
symmetry c1  #important for SAPT in psi4, default
}

set PROPERTIES_ORIGIN ["COM"]
properties('MP2/aug-cc-pvtz', properties = ['dipole'])
--------------------------------------------------------------------------

    Molecular point group: c1
  Charge       = 0
  Multiplicity = 1
  Basis Set: AUG-CC-PVTZ
    Blend: AUG-CC-PVTZ
  Basis Set: (AUG-CC-PVTZ AUX)
    Blend: AUG-CC-PVTZ-JKFIT

    Orbital Energies [Eh]
    ---------------------

    Doubly Occupied:

       1A    -20.549743     2A    -20.537323     3A    -15.600711
       4A    -11.361999     5A    -11.299432     6A    -11.272961
       7A    -11.232314     8A    -11.225603     9A     -1.399725
      10A     -1.347799    11A     -1.243755    12A     -1.052495
      13A     -1.014277    14A     -0.905087    15A     -0.848972
      16A     -0.791127    17A     -0.745421    18A     -0.676353
      19A     -0.646670    20A     -0.641719    21A     -0.616927
      22A     -0.593750    23A     -0.583990    24A     -0.566633
      25A     -0.552024    26A     -0.536127    27A     -0.519730
      28A     -0.512841    29A     -0.488056    30A     -0.446751
      31A     -0.438603    32A     -0.405703

  @DF-RHF Final Energy:  -400.07838591230330

   => Energetics <=

    Nuclear Repulsion Energy =            399.5176837174960838
    One-Electron Energy =               -1337.8828985694551648
    Two-Electron Energy =                 538.2868289396558339
    Total Energy =                       -400.0783859123032471
  Basis Set: (AUG-CC-PVTZ AUX)
    Blend: AUG-CC-PVTZ-RI
    Molecular point group: c1

    Geometry (in Angstrom), charge = 0, multiplicity = 1:

       Center              X                  Y                   Z               Mass
    ------------   -----------------  -----------------  -----------------  -----------------
         O           -2.499258815011    -0.613335439047    -0.164304643914    15.994914619570
         O           -0.013713815011    -1.397831439047    -0.391264643914    15.994914619570
         N            0.876409984989     0.345843960953     0.793672256086    14.003074004430
         C           -1.547124815011     0.309014560953     0.321824356086    12.000000000000
         C            2.250249184989    -0.093865439047     0.592767356086    12.000000000000
         C           -0.155771815011    -0.311426439047     0.187421356086    12.000000000000
         C           -1.652566815011     1.612064560953    -0.461382643914    12.000000000000
         C            2.926334684989     0.223582160953    -0.733669343914    12.000000000000
         H           -1.738967815011     0.499646560953     1.389018356086     1.007825032230
         H            2.826918184989     0.339387560953     1.414597356086     1.007825032230
         H            2.233257184989    -1.177410439047     0.727646356086     1.007825032230
         H            0.702945184989     1.284269560953     1.132122356086     1.007825032230
         H           -1.398065815011     1.427739560953    -1.507941643914     1.007825032230
         H           -0.993453815011     2.391367560953    -0.065605643914     1.007825032230
         H           -2.681988815011     1.972890560953    -0.413642643914     1.007825032230
         H            2.278005184989    -0.207138439047    -1.554614643914     1.007825032230
         H            2.865023184989     1.341610560953    -0.910478643914     1.007825032230
         H            3.889280184989    -0.103491439047    -0.819238643914     1.007825032230
         H           -1.961169815011    -1.365844439047    -0.494336643914     1.007825032230

  Basis Set: AUG-CC-PVTZ
    Blend: AUG-CC-PVTZ
  Basis Set: (AUG-CC-PVTZ AUX)
    Blend: AUG-CC-PVTZ-JKFIT
	 Reference Energy          =    -400.0783859123033039 [Eh]
	 Singles Energy            =      -0.0000000000000000 [Eh]
	 Same-Spin Energy          =      -0.4021647030596053 [Eh]
	 Opposite-Spin Energy      =      -1.3082240799935789 [Eh]
	 Correlation Energy        =      -1.7103887830531843 [Eh]
	 Total Energy              =    -401.7887746953564942 [Eh]

	 ================> DF-SCS-MP2 Energies <==================
	-----------------------------------------------------------
	 SCS Same-Spin Scale       =       0.3333333333333333 [-]
	 SCS Opposite-Spin Scale   =       1.2000000000000000 [-]
	 SCS Same-Spin Energy      =      -0.1340549010198684 [Eh]
	 SCS Opposite-Spin Energy  =      -1.5698688959922946 [Eh]
	 SCS Correlation Energy    =      -1.7039237970121630 [Eh]
	 SCS Total Energy          =    -401.7823097093154843 [Eh]
	-----------------------------------------------------------

  Dipole Moment: [D]
     X:     2.8127      Y:     3.1178      Z:     1.3776     Total:     4.4193

*** Psi4 exiting successfully. Buy a developer a beer!
