                               Psi4 1.3.2 release

  ==> Input File <==

--------------------------------------------------------------------------
#psi4
#
memory 32 gb

molecule  {
0 1
  O       -2.4925410    -0.6205970    -0.1535330
  O       -0.0069960    -1.4050930    -0.3804930
  N        0.8845720     0.3685180     0.7343320
  C       -1.5368038     0.2954240     0.3214683
  C        2.2569670    -0.1011270     0.6035390
  C       -0.1490540    -0.3186880     0.1981930
  C       -1.6458490     1.6048030    -0.4506110
  C        2.8658230     0.2522360    -0.7461750
  H       -1.7322500     0.4923850     1.3997900
  H        2.8336360     0.3321260     1.4253690
  H        2.2399750    -1.1846720     0.7384180
  H        0.7096630     1.2770080     1.1428940
  H       -1.3898769     1.4112759    -1.4951481
  H       -0.9867360     2.3841060    -0.0548340
  H       -2.6752710     1.9656290    -0.4028710
  H        2.2847230    -0.2144000    -1.5438430
  H        2.8717410     1.3343490    -0.8997070
  H        3.8959980    -0.1107530    -0.8084670
  H       -1.9544520    -1.3731060    -0.4835650
units angstrom
no_reorient  #important for SAPT in psi4, default
symmetry c1  #important for SAPT in psi4, default
}

set PROPERTIES_ORIGIN ["COM"]
properties('MP2/aug-cc-pvtz', properties = ['dipole'])
--------------------------------------------------------------------------

    Molecular point group: c1
  Charge       = 0
  Multiplicity = 1
  Basis Set: AUG-CC-PVTZ
    Blend: AUG-CC-PVTZ
  Basis Set: (AUG-CC-PVTZ AUX)
    Blend: AUG-CC-PVTZ-JKFIT

    Orbital Energies [Eh]
    ---------------------

    Doubly Occupied:

       1A    -20.549461     2A    -20.533320     3A    -15.598884
       4A    -11.358883     5A    -11.298378     6A    -11.274110
       7A    -11.231060     8A    -11.223319     9A     -1.399346
      10A     -1.348725    11A     -1.245863    12A     -1.052956
      13A     -1.012745    14A     -0.903222    15A     -0.848892
      16A     -0.793878    17A     -0.745884    18A     -0.676732
      19A     -0.647573    20A     -0.641875    21A     -0.613608
      22A     -0.597867    23A     -0.577090    24A     -0.563688
      25A     -0.543825    26A     -0.533723    27A     -0.521544
      28A     -0.515368    29A     -0.502302    30A     -0.444218
      31A     -0.436788    32A     -0.403480

  @DF-RHF Final Energy:  -400.08757180448163

   => Energetics <=

    Nuclear Repulsion Energy =            400.8101319431198135
    One-Electron Energy =               -1340.5181902038489170
    Two-Electron Energy =                 539.6204864562474768
    Total Energy =                       -400.0875718044816267
  Basis Set: (AUG-CC-PVTZ AUX)
    Blend: AUG-CC-PVTZ-RI
    Molecular point group: c1

    Geometry (in Angstrom), charge = 0, multiplicity = 1:

       Center              X                  Y                   Z               Mass
    ------------   -----------------  -----------------  -----------------  -----------------
         O           -2.492922837725    -0.619869089448    -0.152410071383    15.994914619570
         O           -0.007377837725    -1.404365089448    -0.379370071383    15.994914619570
         N            0.884190162275     0.369245910552     0.735454928617    14.003074004430
         C           -1.537185637725     0.296151910552     0.322591228617    12.000000000000
         C            2.256585162275    -0.100399089448     0.604661928617    12.000000000000
         C           -0.149435837725    -0.317960089448     0.199315928617    12.000000000000
         C           -1.646230837725     1.605530910552    -0.449488071383    12.000000000000
         C            2.865441162275     0.252963910552    -0.745052071383    12.000000000000
         H           -1.732631837725     0.493112910552     1.400912928617     1.007825032230
         H            2.833254162275     0.332853910552     1.426491928617     1.007825032230
         H            2.239593162275    -1.183944089448     0.739540928617     1.007825032230
         H            0.709281162275     1.277735910552     1.144016928617     1.007825032230
         H           -1.390258737725     1.412003810552    -1.494025171383     1.007825032230
         H           -0.987117837725     2.384833910552    -0.053711071383     1.007825032230
         H           -2.675652837725     1.966356910552    -0.401748071383     1.007825032230
         H            2.284341162275    -0.213672089448    -1.542720071383     1.007825032230
         H            2.871359162275     1.335076910552    -0.898584071383     1.007825032230
         H            3.895616162275    -0.110025089448    -0.807344071383     1.007825032230
         H           -1.954833837725    -1.372378089448    -0.482442071383     1.007825032230

  Basis Set: AUG-CC-PVTZ
    Blend: AUG-CC-PVTZ
  Basis Set: (AUG-CC-PVTZ AUX)
    Blend: AUG-CC-PVTZ-JKFIT
	 Reference Energy          =    -400.0875718044816267 [Eh]
	 Singles Energy            =      -0.0000000000000000 [Eh]
	 Same-Spin Energy          =      -0.4021706157219440 [Eh]
	 Opposite-Spin Energy      =      -1.3076820710349395 [Eh]
	 Correlation Energy        =      -1.7098526867568835 [Eh]
	 Total Energy              =    -401.7974244912385302 [Eh]

	 ================> DF-SCS-MP2 Energies <==================
	-----------------------------------------------------------
	 SCS Same-Spin Scale       =       0.3333333333333333 [-]
	 SCS Opposite-Spin Scale   =       1.2000000000000000 [-]
	 SCS Same-Spin Energy      =      -0.1340568719073147 [Eh]
	 SCS Opposite-Spin Energy  =      -1.5692184852419273 [Eh]
	 SCS Correlation Energy    =      -1.7032753571492421 [Eh]
	 SCS Total Energy          =    -401.7908471616308930 [Eh]
	-----------------------------------------------------------

  Dipole Moment: [D]
     X:     2.8912      Y:     3.1342      Z:     1.5436     Total:     4.5349

*** Psi4 exiting successfully. Buy a developer a beer!
