                               Psi4 1.3.2 release

  ==> Input File <==

--------------------------------------------------------------------------
#psi4
#
memory 32 gb

molecule  {
0 1
  O       -2.4925410    -0.6205970    -0.1535330
  O       -0.0069960    -1.4050930    -0.3804930
  N        0.8845720     0.3685180     0.7343320
  C       -1.5404070     0.3017530     0.3325960
  C        2.2299422    -0.1651971     0.5722568
  C       -0.1490540    -0.3186880     0.1981930
  C       -1.6458490     1.6048030    -0.4506110
  C        2.8658230     0.2522360    -0.7461750
  H       -1.7322500     0.4923850     1.3997900
  H        2.8336360     0.3321260     1.4253690
  H        2.2399750    -1.1846720     0.7384180
  H        0.6578562     1.2686814     1.1357992
  H       -1.3913480     1.4204780    -1.4971700
  H       -0.9867360     2.3841060    -0.0548340
  H       -2.6752710     1.9656290    -0.4028710
  H        2.2847230    -0.2144000    -1.5438430
  H        2.8717410     1.3343490    -0.8997070
  H        3.8959980    -0.1107530    -0.8084670
  H       -1.9544520    -1.3731060    -0.4835650
units angstrom
no_reorient  #important for SAPT in psi4, default
symmetry c1  #important for SAPT in psi4, default
}

set PROPERTIES_ORIGIN ["COM"]
properties('MP2/aug-cc-pvtz', properties = ['dipole'])
--------------------------------------------------------------------------

    Molecular point group: c1
  Charge       = 0
  Multiplicity = 1
  Basis Set: AUG-CC-PVTZ
    Blend: AUG-CC-PVTZ
  Basis Set: (AUG-CC-PVTZ AUX)
    Blend: AUG-CC-PVTZ-JKFIT

    Orbital Energies [Eh]
    ---------------------

    Doubly Occupied:

       1A    -20.548687     2A    -20.533082     3A    -15.599129
       4A    -11.357053     5A    -11.298220     6A    -11.276344
       7A    -11.231743     8A    -11.223779     9A     -1.398791
      10A     -1.346926    11A     -1.246485    12A     -1.053459
      13A     -1.013586    14A     -0.901807    15A     -0.850565
      16A     -0.793718    17A     -0.743834    18A     -0.681351
      19A     -0.650046    20A     -0.640438    21A     -0.610525
      22A     -0.600059    23A     -0.577347    24A     -0.564563
      25A     -0.544096    26A     -0.536737    27A     -0.519729
      28A     -0.516534    29A     -0.497346    30A     -0.445971
      31A     -0.435466    32A     -0.403595

  @DF-RHF Final Energy:  -400.08012348246166

   => Energetics <=

    Nuclear Repulsion Energy =            401.0895592477783111
    One-Electron Energy =               -1341.0573408777665918
    Two-Electron Energy =                 539.8876581475266221
    Total Energy =                       -400.0801234824616586
  Basis Set: (AUG-CC-PVTZ AUX)
    Blend: AUG-CC-PVTZ-RI
    Molecular point group: c1

    Geometry (in Angstrom), charge = 0, multiplicity = 1:

       Center              X                  Y                   Z               Mass
    ------------   -----------------  -----------------  -----------------  -----------------
         O           -2.489325003115    -0.613958456664    -0.150265860343    15.994914619570
         O           -0.003780003115    -1.398454456664    -0.377225860343    15.994914619570
         N            0.887787996885     0.375156543336     0.737599139657    14.003074004430
         C           -1.537191003115     0.308391543336     0.335863139657    12.000000000000
         C            2.233158196885    -0.158558556664     0.575523939657    12.000000000000
         C           -0.145838003115    -0.312049456664     0.201460139657    12.000000000000
         C           -1.642633003115     1.611441543336    -0.447343860343    12.000000000000
         C            2.869038996885     0.258874543336    -0.742907860343    12.000000000000
         H           -1.729034003115     0.499023543336     1.403057139657     1.007825032230
         H            2.836851996885     0.338764543336     1.428636139657     1.007825032230
         H            2.243190996885    -1.178033456664     0.741685139657     1.007825032230
         H            0.661072196885     1.275319943336     1.139066339657     1.007825032230
         H           -1.388132003115     1.427116543336    -1.493902860343     1.007825032230
         H           -0.983520003115     2.390744543336    -0.051566860343     1.007825032230
         H           -2.672055003115     1.972267543336    -0.399603860343     1.007825032230
         H            2.287938996885    -0.207761456664    -1.540575860343     1.007825032230
         H            2.874956996885     1.340987543336    -0.896439860343     1.007825032230
         H            3.899213996885    -0.104114456664    -0.805199860343     1.007825032230
         H           -1.951236003115    -1.366467456664    -0.480297860343     1.007825032230

  Basis Set: AUG-CC-PVTZ
    Blend: AUG-CC-PVTZ
  Basis Set: (AUG-CC-PVTZ AUX)
    Blend: AUG-CC-PVTZ-JKFIT
	 Reference Energy          =    -400.0801234824616586 [Eh]
	 Singles Energy            =      -0.0000000000000000 [Eh]
	 Same-Spin Energy          =      -0.4022451779226663 [Eh]
	 Opposite-Spin Energy      =      -1.3080344826733756 [Eh]
	 Correlation Energy        =      -1.7102796605960420 [Eh]
	 Total Energy              =    -401.7904031430576879 [Eh]

	 ================> DF-SCS-MP2 Energies <==================
	-----------------------------------------------------------
	 SCS Same-Spin Scale       =       0.3333333333333333 [-]
	 SCS Opposite-Spin Scale   =       1.2000000000000000 [-]
	 SCS Same-Spin Energy      =      -0.1340817259742221 [Eh]
	 SCS Opposite-Spin Energy  =      -1.5696413792080508 [Eh]
	 SCS Correlation Energy    =      -1.7037231051822730 [Eh]
	 SCS Total Energy          =    -401.7838465876439500 [Eh]
	-----------------------------------------------------------

  Dipole Moment: [D]
     X:     2.8433      Y:     3.1049      Z:     1.5137     Total:     4.4739

*** Psi4 exiting successfully. Buy a developer a beer!
