                               Psi4 1.3.2 release

  ==> Input File <==

--------------------------------------------------------------------------
#psi4
#
memory 32 gb

molecule  {
0 1
  O       -2.4925410    -0.6205970    -0.1535330
  O       -0.0069960    -1.4050930    -0.3804930
  N        0.8845720     0.3685180     0.7343320
  C       -1.5404070     0.3017530     0.3325960
  C        2.2569670    -0.1011270     0.6035390
  C       -0.1475412    -0.3180209     0.2114361
  C       -1.6458490     1.6048030    -0.4506110
  C        2.8658230     0.2522360    -0.7461750
  H       -1.7235903     0.4888227     1.4019398
  H        2.8336360     0.3321260     1.4253690
  H        2.2399750    -1.1846720     0.7384180
  H        0.7096630     1.2770080     1.1428940
  H       -1.3913480     1.4204780    -1.4971700
  H       -0.9867360     2.3841060    -0.0548340
  H       -2.6752710     1.9656290    -0.4028710
  H        2.2847230    -0.2144000    -1.5438430
  H        2.8717410     1.3343490    -0.8997070
  H        3.8959980    -0.1107530    -0.8084670
  H       -1.9544520    -1.3731060    -0.4835650
units angstrom
no_reorient  #important for SAPT in psi4, default
symmetry c1  #important for SAPT in psi4, default
}

set PROPERTIES_ORIGIN ["COM"]
properties('MP2/aug-cc-pvtz', properties = ['dipole'])
--------------------------------------------------------------------------

    Molecular point group: c1
  Charge       = 0
  Multiplicity = 1
  Basis Set: AUG-CC-PVTZ
    Blend: AUG-CC-PVTZ
  Basis Set: (AUG-CC-PVTZ AUX)
    Blend: AUG-CC-PVTZ-JKFIT

    Orbital Energies [Eh]
    ---------------------

    Doubly Occupied:

       1A    -20.548441     2A    -20.531564     3A    -15.600219
       4A    -11.358713     5A    -11.298319     6A    -11.274722
       7A    -11.231295     8A    -11.223624     9A     -1.395148
      10A     -1.345471    11A     -1.247343    12A     -1.053275
      13A     -1.013371    14A     -0.903527    15A     -0.849840
      16A     -0.795521    17A     -0.743889    18A     -0.676702
      19A     -0.648623    20A     -0.640016    21A     -0.613473
      22A     -0.597493    23A     -0.576824    24A     -0.563604
      25A     -0.543321    26A     -0.534163    27A     -0.520385
      28A     -0.513222    29A     -0.502198    30A     -0.445719
      31A     -0.435231    32A     -0.403882

  @DF-RHF Final Energy:  -400.08723967429148

   => Energetics <=

    Nuclear Repulsion Energy =            400.5897215369232640
    One-Electron Energy =               -1340.0956484070443366
    Two-Electron Energy =                 539.4186871958296479
    Total Energy =                       -400.0872396742914816
  Basis Set: (AUG-CC-PVTZ AUX)
    Blend: AUG-CC-PVTZ-RI
    Molecular point group: c1

    Geometry (in Angstrom), charge = 0, multiplicity = 1:

       Center              X                  Y                   Z               Mass
    ------------   -----------------  -----------------  -----------------  -----------------
         O           -2.492770462387    -0.620634701966    -0.154909055439    15.994914619570
         O           -0.007225462387    -1.405130701966    -0.381869055439    15.994914619570
         N            0.884342537613     0.368480298034     0.732955944561    14.003074004430
         C           -1.540636462387     0.301715298034     0.331219944561    12.000000000000
         C            2.256737537613    -0.101164701966     0.602162944561    12.000000000000
         C           -0.147770662387    -0.318058601966     0.210060044561    12.000000000000
         C           -1.646078462387     1.604765298034    -0.451987055439    12.000000000000
         C            2.865593537613     0.252198298034    -0.747551055439    12.000000000000
         H           -1.723819762387     0.488784998034     1.400563744561     1.007825032230
         H            2.833406537613     0.332088298034     1.423992944561     1.007825032230
         H            2.239745537613    -1.184709701966     0.737041944561     1.007825032230
         H            0.709433537613     1.276970298034     1.141517944561     1.007825032230
         H           -1.391577462387     1.420440298034    -1.498546055439     1.007825032230
         H           -0.986965462387     2.384068298034    -0.056210055439     1.007825032230
         H           -2.675500462387     1.965591298034    -0.404247055439     1.007825032230
         H            2.284493537613    -0.214437701966    -1.545219055439     1.007825032230
         H            2.871511537613     1.334311298034    -0.901083055439     1.007825032230
         H            3.895768537613    -0.110790701966    -0.809843055439     1.007825032230
         H           -1.954681462387    -1.373143701966    -0.484941055439     1.007825032230

  Basis Set: AUG-CC-PVTZ
    Blend: AUG-CC-PVTZ
  Basis Set: (AUG-CC-PVTZ AUX)
    Blend: AUG-CC-PVTZ-JKFIT
	 Reference Energy          =    -400.0872396742914816 [Eh]
	 Singles Energy            =      -0.0000000000000000 [Eh]
	 Same-Spin Energy          =      -0.4022309153398786 [Eh]
	 Opposite-Spin Energy      =      -1.3078877044148809 [Eh]
	 Correlation Energy        =      -1.7101186197547595 [Eh]
	 Total Energy              =    -401.7973582940462620 [Eh]

	 ================> DF-SCS-MP2 Energies <==================
	-----------------------------------------------------------
	 SCS Same-Spin Scale       =       0.3333333333333333 [-]
	 SCS Opposite-Spin Scale   =       1.2000000000000000 [-]
	 SCS Same-Spin Energy      =      -0.1340769717799595 [Eh]
	 SCS Opposite-Spin Energy  =      -1.5694652452978570 [Eh]
	 SCS Correlation Energy    =      -1.7035422170778165 [Eh]
	 SCS Total Energy          =    -401.7907818913693063 [Eh]
	-----------------------------------------------------------

  Dipole Moment: [D]
     X:     2.9391      Y:     3.1861      Z:     1.5879     Total:     4.6164

*** Psi4 exiting successfully. Buy a developer a beer!
