                               Psi4 1.4a3.dev225

  ==> Input File <==

--------------------------------------------------------------------------
#psi4
#
memory 32 gb

molecule  {
0 1
  O       -2.5334200    -0.7491890    -0.0380440
  O       -0.0309920    -1.3916750    -0.5246560
  N        0.8474210     0.2516040     0.7908210
  C       -1.5793960     0.2040340     0.3844480
  C        2.2299320    -0.1523350     0.5631470
  C       -0.1821000    -0.3862620     0.1848690
  C       -1.7305020     1.4971750    -0.4144490
  C        2.7876300     0.3918150    -0.7462470
  H       -1.7343029     0.4018234     1.4342692
  H        2.8183710     0.1913570     1.4185970
  H        2.2480760    -1.2444890     0.5585260
  H        0.6595560     1.1005830     1.3085070
  H       -1.5202540     1.2971370    -1.4686150
  H       -1.0543700     2.2823790    -0.0604110
  H       -2.7592110     1.8535180    -0.3272230
  H        2.1936920     0.0168210    -1.5822170
  H        2.7616940     1.4848860    -0.7566670
  H        3.8242090     0.0700520    -0.8849050
  H       -2.0046360    -1.4186050    -0.5240660
units angstrom
no_reorient  #important for SAPT in psi4, default
symmetry c1  #important for SAPT in psi4, default
}

set PROPERTIES_ORIGIN ["COM"]
properties('MP2/aug-cc-pvtz', properties = ['dipole'])
--------------------------------------------------------------------------

    Molecular point group: c1
  Charge       = 0
  Multiplicity = 1
  Basis Set: AUG-CC-PVTZ
    Blend: AUG-CC-PVTZ
  Basis Set: (AUG-CC-PVTZ AUX)
    Blend: AUG-CC-PVTZ-JKFIT

    Orbital Energies [Eh]
    ---------------------

    Doubly Occupied:

       1A    -20.549146     2A    -20.532885     3A    -15.599252
       4A    -11.358991     5A    -11.296107     6A    -11.274409
       7A    -11.230520     8A    -11.223933     9A     -1.397033
      10A     -1.346562    11A     -1.244854    12A     -1.052183
      13A     -1.012961    14A     -0.902631    15A     -0.849327
      16A     -0.794140    17A     -0.746246    18A     -0.675572
      19A     -0.645857    20A     -0.638213    21A     -0.614539
      22A     -0.597860    23A     -0.581333    24A     -0.564446
      25A     -0.541843    26A     -0.533487    27A     -0.521413
      28A     -0.513409    29A     -0.502851    30A     -0.447928
      31A     -0.433749    32A     -0.403797

  @DF-RHF Final Energy:  -400.08775447067171

   => Energetics <=

    Nuclear Repulsion Energy =            400.4973826759693338
    One-Electron Energy =               -1339.9153155176179553
    Two-Electron Energy =                 539.3301783709769097
    Total Energy =                       -400.0877544706717117
  Basis Set: (AUG-CC-PVTZ AUX)
    Blend: AUG-CC-PVTZ-RI
    Molecular point group: c1

    Geometry (in Angstrom), charge = 0, multiplicity = 1:

       Center              X                  Y                   Z               Mass
    ------------   -----------------  -----------------  -----------------  -----------------
         O           -2.487562511712    -0.698079112946    -0.045250065597    15.994914619570
         O            0.014865488288    -1.340565112946    -0.531862065597    15.994914619570
         N            0.893278488288     0.302713887054     0.783614934403    14.003074004430
         C           -1.533538511712     0.255143887054     0.377241934403    12.000000000000
         C            2.275789488288    -0.101225112946     0.555940934403    12.000000000000
         C           -0.136242511712    -0.335152112946     0.177662934403    12.000000000000
         C           -1.684644511712     1.548284887054    -0.421655065597    12.000000000000
         C            2.833487488288     0.442924887054    -0.753453065597    12.000000000000
         H           -1.688445411712     0.452933287054     1.427063134403     1.007825032230
         H            2.864228488288     0.242466887054     1.411390934403     1.007825032230
         H            2.293933488288    -1.193379112946     0.551319934403     1.007825032230
         H            0.705413488288     1.151692887054     1.301300934403     1.007825032230
         H           -1.474396511712     1.348246887054    -1.475821065597     1.007825032230
         H           -1.008512511712     2.333488887054    -0.067617065597     1.007825032230
         H           -2.713353511712     1.904627887054    -0.334429065597     1.007825032230
         H            2.239549488288     0.067930887054    -1.589423065597     1.007825032230
         H            2.807551488288     1.535995887054    -0.763873065597     1.007825032230
         H            3.870066488288     0.121161887054    -0.892111065597     1.007825032230
         H           -1.958778511712    -1.367495112946    -0.531272065597     1.007825032230

  Basis Set: AUG-CC-PVTZ
    Blend: AUG-CC-PVTZ
  Basis Set: (AUG-CC-PVTZ AUX)
    Blend: AUG-CC-PVTZ-JKFIT
	 Reference Energy          =    -400.0877544706717117 [Eh]
	 Singles Energy            =      -0.0000000000000000 [Eh]
	 Same-Spin Energy          =      -0.4019923954535086 [Eh]
	 Opposite-Spin Energy      =      -1.3076551436061641 [Eh]
	 Correlation Energy        =      -1.7096475390596728 [Eh]
	 Total Energy              =    -401.7974020097313996 [Eh]

	 ================> DF-SCS-MP2 Energies <==================
	-----------------------------------------------------------
	 SCS Same-Spin Scale       =       0.3333333333333333 [-]
	 SCS Opposite-Spin Scale   =       1.2000000000000000 [-]
	 SCS Same-Spin Energy      =      -0.1339974651511695 [Eh]
	 SCS Opposite-Spin Energy  =      -1.5691861723273968 [Eh]
	 SCS Correlation Energy    =      -1.7031836374785663 [Eh]
	 SCS Total Energy          =    -401.7909381081502715 [Eh]
	-----------------------------------------------------------

  Dipole Moment: [D]
     X:     2.8706      Y:     3.1350      Z:     1.6213     Total:     4.5495

*** Psi4 exiting successfully. Buy a developer a beer!
