                               Psi4 1.3.2 release

  ==> Input File <==

--------------------------------------------------------------------------
#psi4
#
memory 32 gb

molecule  {
0 1
  O       -2.4925410    -0.6205970    -0.1535330
  O       -0.0069960    -1.4050930    -0.3804930
  N        0.8845720     0.3685180     0.7343320
  C       -1.5404070     0.3017530     0.3325960
  C        2.2651427    -0.0794754     0.6140503
  C       -0.1490540    -0.3186880     0.1981930
  C       -1.6458490     1.6048030    -0.4506110
  C        2.8658230     0.2522360    -0.7461750
  H       -1.7322500     0.4923850     1.3997900
  H        2.8336360     0.3321260     1.4253690
  H        2.2399750    -1.1846720     0.7384180
  H        0.7270455     1.2792311     1.1450110
  H       -1.3913480     1.4204780    -1.4971700
  H       -0.9867360     2.3841060    -0.0548340
  H       -2.6752710     1.9656290    -0.4028710
  H        2.2847230    -0.2144000    -1.5438430
  H        2.8717410     1.3343490    -0.8997070
  H        3.8959980    -0.1107530    -0.8084670
  H       -1.9544520    -1.3731060    -0.4835650
units angstrom
no_reorient  #important for SAPT in psi4, default
symmetry c1  #important for SAPT in psi4, default
}

set PROPERTIES_ORIGIN ["COM"]
properties('MP2/aug-cc-pvtz', properties = ['dipole'])
--------------------------------------------------------------------------

    Molecular point group: c1
  Charge       = 0
  Multiplicity = 1
  Basis Set: AUG-CC-PVTZ
    Blend: AUG-CC-PVTZ
  Basis Set: (AUG-CC-PVTZ AUX)
    Blend: AUG-CC-PVTZ-JKFIT

    Orbital Energies [Eh]
    ---------------------

    Doubly Occupied:

       1A    -20.548547     2A    -20.533592     3A    -15.598885
       4A    -11.359785     5A    -11.298238     6A    -11.273657
       7A    -11.230933     8A    -11.223377     9A     -1.398281
      10A     -1.346591    11A     -1.245750    12A     -1.052625
      13A     -1.012529    14A     -0.903320    15A     -0.849354
      16A     -0.793937    17A     -0.745370    18A     -0.676103
      19A     -0.649363    20A     -0.641092    21A     -0.613494
      22A     -0.596351    23A     -0.577065    24A     -0.563247
      25A     -0.542769    26A     -0.533831    27A     -0.524147
      28A     -0.514429    29A     -0.499156    30A     -0.445639
      31A     -0.436450    32A     -0.403236

  @DF-RHF Final Energy:  -400.08686800935402

   => Energetics <=

    Nuclear Repulsion Energy =            400.4756468870489812
    One-Electron Energy =               -1339.8627415953751552
    Two-Electron Energy =                 539.3002266989722102
    Total Energy =                       -400.0868680093540206
  Basis Set: (AUG-CC-PVTZ AUX)
    Blend: AUG-CC-PVTZ-RI
    Molecular point group: c1

    Geometry (in Angstrom), charge = 0, multiplicity = 1:

       Center              X                  Y                   Z               Mass
    ------------   -----------------  -----------------  -----------------  -----------------
         O           -2.493528462305    -0.622835307694    -0.154628777484    15.994914619570
         O           -0.007983462305    -1.407331307694    -0.381588777484    15.994914619570
         N            0.883584537695     0.366279692306     0.733236222516    14.003074004430
         C           -1.541394462305     0.299514692306     0.331500222516    12.000000000000
         C            2.264155237695    -0.081713707694     0.612954522516    12.000000000000
         C           -0.150041462305    -0.320926307694     0.197097222516    12.000000000000
         C           -1.646836462305     1.602564692306    -0.451706777484    12.000000000000
         C            2.864835537695     0.249997692306    -0.747270777484    12.000000000000
         H           -1.733237462305     0.490146692306     1.398694222516     1.007825032230
         H            2.832648537695     0.329887692306     1.424273222516     1.007825032230
         H            2.238987537695    -1.186910307694     0.737322222516     1.007825032230
         H            0.726058037695     1.276992792306     1.143915222516     1.007825032230
         H           -1.392335462305     1.418239692306    -1.498265777484     1.007825032230
         H           -0.987723462305     2.381867692306    -0.055929777484     1.007825032230
         H           -2.676258462305     1.963390692306    -0.403966777484     1.007825032230
         H            2.283735537695    -0.216638307694    -1.544938777484     1.007825032230
         H            2.870753537695     1.332110692306    -0.900802777484     1.007825032230
         H            3.895010537695    -0.112991307694    -0.809562777484     1.007825032230
         H           -1.955439462305    -1.375344307694    -0.484660777484     1.007825032230

  Basis Set: AUG-CC-PVTZ
    Blend: AUG-CC-PVTZ
  Basis Set: (AUG-CC-PVTZ AUX)
    Blend: AUG-CC-PVTZ-JKFIT
	 Reference Energy          =    -400.0868680093540206 [Eh]
	 Singles Energy            =      -0.0000000000000000 [Eh]
	 Same-Spin Energy          =      -0.4021485499184920 [Eh]
	 Opposite-Spin Energy      =      -1.3077739724878008 [Eh]
	 Correlation Energy        =      -1.7099225224062928 [Eh]
	 Total Energy              =    -401.7967905317603368 [Eh]

	 ================> DF-SCS-MP2 Energies <==================
	-----------------------------------------------------------
	 SCS Same-Spin Scale       =       0.3333333333333333 [-]
	 SCS Opposite-Spin Scale   =       1.2000000000000000 [-]
	 SCS Same-Spin Energy      =      -0.1340495166394973 [Eh]
	 SCS Opposite-Spin Energy  =      -1.5693287669853608 [Eh]
	 SCS Correlation Energy    =      -1.7033782836248581 [Eh]
	 SCS Total Energy          =    -401.7902462929789067 [Eh]
	-----------------------------------------------------------

  Dipole Moment: [D]
     X:     2.9165      Y:     3.1637      Z:     1.5712     Total:     4.5808

*** Psi4 exiting successfully. Buy a developer a beer!
