                               Psi4 1.3.2 release

  ==> Input File <==

--------------------------------------------------------------------------
#psi4
#
memory 32 gb

molecule  {
0 1
  O       -2.4925410    -0.6205970    -0.1535330
  O        0.0142761    -1.4041030    -0.3767256
  N        0.8993070     0.3515311     0.7271783
  C       -1.5404070     0.3017530     0.3325960
  C        2.2569670    -0.1011270     0.6035390
  C       -0.1490540    -0.3186880     0.1981930
  C       -1.6458490     1.6048030    -0.4506110
  C        2.8658230     0.2522360    -0.7461750
  H       -1.7322500     0.4923850     1.3997900
  H        2.8336360     0.3321260     1.4253690
  H        2.2399750    -1.1846720     0.7384180
  H        0.7096630     1.2770080     1.1428940
  H       -1.3913480     1.4204780    -1.4971700
  H       -0.9867360     2.3841060    -0.0548340
  H       -2.6752710     1.9656290    -0.4028710
  H        2.2847230    -0.2144000    -1.5438430
  H        2.8717410     1.3343490    -0.8997070
  H        3.8959980    -0.1107530    -0.8084670
  H       -1.9544520    -1.3731060    -0.4835650
units angstrom
no_reorient  #important for SAPT in psi4, default
symmetry c1  #important for SAPT in psi4, default
}

set PROPERTIES_ORIGIN ["COM"]
properties('MP2/aug-cc-pvtz', properties = ['dipole'])
--------------------------------------------------------------------------

    Molecular point group: c1
  Charge       = 0
  Multiplicity = 1
  Basis Set: AUG-CC-PVTZ
    Blend: AUG-CC-PVTZ
  Basis Set: (AUG-CC-PVTZ AUX)
    Blend: AUG-CC-PVTZ-JKFIT

    Orbital Energies [Eh]
    ---------------------

    Doubly Occupied:

       1A    -20.550746     2A    -20.532042     3A    -15.598795
       4A    -11.358701     5A    -11.300660     6A    -11.271449
       7A    -11.232216     8A    -11.221865     9A     -1.398585
      10A     -1.348844    11A     -1.245239    12A     -1.053788
      13A     -1.012319    14A     -0.904163    15A     -0.850041
      16A     -0.787510    17A     -0.746259    18A     -0.678000
      19A     -0.650623    20A     -0.641325    21A     -0.613653
      22A     -0.594534    23A     -0.578360    24A     -0.564639
      25A     -0.543123    26A     -0.534543    27A     -0.520560
      28A     -0.516042    29A     -0.500523    30A     -0.447144
      31A     -0.436808    32A     -0.400723

  @DF-RHF Final Energy:  -400.08628680889916

   => Energetics <=

    Nuclear Repulsion Energy =            400.8144322689930732
    One-Electron Energy =               -1340.5337933514740598
    Two-Electron Energy =                 539.6330742735818831
    Total Energy =                       -400.0862868088991036
  Basis Set: (AUG-CC-PVTZ AUX)
    Blend: AUG-CC-PVTZ-RI
    Molecular point group: c1

    Geometry (in Angstrom), charge = 0, multiplicity = 1:

       Center              X                  Y                   Z               Mass
    ------------   -----------------  -----------------  -----------------  -----------------
         O           -2.497209343410    -0.618700547091    -0.153192279517    15.994914619570
         O            0.009607756590    -1.402206547091    -0.376384879517    15.994914619570
         N            0.894638656590     0.353427552909     0.727519020483    14.003074004430
         C           -1.545075343410     0.303649452909     0.332936720483    12.000000000000
         C            2.252298656590    -0.099230547091     0.603879720483    12.000000000000
         C           -0.153722343410    -0.316791547091     0.198533720483    12.000000000000
         C           -1.650517343410     1.606699452909    -0.450270279517    12.000000000000
         C            2.861154656590     0.254132452909    -0.745834279517    12.000000000000
         H           -1.736918343410     0.494281452909     1.400130720483     1.007825032230
         H            2.828967656590     0.334022452909     1.425709720483     1.007825032230
         H            2.235306656590    -1.182775547091     0.738758720483     1.007825032230
         H            0.704994656590     1.278904452909     1.143234720483     1.007825032230
         H           -1.396016343410     1.422374452909    -1.496829279517     1.007825032230
         H           -0.991404343410     2.386002452909    -0.054493279517     1.007825032230
         H           -2.679939343410     1.967525452909    -0.402530279517     1.007825032230
         H            2.280054656590    -0.212503547091    -1.543502279517     1.007825032230
         H            2.867072656590     1.336245452909    -0.899366279517     1.007825032230
         H            3.891329656590    -0.108856547091    -0.808126279517     1.007825032230
         H           -1.959120343410    -1.371209547091    -0.483224279517     1.007825032230

  Basis Set: AUG-CC-PVTZ
    Blend: AUG-CC-PVTZ
  Basis Set: (AUG-CC-PVTZ AUX)
    Blend: AUG-CC-PVTZ-JKFIT
	 Reference Energy          =    -400.0862868088991604 [Eh]
	 Singles Energy            =      -0.0000000000000000 [Eh]
	 Same-Spin Energy          =      -0.4023600775535888 [Eh]
	 Opposite-Spin Energy      =      -1.3080071541904710 [Eh]
	 Correlation Energy        =      -1.7103672317440597 [Eh]
	 Total Energy              =    -401.7966540406432046 [Eh]

	 ================> DF-SCS-MP2 Energies <==================
	-----------------------------------------------------------
	 SCS Same-Spin Scale       =       0.3333333333333333 [-]
	 SCS Opposite-Spin Scale   =       1.2000000000000000 [-]
	 SCS Same-Spin Energy      =      -0.1341200258511963 [Eh]
	 SCS Opposite-Spin Energy  =      -1.5696085850285650 [Eh]
	 SCS Correlation Energy    =      -1.7037286108797614 [Eh]
	 SCS Total Energy          =    -401.7900154197789107 [Eh]
	-----------------------------------------------------------

  Dipole Moment: [D]
     X:     2.7705      Y:     3.1740      Z:     1.5644     Total:     4.4941

*** Psi4 exiting successfully. Buy a developer a beer!
