                               Psi4 1.3.2 release

  ==> Input File <==

--------------------------------------------------------------------------
#psi4
#
memory 32 gb

molecule  {
0 1
  O       -2.5027399    -0.6215524    -0.1311200
  O       -0.0069960    -1.4050930    -0.3804930
  N        0.8845720     0.3685180     0.7343320
  C       -1.5404070     0.3017530     0.3325960
  C        2.2569670    -0.1011270     0.6035390
  C       -0.1490540    -0.3186880     0.1981930
  C       -1.6458490     1.6048030    -0.4506110
  C        2.8658230     0.2522360    -0.7461750
  H       -1.7471109     0.4802235     1.3991180
  H        2.8336360     0.3321260     1.4253690
  H        2.2399750    -1.1846720     0.7384180
  H        0.7096630     1.2770080     1.1428940
  H       -1.3913480     1.4204780    -1.4971700
  H       -0.9867360     2.3841060    -0.0548340
  H       -2.6752710     1.9656290    -0.4028710
  H        2.2847230    -0.2144000    -1.5438430
  H        2.8717410     1.3343490    -0.8997070
  H        3.8959980    -0.1107530    -0.8084670
  H       -1.9544520    -1.3731060    -0.4835650
units angstrom
no_reorient  #important for SAPT in psi4, default
symmetry c1  #important for SAPT in psi4, default
}

set PROPERTIES_ORIGIN ["COM"]
properties('MP2/aug-cc-pvtz', properties = ['dipole'])
--------------------------------------------------------------------------

    Molecular point group: c1
  Charge       = 0
  Multiplicity = 1
  Basis Set: AUG-CC-PVTZ
    Blend: AUG-CC-PVTZ
  Basis Set: (AUG-CC-PVTZ AUX)
    Blend: AUG-CC-PVTZ-JKFIT

    Orbital Energies [Eh]
    ---------------------

    Doubly Occupied:

       1A    -20.549141     2A    -20.533948     3A    -15.599099
       4A    -11.359491     5A    -11.297638     6A    -11.274188
       7A    -11.231330     8A    -11.223444     9A     -1.397973
      10A     -1.344974    11A     -1.246045    12A     -1.052323
      13A     -1.012584    14A     -0.902775    15A     -0.848870
      16A     -0.794235    17A     -0.744334    18A     -0.675413
      19A     -0.646052    20A     -0.641790    21A     -0.613349
      22A     -0.598047    23A     -0.577052    24A     -0.563691
      25A     -0.542914    26A     -0.533675    27A     -0.521721
      28A     -0.514365    29A     -0.502408    30A     -0.444803
      31A     -0.436605    32A     -0.403829

  @DF-RHF Final Energy:  -400.08671977059504

   => Energetics <=

    Nuclear Repulsion Energy =            400.4064559972688357
    One-Electron Energy =               -1339.7301396043619661
    Two-Electron Energy =                 539.2369638364980347
    Total Energy =                       -400.0867197705950957
  Basis Set: (AUG-CC-PVTZ AUX)
    Blend: AUG-CC-PVTZ-RI
    Molecular point group: c1

    Geometry (in Angstrom), charge = 0, multiplicity = 1:

       Center              X                  Y                   Z               Mass
    ------------   -----------------  -----------------  -----------------  -----------------
         O           -2.501218503380    -0.621317181662    -0.134176399281    15.994914619570
         O           -0.005474603380    -1.404857781662    -0.383549399281    15.994914619570
         N            0.886093396620     0.368753218338     0.731275600719    14.003074004430
         C           -1.538885603380     0.301988218338     0.329539600719    12.000000000000
         C            2.258488396620    -0.100891781662     0.600482600719    12.000000000000
         C           -0.147532603380    -0.318452781662     0.195136600719    12.000000000000
         C           -1.644327603380     1.605038218338    -0.453667399281    12.000000000000
         C            2.867344396620     0.252471218338    -0.749231399281    12.000000000000
         H           -1.745589503380     0.480458718338     1.396061600719     1.007825032230
         H            2.835157396620     0.332361218338     1.422312600719     1.007825032230
         H            2.241496396620    -1.184436781662     0.735361600719     1.007825032230
         H            0.711184396620     1.277243218338     1.139837600719     1.007825032230
         H           -1.389826603380     1.420713218338    -1.500226399281     1.007825032230
         H           -0.985214603380     2.384341218338    -0.057890399281     1.007825032230
         H           -2.673749603380     1.965864218338    -0.405927399281     1.007825032230
         H            2.286244396620    -0.214164781662    -1.546899399281     1.007825032230
         H            2.873262396620     1.334584218338    -0.902763399281     1.007825032230
         H            3.897519396620    -0.110517781662    -0.811523399281     1.007825032230
         H           -1.952930603380    -1.372870781662    -0.486621399281     1.007825032230

  Basis Set: AUG-CC-PVTZ
    Blend: AUG-CC-PVTZ
  Basis Set: (AUG-CC-PVTZ AUX)
    Blend: AUG-CC-PVTZ-JKFIT
	 Reference Energy          =    -400.0867197705950389 [Eh]
	 Singles Energy            =      -0.0000000000000000 [Eh]
	 Same-Spin Energy          =      -0.4023038516195120 [Eh]
	 Opposite-Spin Energy      =      -1.3081383175548336 [Eh]
	 Correlation Energy        =      -1.7104421691743457 [Eh]
	 Total Energy              =    -401.7971619397694099 [Eh]

	 ================> DF-SCS-MP2 Energies <==================
	-----------------------------------------------------------
	 SCS Same-Spin Scale       =       0.3333333333333333 [-]
	 SCS Opposite-Spin Scale   =       1.2000000000000000 [-]
	 SCS Same-Spin Energy      =      -0.1341012838731707 [Eh]
	 SCS Opposite-Spin Energy  =      -1.5697659810658002 [Eh]
	 SCS Correlation Energy    =      -1.7038672649389710 [Eh]
	 SCS Total Energy          =    -401.7905870355340312 [Eh]
	-----------------------------------------------------------

  Dipole Moment: [D]
     X:     2.9322      Y:     3.1563      Z:     1.5187     Total:     4.5680

*** Psi4 exiting successfully. Buy a developer a beer!
