                               Psi4 1.3.2 release

  ==> Input File <==

--------------------------------------------------------------------------
#psi4
#
memory 32 gb

molecule  {
0 1
  O       -2.4925410    -0.6205970    -0.1535330
  O       -0.0069960    -1.4050930    -0.3804930
  N        0.8845720     0.3685180     0.7343320
  C       -1.5404070     0.3017530     0.3325960
  C        2.2569670    -0.1011270     0.6035390
  C       -0.1490540    -0.3186880     0.1981930
  C       -1.6458490     1.6048030    -0.4506110
  C        2.8658230     0.2522360    -0.7461750
  H       -1.7322500     0.4923850     1.3997900
  H        2.8336360     0.3321260     1.4253690
  H        2.2399750    -1.1846720     0.7384180
  H        0.7096630     1.2770080     1.1428940
  H       -1.3913480     1.4204780    -1.4971700
  H       -0.9867360     2.3841060    -0.0548340
  H       -2.6752710     1.9656290    -0.4028710
  H        2.2847230    -0.2144000    -1.5438430
  H        2.8717410     1.3343490    -0.8997070
  H        3.8959980    -0.1107530    -0.8084670
  H       -2.0640193    -1.2198778    -0.4163629
units angstrom
no_reorient  #important for SAPT in psi4, default
symmetry c1  #important for SAPT in psi4, default
}

set PROPERTIES_ORIGIN ["COM"]
properties('MP2/aug-cc-pvtz', properties = ['dipole'])
--------------------------------------------------------------------------

    Molecular point group: c1
  Charge       = 0
  Multiplicity = 1
  Basis Set: AUG-CC-PVTZ
    Blend: AUG-CC-PVTZ
  Basis Set: (AUG-CC-PVTZ AUX)
    Blend: AUG-CC-PVTZ-JKFIT

    Orbital Energies [Eh]
    ---------------------

    Doubly Occupied:

       1A    -20.535727     2A    -20.529811     3A    -15.597906
       4A    -11.358507     5A    -11.301937     6A    -11.273419
       7A    -11.233235     8A    -11.222646     9A     -1.429083
      10A     -1.375211    11A     -1.244550    12A     -1.061125
      13A     -1.017040    14A     -0.904488    15A     -0.856961
      16A     -0.796685    17A     -0.769417    18A     -0.683198
      19A     -0.656752    20A     -0.641255    21A     -0.614399
      22A     -0.597976    23A     -0.585313    24A     -0.567662
      25A     -0.547846    26A     -0.537382    27A     -0.526584
      28A     -0.520518    29A     -0.501757    30A     -0.455243
      31A     -0.432504    32A     -0.402119

  @DF-RHF Final Energy:  -400.04577689274430

   => Energetics <=

    Nuclear Repulsion Energy =            401.7920953866416767
    One-Electron Energy =               -1342.1192313433718937
    Two-Electron Energy =                 540.2813590639859740
    Total Energy =                       -400.0457768927442430
  Basis Set: (AUG-CC-PVTZ AUX)
    Blend: AUG-CC-PVTZ-RI
    Molecular point group: c1

    Geometry (in Angstrom), charge = 0, multiplicity = 1:

       Center              X                  Y                   Z               Mass
    ------------   -----------------  -----------------  -----------------  -----------------
         O           -2.491597700788    -0.621915992532    -0.154111680327    15.994914619570
         O           -0.006052700788    -1.406411992532    -0.381071680327    15.994914619570
         N            0.885515299212     0.367199007468     0.733753319673    14.003074004430
         C           -1.539463700788     0.300434007468     0.332017319673    12.000000000000
         C            2.257910299212    -0.102445992532     0.602960319673    12.000000000000
         C           -0.148110700788    -0.320006992532     0.197614319673    12.000000000000
         C           -1.644905700788     1.603484007468    -0.451189680327    12.000000000000
         C            2.866766299212     0.250917007468    -0.746753680327    12.000000000000
         H           -1.731306700788     0.491066007468     1.399211319673     1.007825032230
         H            2.834579299212     0.330807007468     1.424790319673     1.007825032230
         H            2.240918299212    -1.185990992532     0.737839319673     1.007825032230
         H            0.710606299212     1.275689007468     1.142315319673     1.007825032230
         H           -1.390404700788     1.419159007468    -1.497748680327     1.007825032230
         H           -0.985792700788     2.382787007468    -0.055412680327     1.007825032230
         H           -2.674327700788     1.964310007468    -0.403449680327     1.007825032230
         H            2.285666299212    -0.215718992532    -1.544421680327     1.007825032230
         H            2.872684299212     1.333030007468    -0.900285680327     1.007825032230
         H            3.896941299212    -0.112071992532    -0.809045680327     1.007825032230
         H           -2.063076000788    -1.221196792532    -0.416941580327     1.007825032230

  Basis Set: AUG-CC-PVTZ
    Blend: AUG-CC-PVTZ
  Basis Set: (AUG-CC-PVTZ AUX)
    Blend: AUG-CC-PVTZ-JKFIT
	 Reference Energy          =    -400.0457768927442999 [Eh]
	 Singles Energy            =      -0.0000000000000000 [Eh]
	 Same-Spin Energy          =      -0.3992208788062272 [Eh]
	 Opposite-Spin Energy      =      -1.3021720393191720 [Eh]
	 Correlation Energy        =      -1.7013929181253993 [Eh]
	 Total Energy              =    -401.7471698108697069 [Eh]

	 ================> DF-SCS-MP2 Energies <==================
	-----------------------------------------------------------
	 SCS Same-Spin Scale       =       0.3333333333333333 [-]
	 SCS Opposite-Spin Scale   =       1.2000000000000000 [-]
	 SCS Same-Spin Energy      =      -0.1330736262687424 [Eh]
	 SCS Opposite-Spin Energy  =      -1.5626064471830063 [Eh]
	 SCS Correlation Energy    =      -1.6956800734517488 [Eh]
	 SCS Total Energy          =    -401.7414569661960400 [Eh]
	-----------------------------------------------------------

  Dipole Moment: [D]
     X:     2.6901      Y:     3.3365      Z:     1.6269     Total:     4.5843

*** Psi4 exiting successfully. Buy a developer a beer!
