                               Psi4 1.3.2 release

  ==> Input File <==

--------------------------------------------------------------------------
#psi4
#
memory 32 gb

molecule  {
0 1
  O       -2.4925410    -0.6205970    -0.1535330
  O       -0.0069960    -1.4050930    -0.3804930
  N        0.8845720     0.3685180     0.7343320
  C       -1.5404070     0.3017530     0.3325960
  C        2.2569670    -0.1011270     0.6035390
  C       -0.1490540    -0.3186880     0.1981930
  C       -1.6458490     1.6048030    -0.4506110
  C        2.8658230     0.2522360    -0.7461750
  H       -1.7322500     0.4923850     1.3997900
  H        2.8336360     0.3321260     1.4253690
  H        2.2399750    -1.1846720     0.7384180
  H        0.7096630     1.2770080     1.1428940
  H       -1.3913480     1.4204780    -1.4971700
  H       -0.9867360     2.3841060    -0.0548340
  H       -2.6752710     1.9656290    -0.4028710
  H        2.2847230    -0.2144000    -1.5438430
  H        2.8717410     1.3343490    -0.8997070
  H        3.8959980    -0.1107530    -0.8084670
  H       -2.0092357    -1.2964919    -0.4499639
units angstrom
no_reorient  #important for SAPT in psi4, default
symmetry c1  #important for SAPT in psi4, default
}

set PROPERTIES_ORIGIN ["COM"]
properties('MP2/aug-cc-pvtz', properties = ['dipole'])
--------------------------------------------------------------------------

    Molecular point group: c1
  Charge       = 0
  Multiplicity = 1
  Basis Set: AUG-CC-PVTZ
    Blend: AUG-CC-PVTZ
  Basis Set: (AUG-CC-PVTZ AUX)
    Blend: AUG-CC-PVTZ-JKFIT

    Orbital Energies [Eh]
    ---------------------

    Doubly Occupied:

       1A    -20.543620     2A    -20.531325     3A    -15.598244
       4A    -11.358619     5A    -11.300101     6A    -11.273641
       7A    -11.232197     8A    -11.222901     9A     -1.405855
      10A     -1.364316    11A     -1.245057    12A     -1.056314
      13A     -1.014905    14A     -0.903468    15A     -0.852282
      16A     -0.794597    17A     -0.757201    18A     -0.679639
      19A     -0.653044    20A     -0.641208    21A     -0.613772
      22A     -0.597608    23A     -0.581456    24A     -0.565601
      25A     -0.545190    26A     -0.535609    27A     -0.522333
      28A     -0.520586    29A     -0.501913    30A     -0.450504
      31A     -0.434166    32A     -0.402739

  @DF-RHF Final Energy:  -400.08368434278577

   => Energetics <=

    Nuclear Repulsion Energy =            401.1476421952607438
    One-Electron Energy =               -1341.0626269991475965
    Two-Electron Energy =                 539.8313004611011365
    Total Energy =                       -400.0836843427857730
  Basis Set: (AUG-CC-PVTZ AUX)
    Blend: AUG-CC-PVTZ-RI
    Molecular point group: c1

    Geometry (in Angstrom), charge = 0, multiplicity = 1:

       Center              X                  Y                   Z               Mass
    ------------   -----------------  -----------------  -----------------  -----------------
         O           -2.492069282315    -0.621256492349    -0.153822440283    15.994914619570
         O           -0.006524282315    -1.405752492349    -0.380782440283    15.994914619570
         N            0.885043717685     0.367858507651     0.734042559717    14.003074004430
         C           -1.539935282315     0.301093507651     0.332306559717    12.000000000000
         C            2.257438717685    -0.101786492349     0.603249559717    12.000000000000
         C           -0.148582282315    -0.319347492349     0.197903559717    12.000000000000
         C           -1.645377282315     1.604143507651    -0.450900440283    12.000000000000
         C            2.866294717685     0.251576507651    -0.746464440283    12.000000000000
         H           -1.731778282315     0.491725507651     1.399500559717     1.007825032230
         H            2.834107717685     0.331466507651     1.425079559717     1.007825032230
         H            2.240446717685    -1.185331492349     0.738128559717     1.007825032230
         H            0.710134717685     1.276348507651     1.142604559717     1.007825032230
         H           -1.390876282315     1.419818507651    -1.497459440283     1.007825032230
         H           -0.986264282315     2.383446507651    -0.055123440283     1.007825032230
         H           -2.674799282315     1.964969507651    -0.403160440283     1.007825032230
         H            2.285194717685    -0.215059492349    -1.544132440283     1.007825032230
         H            2.872212717685     1.333689507651    -0.899996440283     1.007825032230
         H            3.896469717685    -0.111412492349    -0.808756440283     1.007825032230
         H           -2.008763982315    -1.297151392349    -0.450253340283     1.007825032230

  Basis Set: AUG-CC-PVTZ
    Blend: AUG-CC-PVTZ
  Basis Set: (AUG-CC-PVTZ AUX)
    Blend: AUG-CC-PVTZ-JKFIT
	 Reference Energy          =    -400.0836843427857730 [Eh]
	 Singles Energy            =      -0.0000000000000000 [Eh]
	 Same-Spin Energy          =      -0.4005993917329721 [Eh]
	 Opposite-Spin Energy      =      -1.3047455911005437 [Eh]
	 Correlation Energy        =      -1.7053449828335157 [Eh]
	 Total Energy              =    -401.7890293256193104 [Eh]

	 ================> DF-SCS-MP2 Energies <==================
	-----------------------------------------------------------
	 SCS Same-Spin Scale       =       0.3333333333333333 [-]
	 SCS Opposite-Spin Scale   =       1.2000000000000000 [-]
	 SCS Same-Spin Energy      =      -0.1335331305776574 [Eh]
	 SCS Opposite-Spin Energy  =      -1.5656947093206524 [Eh]
	 SCS Correlation Energy    =      -1.6992278398983096 [Eh]
	 SCS Total Energy          =    -401.7829121826840719 [Eh]
	-----------------------------------------------------------

  Dipole Moment: [D]
     X:     2.7796      Y:     3.2428      Z:     1.5929     Total:     4.5584

*** Psi4 exiting successfully. Buy a developer a beer!
