                               Psi4 1.3.2 release

  ==> Input File <==

--------------------------------------------------------------------------
#psi4
#
memory 32 gb

molecule  {
0 1
  O       -2.4886463    -0.6288818    -0.1452859
  O       -0.0069960    -1.4050930    -0.3804930
  N        0.8845720     0.3685180     0.7343320
  C       -1.5404070     0.3017530     0.3325960
  C        2.2569670    -0.1011270     0.6035390
  C       -0.1490540    -0.3186880     0.1981930
  C       -1.6360001     1.6099312    -0.4432921
  C        2.8658230     0.2522360    -0.7461750
  H       -1.7322500     0.4923850     1.3997900
  H        2.8336360     0.3321260     1.4253690
  H        2.2399750    -1.1846720     0.7384180
  H        0.7096630     1.2770080     1.1428940
  H       -1.3913480     1.4204780    -1.4971700
  H       -0.9867360     2.3841060    -0.0548340
  H       -2.6752710     1.9656290    -0.4028710
  H        2.2847230    -0.2144000    -1.5438430
  H        2.8717410     1.3343490    -0.8997070
  H        3.8959980    -0.1107530    -0.8084670
  H       -1.9544520    -1.3731060    -0.4835650
units angstrom
no_reorient  #important for SAPT in psi4, default
symmetry c1  #important for SAPT in psi4, default
}

set PROPERTIES_ORIGIN ["COM"]
properties('MP2/aug-cc-pvtz', properties = ['dipole'])
--------------------------------------------------------------------------

    Molecular point group: c1
  Charge       = 0
  Multiplicity = 1
  Basis Set: AUG-CC-PVTZ
    Blend: AUG-CC-PVTZ
  Basis Set: (AUG-CC-PVTZ AUX)
    Blend: AUG-CC-PVTZ-JKFIT

    Orbital Energies [Eh]
    ---------------------

    Doubly Occupied:

       1A    -20.548382     2A    -20.533031     3A    -15.598641
       4A    -11.358666     5A    -11.298437     6A    -11.273901
       7A    -11.231510     8A    -11.223204     9A     -1.398431
      10A     -1.347258    11A     -1.245648    12A     -1.053237
      13A     -1.013017    14A     -0.902604    15A     -0.849309
      16A     -0.793977    17A     -0.745560    18A     -0.676875
      19A     -0.648063    20A     -0.641412    21A     -0.613333
      22A     -0.597979    23A     -0.578331    24A     -0.562906
      25A     -0.543621    26A     -0.534308    27A     -0.520982
      28A     -0.514153    29A     -0.502038    30A     -0.446166
      31A     -0.435541    32A     -0.403383

  @DF-RHF Final Energy:  -400.08794377885749

   => Energetics <=

    Nuclear Repulsion Energy =            400.6937533281360402
    One-Electron Energy =               -1340.2955858060820447
    Two-Electron Energy =                 539.5138886990885112
    Total Energy =                       -400.0879437788574933
  Basis Set: (AUG-CC-PVTZ AUX)
    Blend: AUG-CC-PVTZ-RI
    Molecular point group: c1

    Geometry (in Angstrom), charge = 0, multiplicity = 1:

       Center              X                  Y                   Z               Mass
    ------------   -----------------  -----------------  -----------------  -----------------
         O           -2.490187706968    -0.628275566612    -0.147162938953    15.994914619570
         O           -0.008537406968    -1.404486766612    -0.382370038953    15.994914619570
         N            0.883030593032     0.369124233388     0.732454961047    14.003074004430
         C           -1.541948406968     0.302359233388     0.330718961047    12.000000000000
         C            2.255425593032    -0.100520766612     0.601661961047    12.000000000000
         C           -0.150595406968    -0.318081766612     0.196315961047    12.000000000000
         C           -1.637541506968     1.610537433388    -0.445169138953    12.000000000000
         C            2.864281593032     0.252842233388    -0.748052038953    12.000000000000
         H           -1.733791406968     0.492991233388     1.397912961047     1.007825032230
         H            2.832094593032     0.332732233388     1.423491961047     1.007825032230
         H            2.238433593032    -1.184065766612     0.736540961047     1.007825032230
         H            0.708121593032     1.277614233388     1.141016961047     1.007825032230
         H           -1.392889406968     1.421084233388    -1.499047038953     1.007825032230
         H           -0.988277406968     2.384712233388    -0.056711038953     1.007825032230
         H           -2.676812406968     1.966235233388    -0.404748038953     1.007825032230
         H            2.283181593032    -0.213793766612    -1.545720038953     1.007825032230
         H            2.870199593032     1.334955233388    -0.901584038953     1.007825032230
         H            3.894456593032    -0.110146766612    -0.810344038953     1.007825032230
         H           -1.955993406968    -1.372499766612    -0.485442038953     1.007825032230

  Basis Set: AUG-CC-PVTZ
    Blend: AUG-CC-PVTZ
  Basis Set: (AUG-CC-PVTZ AUX)
    Blend: AUG-CC-PVTZ-JKFIT
	 Reference Energy          =    -400.0879437788574933 [Eh]
	 Singles Energy            =      -0.0000000000000000 [Eh]
	 Same-Spin Energy          =      -0.4020388939670393 [Eh]
	 Opposite-Spin Energy      =      -1.3075010268784546 [Eh]
	 Correlation Energy        =      -1.7095399208454940 [Eh]
	 Total Energy              =    -401.7974836997029797 [Eh]

	 ================> DF-SCS-MP2 Energies <==================
	-----------------------------------------------------------
	 SCS Same-Spin Scale       =       0.3333333333333333 [-]
	 SCS Opposite-Spin Scale   =       1.2000000000000000 [-]
	 SCS Same-Spin Energy      =      -0.1340129646556797 [Eh]
	 SCS Opposite-Spin Energy  =      -1.5690012322541456 [Eh]
	 SCS Correlation Energy    =      -1.7030141969098254 [Eh]
	 SCS Total Energy          =    -401.7909579757672986 [Eh]
	-----------------------------------------------------------

  Dipole Moment: [D]
     X:     2.8928      Y:     3.1726      Z:     1.5454     Total:     4.5631

*** Psi4 exiting successfully. Buy a developer a beer!
