                               Psi4 1.3.2 release

  ==> Input File <==

--------------------------------------------------------------------------
#psi4
#
memory 32 gb

molecule  {
0 1
  O       -2.4976769    -0.6211098    -0.1423446
  O       -0.0069960    -1.4050930    -0.3804930
  N        0.8845720     0.3685180     0.7343320
  C       -1.5404070     0.3017530     0.3325960
  C        2.2569670    -0.1011270     0.6035390
  C       -0.1490540    -0.3186880     0.1981930
  C       -1.6458490     1.6048030    -0.4506110
  C        2.8658230     0.2522360    -0.7461750
  H       -1.7396880     0.4863113     1.3994946
  H        2.8336360     0.3321260     1.4253690
  H        2.2399750    -1.1846720     0.7384180
  H        0.7096630     1.2770080     1.1428940
  H       -1.3913480     1.4204780    -1.4971700
  H       -0.9867360     2.3841060    -0.0548340
  H       -2.6752710     1.9656290    -0.4028710
  H        2.2847230    -0.2144000    -1.5438430
  H        2.8717410     1.3343490    -0.8997070
  H        3.8959980    -0.1107530    -0.8084670
  H       -1.9544520    -1.3731060    -0.4835650
units angstrom
no_reorient  #important for SAPT in psi4, default
symmetry c1  #important for SAPT in psi4, default
}

set PROPERTIES_ORIGIN ["COM"]
properties('MP2/aug-cc-pvtz', properties = ['dipole'])
--------------------------------------------------------------------------

    Molecular point group: c1
  Charge       = 0
  Multiplicity = 1
  Basis Set: AUG-CC-PVTZ
    Blend: AUG-CC-PVTZ
  Basis Set: (AUG-CC-PVTZ AUX)
    Blend: AUG-CC-PVTZ-JKFIT

    Orbital Energies [Eh]
    ---------------------

    Doubly Occupied:

       1A    -20.548836     2A    -20.533671     3A    -15.598961
       4A    -11.359263     5A    -11.297913     6A    -11.274102
       7A    -11.231216     8A    -11.223362     9A     -1.398142
      10A     -1.345801    11A     -1.245925    12A     -1.052542
      13A     -1.012682    14A     -0.902773    15A     -0.848989
      16A     -0.794163    17A     -0.744585    18A     -0.676034
      19A     -0.647014    20A     -0.641644    21A     -0.613346
      22A     -0.597885    23A     -0.577078    24A     -0.563602
      25A     -0.542961    26A     -0.533869    27A     -0.521524
      28A     -0.514470    29A     -0.502280    30A     -0.445245
      31A     -0.436390    32A     -0.403694

  @DF-RHF Final Energy:  -400.08734764550377

   => Energetics <=

    Nuclear Repulsion Energy =            400.5158092279052653
    One-Electron Energy =               -1339.9463893868994546
    Two-Electron Energy =                 539.3432325134904204
    Total Energy =                       -400.0873476455037689
  Basis Set: (AUG-CC-PVTZ AUX)
    Blend: AUG-CC-PVTZ-RI
    Molecular point group: c1

    Geometry (in Angstrom), charge = 0, multiplicity = 1:

       Center              X                  Y                   Z               Mass
    ------------   -----------------  -----------------  -----------------  -----------------
         O           -2.496911089380    -0.620987452363    -0.143870776060    15.994914619570
         O           -0.006230189380    -1.404970652363    -0.382019176060    15.994914619570
         N            0.885337810620     0.368640347637     0.732805823940    14.003074004430
         C           -1.539641189380     0.301875347637     0.331069823940    12.000000000000
         C            2.257732810620    -0.101004652363     0.602012823940    12.000000000000
         C           -0.148288189380    -0.318565652363     0.196666823940    12.000000000000
         C           -1.645083189380     1.604925347637    -0.452137176060    12.000000000000
         C            2.866588810620     0.252358347637    -0.747701176060    12.000000000000
         H           -1.738922189380     0.486433647637     1.397968423940     1.007825032230
         H            2.834401810620     0.332248347637     1.423842823940     1.007825032230
         H            2.240740810620    -1.184549652363     0.736891823940     1.007825032230
         H            0.710428810620     1.277130347637     1.141367823940     1.007825032230
         H           -1.390582189380     1.420600347637    -1.498696176060     1.007825032230
         H           -0.985970189380     2.384228347637    -0.056360176060     1.007825032230
         H           -2.674505189380     1.965751347637    -0.404397176060     1.007825032230
         H            2.285488810620    -0.214277652363    -1.545369176060     1.007825032230
         H            2.872506810620     1.334471347637    -0.901233176060     1.007825032230
         H            3.896763810620    -0.110630652363    -0.809993176060     1.007825032230
         H           -1.953686189380    -1.372983652363    -0.485091176060     1.007825032230

  Basis Set: AUG-CC-PVTZ
    Blend: AUG-CC-PVTZ
  Basis Set: (AUG-CC-PVTZ AUX)
    Blend: AUG-CC-PVTZ-JKFIT
	 Reference Energy          =    -400.0873476455037689 [Eh]
	 Singles Energy            =      -0.0000000000000000 [Eh]
	 Same-Spin Energy          =      -0.4022073394464333 [Eh]
	 Opposite-Spin Energy      =      -1.3079060237683986 [Eh]
	 Correlation Energy        =      -1.7101133632148320 [Eh]
	 Total Energy              =    -401.7974610087185852 [Eh]

	 ================> DF-SCS-MP2 Energies <==================
	-----------------------------------------------------------
	 SCS Same-Spin Scale       =       0.3333333333333333 [-]
	 SCS Opposite-Spin Scale   =       1.2000000000000000 [-]
	 SCS Same-Spin Energy      =      -0.1340691131488111 [Eh]
	 SCS Opposite-Spin Energy  =      -1.5694872285220782 [Eh]
	 SCS Correlation Energy    =      -1.7035563416708892 [Eh]
	 SCS Total Energy          =    -401.7909039871746586 [Eh]
	-----------------------------------------------------------

  Dipole Moment: [D]
     X:     2.9176      Y:     3.1524      Z:     1.5395     Total:     4.5629

*** Psi4 exiting successfully. Buy a developer a beer!
