                               Psi4 1.3.2 release

  ==> Input File <==

--------------------------------------------------------------------------
#psi4
#
memory 32 gb

molecule  {
0 1
  O       -2.4925410    -0.6205970    -0.1535330
  O       -0.0069960    -1.4050930    -0.3804930
  N        0.8845720     0.3685180     0.7343320
  C       -1.5404070     0.3017530     0.3325960
  C        2.2611073    -0.0903187     0.6087899
  C       -0.1490540    -0.3186880     0.1981930
  C       -1.6458490     1.6048030    -0.4506110
  C        2.8658230     0.2522360    -0.7461750
  H       -1.7322500     0.4923850     1.3997900
  H        2.8336360     0.3321260     1.4253690
  H        2.2399750    -1.1846720     0.7384180
  H        0.7183479     1.2781542     1.1439681
  H       -1.3913480     1.4204780    -1.4971700
  H       -0.9867360     2.3841060    -0.0548340
  H       -2.6752710     1.9656290    -0.4028710
  H        2.2847230    -0.2144000    -1.5438430
  H        2.8717410     1.3343490    -0.8997070
  H        3.8959980    -0.1107530    -0.8084670
  H       -1.9544520    -1.3731060    -0.4835650
units angstrom
no_reorient  #important for SAPT in psi4, default
symmetry c1  #important for SAPT in psi4, default
}

set PROPERTIES_ORIGIN ["COM"]
properties('MP2/aug-cc-pvtz', properties = ['dipole'])
--------------------------------------------------------------------------

    Molecular point group: c1
  Charge       = 0
  Multiplicity = 1
  Basis Set: AUG-CC-PVTZ
    Blend: AUG-CC-PVTZ
  Basis Set: (AUG-CC-PVTZ AUX)
    Blend: AUG-CC-PVTZ-JKFIT

    Orbital Energies [Eh]
    ---------------------

    Doubly Occupied:

       1A    -20.548542     2A    -20.533487     3A    -15.598843
       4A    -11.359402     5A    -11.298210     6A    -11.273810
       7A    -11.231014     8A    -11.223312     9A     -1.398299
      10A     -1.346602    11A     -1.245766    12A     -1.052689
      13A     -1.012652    14A     -0.903030    15A     -0.849183
      16A     -0.794026    17A     -0.745098    18A     -0.676356
      19A     -0.648547    20A     -0.641307    21A     -0.613469
      22A     -0.597068    23A     -0.577074    24A     -0.563372
      25A     -0.542883    26A     -0.533873    27A     -0.522703
      28A     -0.514455    29A     -0.500843    30A     -0.445663
      31A     -0.436300    32A     -0.403416

  @DF-RHF Final Energy:  -400.08756151971210

   => Energetics <=

    Nuclear Repulsion Energy =            400.5506758167624639
    One-Electron Energy =               -1340.0138848194808361
    Two-Electron Energy =                 539.3756474830063325
    Total Energy =                       -400.0875615197120396
  Basis Set: (AUG-CC-PVTZ AUX)
    Blend: AUG-CC-PVTZ-RI
    Molecular point group: c1

    Geometry (in Angstrom), charge = 0, multiplicity = 1:

       Center              X                  Y                   Z               Mass
    ------------   -----------------  -----------------  -----------------  -----------------
         O           -2.493039984700    -0.621714654539    -0.154080635867    15.994914619570
         O           -0.007494984700    -1.406210654539    -0.381040635867    15.994914619570
         N            0.884073015300     0.367400345461     0.733784364133    14.003074004430
         C           -1.540905984700     0.300635345461     0.332048364133    12.000000000000
         C            2.260608315300    -0.091436354539     0.608242264133    12.000000000000
         C           -0.149552984700    -0.319805654539     0.197645364133    12.000000000000
         C           -1.646347984700     1.603685345461    -0.451158635867    12.000000000000
         C            2.865324015300     0.251118345461    -0.746722635867    12.000000000000
         H           -1.732748984700     0.491267345461     1.399242364133     1.007825032230
         H            2.833137015300     0.331008345461     1.424821364133     1.007825032230
         H            2.239476015300    -1.185789654539     0.737870364133     1.007825032230
         H            0.717848915300     1.277036545461     1.143420464133     1.007825032230
         H           -1.391846984700     1.419360345461    -1.497717635867     1.007825032230
         H           -0.987234984700     2.382988345461    -0.055381635867     1.007825032230
         H           -2.675769984700     1.964511345461    -0.403418635867     1.007825032230
         H            2.284224015300    -0.215517654539    -1.544390635867     1.007825032230
         H            2.871242015300     1.333231345461    -0.900254635867     1.007825032230
         H            3.895499015300    -0.111870654539    -0.809014635867     1.007825032230
         H           -1.954950984700    -1.374223654539    -0.484112635867     1.007825032230

  Basis Set: AUG-CC-PVTZ
    Blend: AUG-CC-PVTZ
  Basis Set: (AUG-CC-PVTZ AUX)
    Blend: AUG-CC-PVTZ-JKFIT
	 Reference Energy          =    -400.0875615197120965 [Eh]
	 Singles Energy            =      -0.0000000000000000 [Eh]
	 Same-Spin Energy          =      -0.4021284117870815 [Eh]
	 Opposite-Spin Energy      =      -1.3077177436358702 [Eh]
	 Correlation Energy        =      -1.7098461554229518 [Eh]
	 Total Energy              =    -401.7974076751350481 [Eh]

	 ================> DF-SCS-MP2 Energies <==================
	-----------------------------------------------------------
	 SCS Same-Spin Scale       =       0.3333333333333333 [-]
	 SCS Opposite-Spin Scale   =       1.2000000000000000 [-]
	 SCS Same-Spin Energy      =      -0.1340428039290272 [Eh]
	 SCS Opposite-Spin Energy  =      -1.5692612923630442 [Eh]
	 SCS Correlation Energy    =      -1.7033040962920714 [Eh]
	 SCS Total Energy          =    -401.7908656160041687 [Eh]
	-----------------------------------------------------------

  Dipole Moment: [D]
     X:     2.9100      Y:     3.1559      Z:     1.5660     Total:     4.5695

*** Psi4 exiting successfully. Buy a developer a beer!
