                               Psi4 1.3.2 release

  ==> Input File <==

--------------------------------------------------------------------------
#psi4
#
memory 32 gb

molecule  {
0 1
  O       -2.4925410    -0.6205970    -0.1535330
  O       -0.0069960    -1.4050930    -0.3804930
  N        0.8912619     0.3816034     0.7550718
  C       -1.5404070     0.3017530     0.3325960
  C        2.2569670    -0.1011270     0.6035390
  C       -0.1490540    -0.3186880     0.1981930
  C       -1.6458490     1.6048030    -0.4506110
  C        2.8658230     0.2522360    -0.7461750
  H       -1.7322500     0.4923850     1.3997900
  H        2.8178714     0.3409072     1.4315800
  H        2.2399750    -1.1846720     0.7384180
  H        0.7096630     1.2770080     1.1428940
  H       -1.3913480     1.4204780    -1.4971700
  H       -0.9867360     2.3841060    -0.0548340
  H       -2.6752710     1.9656290    -0.4028710
  H        2.2847230    -0.2144000    -1.5438430
  H        2.8717410     1.3343490    -0.8997070
  H        3.8959980    -0.1107530    -0.8084670
  H       -1.9544520    -1.3731060    -0.4835650
units angstrom
no_reorient  #important for SAPT in psi4, default
symmetry c1  #important for SAPT in psi4, default
}

set PROPERTIES_ORIGIN ["COM"]
properties('MP2/aug-cc-pvtz', properties = ['dipole'])
--------------------------------------------------------------------------

    Molecular point group: c1
  Charge       = 0
  Multiplicity = 1
  Basis Set: AUG-CC-PVTZ
    Blend: AUG-CC-PVTZ
  Basis Set: (AUG-CC-PVTZ AUX)
    Blend: AUG-CC-PVTZ-JKFIT

    Orbital Energies [Eh]
    ---------------------

    Doubly Occupied:

       1A    -20.549162     2A    -20.537340     3A    -15.596339
       4A    -11.362063     5A    -11.298623     6A    -11.273114
       7A    -11.231457     8A    -11.223031     9A     -1.398831
      10A     -1.347105    11A     -1.244012    12A     -1.051907
      13A     -1.012113    14A     -0.902441    15A     -0.848944
      16A     -0.795338    17A     -0.744728    18A     -0.676236
      19A     -0.646637    20A     -0.642460    21A     -0.611904
      22A     -0.599377    23A     -0.577444    24A     -0.563808
      25A     -0.542915    26A     -0.533863    27A     -0.522012
      28A     -0.515976    29A     -0.502045    30A     -0.446227
      31A     -0.437170    32A     -0.403386

  @DF-RHF Final Energy:  -400.08680605517441

   => Energetics <=

    Nuclear Repulsion Energy =            400.2050899953411545
    One-Electron Energy =               -1339.3077769929989245
    Two-Electron Energy =                 539.0158809424833635
    Total Energy =                       -400.0868060551744065
  Basis Set: (AUG-CC-PVTZ AUX)
    Blend: AUG-CC-PVTZ-RI
    Molecular point group: c1

    Geometry (in Angstrom), charge = 0, multiplicity = 1:

       Center              X                  Y                   Z               Mass
    ------------   -----------------  -----------------  -----------------  -----------------
         O           -2.493205298294    -0.622237643118    -0.156067220080    15.994914619570
         O           -0.007660298294    -1.406733643118    -0.383027220080    15.994914619570
         N            0.890597601706     0.379962756882     0.752537579920    14.003074004430
         C           -1.541071298294     0.300112356882     0.330061779920    12.000000000000
         C            2.256302701706    -0.102767643118     0.601004779920    12.000000000000
         C           -0.149718298294    -0.320328643118     0.195658779920    12.000000000000
         C           -1.646513298294     1.603162356882    -0.453145220080    12.000000000000
         C            2.865158701706     0.250595356882    -0.748709220080    12.000000000000
         H           -1.732914298294     0.490744356882     1.397255779920     1.007825032230
         H            2.817207101706     0.339266556882     1.429045779920     1.007825032230
         H            2.239310701706    -1.186312643118     0.735883779920     1.007825032230
         H            0.708998701706     1.275367356882     1.140359779920     1.007825032230
         H           -1.392012298294     1.418837356882    -1.499704220080     1.007825032230
         H           -0.987400298294     2.382465356882    -0.057368220080     1.007825032230
         H           -2.675935298294     1.963988356882    -0.405405220080     1.007825032230
         H            2.284058701706    -0.216040643118    -1.546377220080     1.007825032230
         H            2.871076701706     1.332708356882    -0.902241220080     1.007825032230
         H            3.895333701706    -0.112393643118    -0.811001220080     1.007825032230
         H           -1.955116298294    -1.374746643118    -0.486099220080     1.007825032230

  Basis Set: AUG-CC-PVTZ
    Blend: AUG-CC-PVTZ
  Basis Set: (AUG-CC-PVTZ AUX)
    Blend: AUG-CC-PVTZ-JKFIT
	 Reference Energy          =    -400.0868060551744065 [Eh]
	 Singles Energy            =      -0.0000000000000000 [Eh]
	 Same-Spin Energy          =      -0.4020670933593186 [Eh]
	 Opposite-Spin Energy      =      -1.3077999441733539 [Eh]
	 Correlation Energy        =      -1.7098670375326726 [Eh]
	 Total Energy              =    -401.7966730927070671 [Eh]

	 ================> DF-SCS-MP2 Energies <==================
	-----------------------------------------------------------
	 SCS Same-Spin Scale       =       0.3333333333333333 [-]
	 SCS Opposite-Spin Scale   =       1.2000000000000000 [-]
	 SCS Same-Spin Energy      =      -0.1340223644531062 [Eh]
	 SCS Opposite-Spin Energy  =      -1.5693599330080246 [Eh]
	 SCS Correlation Energy    =      -1.7033822974611308 [Eh]
	 SCS Total Energy          =    -401.7901883526355391 [Eh]
	-----------------------------------------------------------

  Dipole Moment: [D]
     X:     2.8267      Y:     3.0912      Z:     1.4901     Total:     4.4459

*** Psi4 exiting successfully. Buy a developer a beer!
