                               Psi4 1.4a3.dev225

  ==> Input File <==

--------------------------------------------------------------------------
#psi4
#
memory 32 gb

molecule  {
0 1
  O       -2.5334200    -0.7491890    -0.0380440
  O       -0.0309920    -1.3916750    -0.5246560
  N        0.8474210     0.2516040     0.7908210
  C       -1.5793960     0.2040340     0.3844480
  C        2.2299320    -0.1523350     0.5631470
  C       -0.1821000    -0.3862620     0.1848690
  C       -1.7305020     1.4971750    -0.4144490
  C        2.7876300     0.3918150    -0.7462470
  H       -1.7371730     0.4054880     1.4537200
  H        2.8183710     0.1913570     1.4185970
  H        2.2480760    -1.2444890     0.5585260
  H        0.6595560     1.1005830     1.3085070
  H       -1.5202540     1.2971370    -1.4686150
  H       -1.0543700     2.2823790    -0.0604110
  H       -2.7592110     1.8535180    -0.3272230
  H        2.1936920     0.0168210    -1.5822170
  H        2.7616940     1.4848860    -0.7566670
  H        3.8242090     0.0700520    -0.8849050
  H       -1.9777069    -1.4526960    -0.5488174
units angstrom
no_reorient  #important for SAPT in psi4, default
symmetry c1  #important for SAPT in psi4, default
}

set PROPERTIES_ORIGIN ["COM"]
properties('MP2/aug-cc-pvtz', properties = ['dipole'])
--------------------------------------------------------------------------

    Molecular point group: c1
  Charge       = 0
  Multiplicity = 1
  Basis Set: AUG-CC-PVTZ
    Blend: AUG-CC-PVTZ
  Basis Set: (AUG-CC-PVTZ AUX)
    Blend: AUG-CC-PVTZ-JKFIT

    Orbital Energies [Eh]
    ---------------------

    Doubly Occupied:

       1A    -20.550993     2A    -20.534196     3A    -15.599550
       4A    -11.359470     5A    -11.297621     6A    -11.274615
       7A    -11.230150     8A    -11.224147     9A     -1.396007
      10A     -1.337878    11A     -1.245248    12A     -1.050385
      13A     -1.011740    14A     -0.902073    15A     -0.847134
      16A     -0.793752    17A     -0.740163    18A     -0.674099
      19A     -0.643689    20A     -0.636456    21A     -0.614364
      22A     -0.598011    23A     -0.578805    24A     -0.563589
      25A     -0.541105    26A     -0.532167    27A     -0.521489
      28A     -0.508564    29A     -0.503051    30A     -0.445502
      31A     -0.434339    32A     -0.404219

  @DF-RHF Final Energy:  -400.08266133325162

   => Energetics <=

    Nuclear Repulsion Energy =            400.1619698911458727
    One-Electron Energy =               -1339.3001234216417288
    Two-Electron Energy =                 539.0554921972442344
    Total Energy =                       -400.0826613332516217
  Basis Set: (AUG-CC-PVTZ AUX)
    Blend: AUG-CC-PVTZ-RI
    Molecular point group: c1

    Geometry (in Angstrom), charge = 0, multiplicity = 1:

       Center              X                  Y                   Z               Mass
    ------------   -----------------  -----------------  -----------------  -----------------
         O           -2.487769613472    -0.697817200108    -0.045204437616    15.994914619570
         O            0.014658386528    -1.340303200108    -0.531816437616    15.994914619570
         N            0.893071386528     0.302975799892     0.783660562384    14.003074004430
         C           -1.533745613472     0.255405799892     0.377287562384    12.000000000000
         C            2.275582386528    -0.100963200108     0.555986562384    12.000000000000
         C           -0.136449613472    -0.334890200108     0.177708562384    12.000000000000
         C           -1.684851613472     1.548546799892    -0.421609437616    12.000000000000
         C            2.833280386528     0.443186799892    -0.753407437616    12.000000000000
         H           -1.691522613472     0.456859799892     1.446559562384     1.007825032230
         H            2.864021386528     0.242728799892     1.411436562384     1.007825032230
         H            2.293726386528    -1.193117200108     0.551365562384     1.007825032230
         H            0.705206386528     1.151954799892     1.301346562384     1.007825032230
         H           -1.474603613472     1.348508799892    -1.475775437616     1.007825032230
         H           -1.008719613472     2.333750799892    -0.067571437616     1.007825032230
         H           -2.713560613472     1.904889799892    -0.334383437616     1.007825032230
         H            2.239342386528     0.068192799892    -1.589377437616     1.007825032230
         H            2.807344386528     1.536257799892    -0.763827437616     1.007825032230
         H            3.869859386528     0.121423799892    -0.892065437616     1.007825032230
         H           -1.932056513472    -1.401324200108    -0.555977837616     1.007825032230

  Basis Set: AUG-CC-PVTZ
    Blend: AUG-CC-PVTZ
  Basis Set: (AUG-CC-PVTZ AUX)
    Blend: AUG-CC-PVTZ-JKFIT
	 Reference Energy          =    -400.0826613332516217 [Eh]
	 Singles Energy            =      -0.0000000000000000 [Eh]
	 Same-Spin Energy          =      -0.4027932527929443 [Eh]
	 Opposite-Spin Energy      =      -1.3093834265587589 [Eh]
	 Correlation Energy        =      -1.7121766793517033 [Eh]
	 Total Energy              =    -401.7948380126033499 [Eh]

	 ================> DF-SCS-MP2 Energies <==================
	-----------------------------------------------------------
	 SCS Same-Spin Scale       =       0.3333333333333333 [-]
	 SCS Opposite-Spin Scale   =       1.2000000000000000 [-]
	 SCS Same-Spin Energy      =      -0.1342644175976481 [Eh]
	 SCS Opposite-Spin Energy  =      -1.5712601118705107 [Eh]
	 SCS Correlation Energy    =      -1.7055245294681589 [Eh]
	 SCS Total Energy          =    -401.7881858627197857 [Eh]
	-----------------------------------------------------------

  Dipole Moment: [D]
     X:     2.9383      Y:     3.0880      Z:     1.5853     Total:     4.5479

*** Psi4 exiting successfully. Buy a developer a beer!
