                               Psi4 1.3.2 release

  ==> Input File <==

--------------------------------------------------------------------------
#psi4
#
memory 32 gb

molecule  {
0 1
  O       -2.4925410    -0.6205970    -0.1535330
  O       -0.0069960    -1.4050930    -0.3804930
  N        0.8845720     0.3685180     0.7343320
  C       -1.5404070     0.3017530     0.3325960
  C        2.2569670    -0.1011270     0.6035390
  C       -0.1416858    -0.3274560     0.1953562
  C       -1.6458490     1.6048030    -0.4506110
  C        2.8658230     0.2522360    -0.7461750
  H       -1.7322500     0.4923850     1.3997900
  H        2.8336360     0.3321260     1.4253690
  H        2.2399750    -1.1846720     0.7384180
  H        0.7182281     1.2777101     1.1449043
  H       -1.3913480     1.4204780    -1.4971700
  H       -0.9867360     2.3841060    -0.0548340
  H       -2.6752710     1.9656290    -0.4028710
  H        2.2847230    -0.2144000    -1.5438430
  H        2.8717410     1.3343490    -0.8997070
  H        3.8959980    -0.1107530    -0.8084670
  H       -1.9544520    -1.3731060    -0.4835650
units angstrom
no_reorient  #important for SAPT in psi4, default
symmetry c1  #important for SAPT in psi4, default
}

set PROPERTIES_ORIGIN ["COM"]
properties('MP2/aug-cc-pvtz', properties = ['dipole'])
--------------------------------------------------------------------------

    Molecular point group: c1
  Charge       = 0
  Multiplicity = 1
  Basis Set: AUG-CC-PVTZ
    Blend: AUG-CC-PVTZ
  Basis Set: (AUG-CC-PVTZ AUX)
    Blend: AUG-CC-PVTZ-JKFIT

    Orbital Energies [Eh]
    ---------------------

    Doubly Occupied:

       1A    -20.548131     2A    -20.534920     3A    -15.598038
       4A    -11.358468     5A    -11.297531     6A    -11.273514
       7A    -11.230328     8A    -11.223265     9A     -1.402744
      10A     -1.347566    11A     -1.246647    12A     -1.051091
      13A     -1.012059    14A     -0.901277    15A     -0.847771
      16A     -0.795364    17A     -0.744135    18A     -0.676595
      19A     -0.647354    20A     -0.643026    21A     -0.613441
      22A     -0.599028    23A     -0.577004    24A     -0.562942
      25A     -0.542870    26A     -0.533686    27A     -0.523167
      28A     -0.515326    29A     -0.502590    30A     -0.445261
      31A     -0.434930    32A     -0.404140

  @DF-RHF Final Energy:  -400.08846377297442

   => Energetics <=

    Nuclear Repulsion Energy =            400.6580093904324258
    One-Electron Energy =               -1340.2245228655856408
    Two-Electron Energy =                 539.4780497021788506
    Total Energy =                       -400.0884637729743645
  Basis Set: (AUG-CC-PVTZ AUX)
    Blend: AUG-CC-PVTZ-RI
    Molecular point group: c1

    Geometry (in Angstrom), charge = 0, multiplicity = 1:

       Center              X                  Y                   Z               Mass
    ------------   -----------------  -----------------  -----------------  -----------------
         O           -2.493369796790    -0.619704360480    -0.153259746623    15.994914619570
         O           -0.007824796790    -1.404200360480    -0.380219746623    15.994914619570
         N            0.883743203210     0.369410639520     0.734605253377    14.003074004430
         C           -1.541235796790     0.302645639520     0.332869253377    12.000000000000
         C            2.256138203210    -0.100234360480     0.603812253377    12.000000000000
         C           -0.142514596790    -0.326563360480     0.195629453377    12.000000000000
         C           -1.646677796790     1.605695639520    -0.450337746623    12.000000000000
         C            2.864994203210     0.253128639520    -0.745901746623    12.000000000000
         H           -1.733078796790     0.493277639520     1.400063253377     1.007825032230
         H            2.832807203210     0.333018639520     1.425642253377     1.007825032230
         H            2.239146203210    -1.183779360480     0.738691253377     1.007825032230
         H            0.717399303210     1.278602739520     1.145177553377     1.007825032230
         H           -1.392176796790     1.421370639520    -1.496896746623     1.007825032230
         H           -0.987564796790     2.384998639520    -0.054560746623     1.007825032230
         H           -2.676099796790     1.966521639520    -0.402597746623     1.007825032230
         H            2.283894203210    -0.213507360480    -1.543569746623     1.007825032230
         H            2.870912203210     1.335241639520    -0.899433746623     1.007825032230
         H            3.895169203210    -0.109860360480    -0.808193746623     1.007825032230
         H           -1.955280796790    -1.372213360480    -0.483291746623     1.007825032230

  Basis Set: AUG-CC-PVTZ
    Blend: AUG-CC-PVTZ
  Basis Set: (AUG-CC-PVTZ AUX)
    Blend: AUG-CC-PVTZ-JKFIT
	 Reference Energy          =    -400.0884637729744213 [Eh]
	 Singles Energy            =      -0.0000000000000000 [Eh]
	 Same-Spin Energy          =      -0.4018762510434429 [Eh]
	 Opposite-Spin Energy      =      -1.3072266732879843 [Eh]
	 Correlation Energy        =      -1.7091029243314271 [Eh]
	 Total Energy              =    -401.7975666973058537 [Eh]

	 ================> DF-SCS-MP2 Energies <==================
	-----------------------------------------------------------
	 SCS Same-Spin Scale       =       0.3333333333333333 [-]
	 SCS Opposite-Spin Scale   =       1.2000000000000000 [-]
	 SCS Same-Spin Energy      =      -0.1339587503478143 [Eh]
	 SCS Opposite-Spin Energy  =      -1.5686720079455811 [Eh]
	 SCS Correlation Energy    =      -1.7026307582933955 [Eh]
	 SCS Total Energy          =    -401.7910945312678450 [Eh]
	-----------------------------------------------------------

  Dipole Moment: [D]
     X:     2.9251      Y:     3.1024      Z:     1.5466     Total:     4.5358

*** Psi4 exiting successfully. Buy a developer a beer!
