                               Psi4 1.3.2 release

  ==> Input File <==

--------------------------------------------------------------------------
#psi4
#
memory 32 gb

molecule  {
0 1
  O       -2.4925410    -0.6205970    -0.1535330
  O       -0.0069960    -1.4050930    -0.3804930
  N        0.8845720     0.3685180     0.7343320
  C       -1.5332089     0.2891948     0.3102817
  C        2.2569670    -0.1011270     0.6035390
  C       -0.1490540    -0.3186880     0.1981930
  C       -1.6458490     1.6048030    -0.4506110
  C        2.8658230     0.2522360    -0.7461750
  H       -1.7322500     0.4923850     1.3997900
  H        2.8336360     0.3321260     1.4253690
  H        2.2399750    -1.1846720     0.7384180
  H        0.7096630     1.2770080     1.1428940
  H       -1.3884254     1.4020886    -1.4930467
  H       -0.9867360     2.3841060    -0.0548340
  H       -2.6752710     1.9656290    -0.4028710
  H        2.2847230    -0.2144000    -1.5438430
  H        2.8717410     1.3343490    -0.8997070
  H        3.8959980    -0.1107530    -0.8084670
  H       -1.9544520    -1.3731060    -0.4835650
units angstrom
no_reorient  #important for SAPT in psi4, default
symmetry c1  #important for SAPT in psi4, default
}

set PROPERTIES_ORIGIN ["COM"]
properties('MP2/aug-cc-pvtz', properties = ['dipole'])
--------------------------------------------------------------------------

    Molecular point group: c1
  Charge       = 0
  Multiplicity = 1
  Basis Set: AUG-CC-PVTZ
    Blend: AUG-CC-PVTZ
  Basis Set: (AUG-CC-PVTZ AUX)
    Blend: AUG-CC-PVTZ-JKFIT

    Orbital Energies [Eh]
    ---------------------

    Doubly Occupied:

       1A    -20.550396     2A    -20.533250     3A    -15.598944
       4A    -11.358752     5A    -11.298628     6A    -11.274205
       7A    -11.231055     8A    -11.223359     9A     -1.400423
      10A     -1.350780    11A     -1.245920    12A     -1.053173
      13A     -1.012737    14A     -0.903706    15A     -0.848751
      16A     -0.793688    17A     -0.746922    18A     -0.676769
      19A     -0.647187    20A     -0.642324    21A     -0.613880
      22A     -0.598024    23A     -0.577164    24A     -0.563853
      25A     -0.544637    26A     -0.533491    27A     -0.521887
      28A     -0.516020    29A     -0.502436    30A     -0.442761
      31A     -0.437183    32A     -0.403383

  @DF-RHF Final Energy:  -400.08688241972271

   => Energetics <=

    Nuclear Repulsion Energy =            400.9926469680401055
    One-Electron Energy =               -1340.8676841125534338
    Two-Electron Energy =                 539.7881547247905019
    Total Energy =                       -400.0868824197227696
  Basis Set: (AUG-CC-PVTZ AUX)
    Blend: AUG-CC-PVTZ-RI
    Molecular point group: c1

    Geometry (in Angstrom), charge = 0, multiplicity = 1:

       Center              X                  Y                   Z               Mass
    ------------   -----------------  -----------------  -----------------  -----------------
         O           -2.493303791322    -0.619151543122    -0.151281590779    15.994914619570
         O           -0.007758791322    -1.403647543122    -0.378241590779    15.994914619570
         N            0.883809208678     0.369963456878     0.736583409221    14.003074004430
         C           -1.533971691322     0.290640256878     0.312533109221    12.000000000000
         C            2.256204208678    -0.099681543122     0.605790409221    12.000000000000
         C           -0.149816791322    -0.317242543122     0.200444409221    12.000000000000
         C           -1.646611791322     1.606248456878    -0.448359590779    12.000000000000
         C            2.865060208678     0.253681456878    -0.743923590779    12.000000000000
         H           -1.733012791322     0.493830456878     1.402041409221     1.007825032230
         H            2.832873208678     0.333571456878     1.427620409221     1.007825032230
         H            2.239212208678    -1.183226543122     0.740669409221     1.007825032230
         H            0.708900208678     1.278453456878     1.145145409221     1.007825032230
         H           -1.389188191322     1.403534056878    -1.490795290779     1.007825032230
         H           -0.987498791322     2.385551456878    -0.052582590779     1.007825032230
         H           -2.676033791322     1.967074456878    -0.400619590779     1.007825032230
         H            2.283960208678    -0.212954543122    -1.541591590779     1.007825032230
         H            2.870978208678     1.335794456878    -0.897455590779     1.007825032230
         H            3.895235208678    -0.109307543122    -0.806215590779     1.007825032230
         H           -1.955214791322    -1.371660543122    -0.481313590779     1.007825032230

  Basis Set: AUG-CC-PVTZ
    Blend: AUG-CC-PVTZ
  Basis Set: (AUG-CC-PVTZ AUX)
    Blend: AUG-CC-PVTZ-JKFIT
	 Reference Energy          =    -400.0868824197227127 [Eh]
	 Singles Energy            =      -0.0000000000000000 [Eh]
	 Same-Spin Energy          =      -0.4022363096381234 [Eh]
	 Opposite-Spin Energy      =      -1.3077079441179373 [Eh]
	 Correlation Energy        =      -1.7099442537560607 [Eh]
	 Total Energy              =    -401.7968266734787903 [Eh]

	 ================> DF-SCS-MP2 Energies <==================
	-----------------------------------------------------------
	 SCS Same-Spin Scale       =       0.3333333333333333 [-]
	 SCS Opposite-Spin Scale   =       1.2000000000000000 [-]
	 SCS Same-Spin Energy      =      -0.1340787698793744 [Eh]
	 SCS Opposite-Spin Energy  =      -1.5692495329415248 [Eh]
	 SCS Correlation Energy    =      -1.7033283028208992 [Eh]
	 SCS Total Energy          =    -401.7902107225436339 [Eh]
	-----------------------------------------------------------

  Dipole Moment: [D]
     X:     2.8795      Y:     3.1203      Z:     1.5261     Total:     4.5118

*** Psi4 exiting successfully. Buy a developer a beer!
