                               Psi4 1.3.2 release

  ==> Input File <==

--------------------------------------------------------------------------
#psi4
#
memory 32 gb

molecule  {
0 1
  O       -2.4925410    -0.6205970    -0.1535330
  O       -0.0069960    -1.4050930    -0.3804930
  N        0.8845720     0.3685180     0.7343320
  C       -1.5404070     0.3017530     0.3325960
  C        2.2569670    -0.1011270     0.6035390
  C       -0.1436398    -0.3157365     0.2512169
  C       -1.6458490     1.6048030    -0.4506110
  C        2.8658230     0.2522360    -0.7461750
  H       -1.6975302     0.4780513     1.4078999
  H        2.8336360     0.3321260     1.4253690
  H        2.2399750    -1.1846720     0.7384180
  H        0.7096630     1.2770080     1.1428940
  H       -1.3913480     1.4204780    -1.4971700
  H       -0.9867360     2.3841060    -0.0548340
  H       -2.6752710     1.9656290    -0.4028710
  H        2.2847230    -0.2144000    -1.5438430
  H        2.8717410     1.3343490    -0.8997070
  H        3.8959980    -0.1107530    -0.8084670
  H       -1.9544520    -1.3731060    -0.4835650
units angstrom
no_reorient  #important for SAPT in psi4, default
symmetry c1  #important for SAPT in psi4, default
}

set PROPERTIES_ORIGIN ["COM"]
properties('MP2/aug-cc-pvtz', properties = ['dipole'])
--------------------------------------------------------------------------

    Molecular point group: c1
  Charge       = 0
  Multiplicity = 1
  Basis Set: AUG-CC-PVTZ
    Blend: AUG-CC-PVTZ
  Basis Set: (AUG-CC-PVTZ AUX)
    Blend: AUG-CC-PVTZ-JKFIT

    Orbital Energies [Eh]
    ---------------------

    Doubly Occupied:

       1A    -20.548173     2A    -20.526138     3A    -15.604405
       4A    -11.357916     5A    -11.298853     6A    -11.276820
       7A    -11.231920     8A    -11.224654     9A     -1.386750
      10A     -1.341867    11A     -1.250738    12A     -1.054951
      13A     -1.015052    14A     -0.905835    15A     -0.852100
      16A     -0.799796    17A     -0.741139    18A     -0.676894
      19A     -0.650614    20A     -0.635966    21A     -0.613953
      22A     -0.596642    23A     -0.575670    24A     -0.563853
      25A     -0.544354    26A     -0.534703    27A     -0.517923
      28A     -0.508947    29A     -0.502206    30A     -0.445878
      31A     -0.431768    32A     -0.404285

  @DF-RHF Final Energy:  -400.08335490513980

   => Energetics <=

    Nuclear Repulsion Energy =            400.4636525792874409
    One-Electron Energy =               -1339.8524868867166333
    Two-Electron Energy =                 539.3054794022893930
    Total Energy =                       -400.0833549051397995
  Basis Set: (AUG-CC-PVTZ AUX)
    Blend: AUG-CC-PVTZ-RI
    Molecular point group: c1

    Geometry (in Angstrom), charge = 0, multiplicity = 1:

       Center              X                  Y                   Z               Mass
    ------------   -----------------  -----------------  -----------------  -----------------
         O           -2.493394663435    -0.620776120295    -0.159037690176    15.994914619570
         O           -0.007849663435    -1.405272120295    -0.385997690176    15.994914619570
         N            0.883718336565     0.368338879705     0.728827309824    14.003074004430
         C           -1.541260663435     0.301573879705     0.327091309824    12.000000000000
         C            2.256113336565    -0.101306120295     0.598034309824    12.000000000000
         C           -0.144493463435    -0.315915620295     0.245712209824    12.000000000000
         C           -1.646702663435     1.604623879705    -0.456115690176    12.000000000000
         C            2.864969336565     0.252056879705    -0.751679690176    12.000000000000
         H           -1.698383863435     0.477872179705     1.402395209824     1.007825032230
         H            2.832782336565     0.331946879705     1.419864309824     1.007825032230
         H            2.239121336565    -1.184851120295     0.732913309824     1.007825032230
         H            0.708809336565     1.276828879705     1.137389309824     1.007825032230
         H           -1.392201663435     1.420298879705    -1.502674690176     1.007825032230
         H           -0.987589663435     2.383926879705    -0.060338690176     1.007825032230
         H           -2.676124663435     1.965449879705    -0.408375690176     1.007825032230
         H            2.283869336565    -0.214579120295    -1.549347690176     1.007825032230
         H            2.870887336565     1.334169879705    -0.905211690176     1.007825032230
         H            3.895144336565    -0.110932120295    -0.813971690176     1.007825032230
         H           -1.955305663435    -1.373285120295    -0.489069690176     1.007825032230

  Basis Set: AUG-CC-PVTZ
    Blend: AUG-CC-PVTZ
  Basis Set: (AUG-CC-PVTZ AUX)
    Blend: AUG-CC-PVTZ-JKFIT
	 Reference Energy          =    -400.0833549051397995 [Eh]
	 Singles Energy            =      -0.0000000000000000 [Eh]
	 Same-Spin Energy          =      -0.4026383279963900 [Eh]
	 Opposite-Spin Energy      =      -1.3086571293843452 [Eh]
	 Correlation Energy        =      -1.7112954573807353 [Eh]
	 Total Energy              =    -401.7946503625205423 [Eh]

	 ================> DF-SCS-MP2 Energies <==================
	-----------------------------------------------------------
	 SCS Same-Spin Scale       =       0.3333333333333333 [-]
	 SCS Opposite-Spin Scale   =       1.2000000000000000 [-]
	 SCS Same-Spin Energy      =      -0.1342127759987967 [Eh]
	 SCS Opposite-Spin Energy  =      -1.5703885552612142 [Eh]
	 SCS Correlation Energy    =      -1.7046013312600108 [Eh]
	 SCS Total Energy          =    -401.7879562363997934 [Eh]
	-----------------------------------------------------------

  Dipole Moment: [D]
     X:     3.0449      Y:     3.2995      Z:     1.6664     Total:     4.7890

*** Psi4 exiting successfully. Buy a developer a beer!
