                               Psi4 1.3.2 release

  ==> Input File <==

--------------------------------------------------------------------------
#psi4
#
memory 32 gb

molecule  {
0 1
  O       -2.5104661    -0.6045079    -0.1483267
  O       -0.0069960    -1.4050930    -0.3804930
  N        0.8845720     0.3685180     0.7343320
  C       -1.5404070     0.3017530     0.3325960
  C        2.2569670    -0.1011270     0.6035390
  C       -0.1384314    -0.2965672     0.2086942
  C       -1.6458490     1.6048030    -0.4506110
  C        2.8658230     0.2522360    -0.7461750
  H       -1.7322500     0.4923850     1.3997900
  H        2.8336360     0.3321260     1.4253690
  H        2.2399750    -1.1846720     0.7384180
  H        0.7096630     1.2770080     1.1428940
  H       -1.3913480     1.4204780    -1.4971700
  H       -0.9867360     2.3841060    -0.0548340
  H       -2.6752710     1.9656290    -0.4028710
  H        2.2847230    -0.2144000    -1.5438430
  H        2.8717410     1.3343490    -0.8997070
  H        3.8959980    -0.1107530    -0.8084670
  H       -1.9544520    -1.3731060    -0.4835650
units angstrom
no_reorient  #important for SAPT in psi4, default
symmetry c1  #important for SAPT in psi4, default
}

set PROPERTIES_ORIGIN ["COM"]
properties('MP2/aug-cc-pvtz', properties = ['dipole'])
--------------------------------------------------------------------------

    Molecular point group: c1
  Charge       = 0
  Multiplicity = 1
  Basis Set: AUG-CC-PVTZ
    Blend: AUG-CC-PVTZ
  Basis Set: (AUG-CC-PVTZ AUX)
    Blend: AUG-CC-PVTZ-JKFIT

    Orbital Energies [Eh]
    ---------------------

    Doubly Occupied:

       1A    -20.550064     2A    -20.528343     3A    -15.604395
       4A    -11.359068     5A    -11.297838     6A    -11.276907
       7A    -11.230426     8A    -11.225080     9A     -1.387404
      10A     -1.340442    11A     -1.251432    12A     -1.054420
      13A     -1.014536    14A     -0.904433    15A     -0.850585
      16A     -0.799404    17A     -0.741286    18A     -0.676394
      19A     -0.647828    20A     -0.636839    21A     -0.614983
      22A     -0.597198    23A     -0.574567    24A     -0.562964
      25A     -0.544188    26A     -0.533961    27A     -0.518873
      28A     -0.510743    29A     -0.502625    30A     -0.443611
      31A     -0.434060    32A     -0.405367

  @DF-RHF Final Energy:  -400.08297144267351

   => Energetics <=

    Nuclear Repulsion Energy =            400.3074029804839711
    One-Electron Energy =               -1339.5402201080887608
    Two-Electron Energy =                 539.1498456849312788
    Total Energy =                       -400.0829714426735109
  Basis Set: (AUG-CC-PVTZ AUX)
    Blend: AUG-CC-PVTZ-RI
    Molecular point group: c1

    Geometry (in Angstrom), charge = 0, multiplicity = 1:

       Center              X                  Y                   Z               Mass
    ------------   -----------------  -----------------  -----------------  -----------------
         O           -2.509105863632    -0.608973197442    -0.150114485216    15.994914619570
         O           -0.005635763632    -1.409558297442    -0.382280785216    15.994914619570
         N            0.885932236368     0.364052702558     0.732544214784    14.003074004430
         C           -1.539046763632     0.297287702558     0.330808214784    12.000000000000
         C            2.258327236368    -0.105592297442     0.601751214784    12.000000000000
         C           -0.137071163632    -0.301032497442     0.206906414784    12.000000000000
         C           -1.644488763632     1.600337702558    -0.452398785216    12.000000000000
         C            2.867183236368     0.247770702558    -0.747962785216    12.000000000000
         H           -1.730889763632     0.487919702558     1.398002214784     1.007825032230
         H            2.834996236368     0.327660702558     1.423581214784     1.007825032230
         H            2.241335236368    -1.189137297442     0.736630214784     1.007825032230
         H            0.711023236368     1.272542702558     1.141106214784     1.007825032230
         H           -1.389987763632     1.416012702558    -1.498957785216     1.007825032230
         H           -0.985375763632     2.379640702558    -0.056621785216     1.007825032230
         H           -2.673910763632     1.961163702558    -0.404658785216     1.007825032230
         H            2.286083236368    -0.218865297442    -1.545630785216     1.007825032230
         H            2.873101236368     1.329883702558    -0.901494785216     1.007825032230
         H            3.897358236368    -0.115218297442    -0.810254785216     1.007825032230
         H           -1.953091763632    -1.377571297442    -0.485352785216     1.007825032230

  Basis Set: AUG-CC-PVTZ
    Blend: AUG-CC-PVTZ
  Basis Set: (AUG-CC-PVTZ AUX)
    Blend: AUG-CC-PVTZ-JKFIT
	 Reference Energy          =    -400.0829714426735109 [Eh]
	 Singles Energy            =      -0.0000000000000000 [Eh]
	 Same-Spin Energy          =      -0.4029371215292181 [Eh]
	 Opposite-Spin Energy      =      -1.3093184038599359 [Eh]
	 Correlation Energy        =      -1.7122555253891540 [Eh]
	 Total Energy              =    -401.7952269680626500 [Eh]

	 ================> DF-SCS-MP2 Energies <==================
	-----------------------------------------------------------
	 SCS Same-Spin Scale       =       0.3333333333333333 [-]
	 SCS Opposite-Spin Scale   =       1.2000000000000000 [-]
	 SCS Same-Spin Energy      =      -0.1343123738430727 [Eh]
	 SCS Opposite-Spin Energy  =      -1.5711820846319231 [Eh]
	 SCS Correlation Energy    =      -1.7054944584749958 [Eh]
	 SCS Total Energy          =    -401.7884659011485269 [Eh]
	-----------------------------------------------------------

  Dipole Moment: [D]
     X:     3.0861      Y:     3.2541      Z:     1.6377     Total:     4.7744

*** Psi4 exiting successfully. Buy a developer a beer!
