                               Psi4 1.3.2 release

  ==> Input File <==

--------------------------------------------------------------------------
#psi4
#
memory 32 gb

molecule  {
0 1
  O       -2.4846794    -0.6370958    -0.1370024
  O       -0.0069960    -1.4050930    -0.3804930
  N        0.8845720     0.3685180     0.7343320
  C       -1.5404070     0.3017530     0.3325960
  C        2.2569670    -0.1011270     0.6035390
  C       -0.1490540    -0.3186880     0.1981930
  C       -1.6261440     1.6149597    -0.4359141
  C        2.8658230     0.2522360    -0.7461750
  H       -1.7322500     0.4923850     1.3997900
  H        2.8336360     0.3321260     1.4253690
  H        2.2399750    -1.1846720     0.7384180
  H        0.7096630     1.2770080     1.1428940
  H       -1.3913480     1.4204780    -1.4971700
  H       -0.9867360     2.3841060    -0.0548340
  H       -2.6752710     1.9656290    -0.4028710
  H        2.2847230    -0.2144000    -1.5438430
  H        2.8717410     1.3343490    -0.8997070
  H        3.8959980    -0.1107530    -0.8084670
  H       -1.9544520    -1.3731060    -0.4835650
units angstrom
no_reorient  #important for SAPT in psi4, default
symmetry c1  #important for SAPT in psi4, default
}

set PROPERTIES_ORIGIN ["COM"]
properties('MP2/aug-cc-pvtz', properties = ['dipole'])
--------------------------------------------------------------------------

    Molecular point group: c1
  Charge       = 0
  Multiplicity = 1
  Basis Set: AUG-CC-PVTZ
    Blend: AUG-CC-PVTZ
  Basis Set: (AUG-CC-PVTZ AUX)
    Blend: AUG-CC-PVTZ-JKFIT

    Orbital Energies [Eh]
    ---------------------

    Doubly Occupied:

       1A    -20.548257     2A    -20.532674     3A    -15.598461
       4A    -11.358305     5A    -11.298719     6A    -11.273787
       7A    -11.231988     8A    -11.223128     9A     -1.398561
      10A     -1.347906    11A     -1.245494    12A     -1.053729
      13A     -1.013254    14A     -0.902478    15A     -0.849560
      16A     -0.793874    17A     -0.746283    18A     -0.677050
      19A     -0.648147    20A     -0.641493    21A     -0.613313
      22A     -0.598338    23A     -0.579806    24A     -0.562589
      25A     -0.544006    26A     -0.534195    27A     -0.520610
      28A     -0.513666    29A     -0.501914    30A     -0.446596
      31A     -0.434905    32A     -0.403209

  @DF-RHF Final Energy:  -400.08752246388491

   => Energetics <=

    Nuclear Repulsion Energy =            400.7640561326475677
    One-Electron Energy =               -1340.4305674658526186
    Two-Electron Energy =                 539.5789888693201419
    Total Energy =                       -400.0875224638849659
  Basis Set: (AUG-CC-PVTZ AUX)
    Blend: AUG-CC-PVTZ-RI
    Molecular point group: c1

    Geometry (in Angstrom), charge = 0, multiplicity = 1:

       Center              X                  Y                   Z               Mass
    ------------   -----------------  -----------------  -----------------  -----------------
         O           -2.487772950905    -0.635882794760    -0.140767308816    15.994914619570
         O           -0.010089550905    -1.403879994760    -0.384257908816    15.994914619570
         N            0.881478449095     0.369731005240     0.730567091184    14.003074004430
         C           -1.543500550905     0.302966005240     0.328831091184    12.000000000000
         C            2.253873449095    -0.099913994760     0.599774091184    12.000000000000
         C           -0.152147550905    -0.317474994760     0.194428091184    12.000000000000
         C           -1.629237550905     1.616172705240    -0.439679008816    12.000000000000
         C            2.862729449095     0.253449005240    -0.749939908816    12.000000000000
         H           -1.735343550905     0.493598005240     1.396025091184     1.007825032230
         H            2.830542449095     0.333339005240     1.421604091184     1.007825032230
         H            2.236881449095    -1.183458994760     0.734653091184     1.007825032230
         H            0.706569449095     1.278221005240     1.139129091184     1.007825032230
         H           -1.394441550905     1.421691005240    -1.500934908816     1.007825032230
         H           -0.989829550905     2.385319005240    -0.058598908816     1.007825032230
         H           -2.678364550905     1.966842005240    -0.406635908816     1.007825032230
         H            2.281629449095    -0.213186994760    -1.547607908816     1.007825032230
         H            2.868647449095     1.335562005240    -0.903471908816     1.007825032230
         H            3.892904449095    -0.109539994760    -0.812231908816     1.007825032230
         H           -1.957545550905    -1.371892994760    -0.487329908816     1.007825032230

  Basis Set: AUG-CC-PVTZ
    Blend: AUG-CC-PVTZ
  Basis Set: (AUG-CC-PVTZ AUX)
    Blend: AUG-CC-PVTZ-JKFIT
	 Reference Energy          =    -400.0875224638849090 [Eh]
	 Singles Energy            =      -0.0000000000000000 [Eh]
	 Same-Spin Energy          =      -0.4019732810123433 [Eh]
	 Opposite-Spin Energy      =      -1.3073471389897939 [Eh]
	 Correlation Energy        =      -1.7093204200021372 [Eh]
	 Total Energy              =    -401.7968428838870523 [Eh]

	 ================> DF-SCS-MP2 Energies <==================
	-----------------------------------------------------------
	 SCS Same-Spin Scale       =       0.3333333333333333 [-]
	 SCS Opposite-Spin Scale   =       1.2000000000000000 [-]
	 SCS Same-Spin Energy      =      -0.1339910936707811 [Eh]
	 SCS Opposite-Spin Energy  =      -1.5688165667877527 [Eh]
	 SCS Correlation Energy    =      -1.7028076604585338 [Eh]
	 SCS Total Energy          =    -401.7903301243434271 [Eh]
	-----------------------------------------------------------

  Dipole Moment: [D]
     X:     2.8821      Y:     3.1956      Z:     1.5303     Total:     4.5673

*** Psi4 exiting successfully. Buy a developer a beer!
