                               Psi4 1.3.2 release

  ==> Input File <==

--------------------------------------------------------------------------
#psi4
#
memory 32 gb

molecule  {
0 1
  O       -2.4925410    -0.6205970    -0.1535330
  O       -0.0069960    -1.4050930    -0.3804930
  N        0.8845720     0.3685180     0.7343320
  C       -1.5404070     0.3017530     0.3325960
  C        2.2569670    -0.1011270     0.6035390
  C       -0.1490540    -0.3186880     0.1981930
  C       -1.6458490     1.6048030    -0.4506110
  C        2.8658230     0.2522360    -0.7461750
  H       -1.6973989     0.4577539     1.2059187
  H        2.8336360     0.3321260     1.4253690
  H        2.2399750    -1.1846720     0.7384180
  H        0.7096630     1.2770080     1.1428940
  H       -1.3913480     1.4204780    -1.4971700
  H       -0.9867360     2.3841060    -0.0548340
  H       -2.6752710     1.9656290    -0.4028710
  H        2.2847230    -0.2144000    -1.5438430
  H        2.8717410     1.3343490    -0.8997070
  H        3.8959980    -0.1107530    -0.8084670
  H       -1.9544520    -1.3731060    -0.4835650
units angstrom
no_reorient  #important for SAPT in psi4, default
symmetry c1  #important for SAPT in psi4, default
}

set PROPERTIES_ORIGIN ["COM"]
properties('MP2/aug-cc-pvtz', properties = ['dipole'])
--------------------------------------------------------------------------

    Molecular point group: c1
  Charge       = 0
  Multiplicity = 1
  Basis Set: AUG-CC-PVTZ
    Blend: AUG-CC-PVTZ
  Basis Set: (AUG-CC-PVTZ AUX)
    Blend: AUG-CC-PVTZ-JKFIT

    Orbital Energies [Eh]
    ---------------------

    Doubly Occupied:

       1A    -20.545377     2A    -20.532573     3A    -15.599543
       4A    -11.357721     5A    -11.274263     6A    -11.273075
       7A    -11.229628     8A    -11.223420     9A     -1.397723
      10A     -1.345354    11A     -1.246320    12A     -1.060483
      13A     -1.016132    14A     -0.907948    15A     -0.861515
      16A     -0.798260    17A     -0.754008    18A     -0.686214
      19A     -0.654655    20A     -0.641646    21A     -0.613751
      22A     -0.597704    23A     -0.576308    24A     -0.562874
      25A     -0.543393    26A     -0.539518    27A     -0.521186
      28A     -0.514868    29A     -0.502115    30A     -0.450646
      31A     -0.435833    32A     -0.404268

  @DF-RHF Final Energy:  -400.05643600775124

   => Energetics <=

    Nuclear Repulsion Energy =            401.8244160649738319
    One-Electron Energy =               -1342.4250585661689001
    Two-Electron Energy =                 540.5442064934438804
    Total Energy =                       -400.0564360077512447
  Basis Set: (AUG-CC-PVTZ AUX)
    Blend: AUG-CC-PVTZ-RI
    Molecular point group: c1

    Geometry (in Angstrom), charge = 0, multiplicity = 1:

       Center              X                  Y                   Z               Mass
    ------------   -----------------  -----------------  -----------------  -----------------
         O           -2.492840865705    -0.620298884940    -0.151864340020    15.994914619570
         O           -0.007295865705    -1.404794884940    -0.378824340020    15.994914619570
         N            0.884272134295     0.368816115060     0.736000659980    14.003074004430
         C           -1.540706865705     0.302051115060     0.334264659980    12.000000000000
         C            2.256667134295    -0.100828884940     0.605207659980    12.000000000000
         C           -0.149353865705    -0.318389884940     0.199861659980    12.000000000000
         C           -1.646148865705     1.605101115060    -0.448942340020    12.000000000000
         C            2.865523134295     0.252534115060    -0.744506340020    12.000000000000
         H           -1.697698765705     0.458052015060     1.207587359980     1.007825032230
         H            2.833336134295     0.332424115060     1.427037659980     1.007825032230
         H            2.239675134295    -1.184373884940     0.740086659980     1.007825032230
         H            0.709363134295     1.277306115060     1.144562659980     1.007825032230
         H           -1.391647865705     1.420776115060    -1.495501340020     1.007825032230
         H           -0.987035865705     2.384404115060    -0.053165340020     1.007825032230
         H           -2.675570865705     1.965927115060    -0.401202340020     1.007825032230
         H            2.284423134295    -0.214101884940    -1.542174340020     1.007825032230
         H            2.871441134295     1.334647115060    -0.898038340020     1.007825032230
         H            3.895698134295    -0.110454884940    -0.806798340020     1.007825032230
         H           -1.954751865705    -1.372807884940    -0.481896340020     1.007825032230

  Basis Set: AUG-CC-PVTZ
    Blend: AUG-CC-PVTZ
  Basis Set: (AUG-CC-PVTZ AUX)
    Blend: AUG-CC-PVTZ-JKFIT
	 Reference Energy          =    -400.0564360077512447 [Eh]
	 Singles Energy            =      -0.0000000000000000 [Eh]
	 Same-Spin Energy          =      -0.4019844853590298 [Eh]
	 Opposite-Spin Energy      =      -1.3068549771170566 [Eh]
	 Correlation Energy        =      -1.7088394624760863 [Eh]
	 Total Energy              =    -401.7652754702273228 [Eh]

	 ================> DF-SCS-MP2 Energies <==================
	-----------------------------------------------------------
	 SCS Same-Spin Scale       =       0.3333333333333333 [-]
	 SCS Opposite-Spin Scale   =       1.2000000000000000 [-]
	 SCS Same-Spin Energy      =      -0.1339948284530099 [Eh]
	 SCS Opposite-Spin Energy  =      -1.5682259725404679 [Eh]
	 SCS Correlation Energy    =      -1.7022208009934778 [Eh]
	 SCS Total Energy          =    -401.7586568087447176 [Eh]
	-----------------------------------------------------------

  Dipole Moment: [D]
     X:     2.9435      Y:     3.1888      Z:     1.6419     Total:     4.6399

*** Psi4 exiting successfully. Buy a developer a beer!
