                               Psi4 1.4a3.dev225

  ==> Input File <==

--------------------------------------------------------------------------
#psi4
#
memory 32 gb

molecule  {
0 1
  O       -2.5334200    -0.7491890    -0.0380440
  O       -0.0309920    -1.3916750    -0.5246560
  N        0.8474210     0.2516040     0.7908210
  C       -1.5793960     0.2040340     0.3844480
  C        2.2299320    -0.1523350     0.5631470
  C       -0.1821000    -0.3862620     0.1848690
  C       -1.7305020     1.4971750    -0.4144490
  C        2.7876300     0.3918150    -0.7462470
  H       -1.7443482     0.4146495     1.5023470
  H        2.8183710     0.1913570     1.4185970
  H        2.2480760    -1.2444890     0.5585260
  H        0.6595560     1.1005830     1.3085070
  H       -1.5202540     1.2971370    -1.4686150
  H       -1.0543700     2.2823790    -0.0604110
  H       -2.7592110     1.8535180    -0.3272230
  H        2.1936920     0.0168210    -1.5822170
  H        2.7616940     1.4848860    -0.7566670
  H        3.8242090     0.0700520    -0.8849050
  H       -2.0046360    -1.4186050    -0.5240660
units angstrom
no_reorient  #important for SAPT in psi4, default
symmetry c1  #important for SAPT in psi4, default
}

set PROPERTIES_ORIGIN ["COM"]
properties('MP2/aug-cc-pvtz', properties = ['dipole'])
--------------------------------------------------------------------------

    Molecular point group: c1
  Charge       = 0
  Multiplicity = 1
  Basis Set: AUG-CC-PVTZ
    Blend: AUG-CC-PVTZ
  Basis Set: (AUG-CC-PVTZ AUX)
    Blend: AUG-CC-PVTZ-JKFIT

    Orbital Energies [Eh]
    ---------------------

    Doubly Occupied:

       1A    -20.550562     2A    -20.533396     3A    -15.599073
       4A    -11.359704     5A    -11.304636     6A    -11.274356
       7A    -11.231269     8A    -11.223932     9A     -1.397529
      10A     -1.347356    11A     -1.244762    12A     -1.050769
      13A     -1.012299    14A     -0.901836    15A     -0.846499
      16A     -0.793047    17A     -0.743727    18A     -0.673493
      19A     -0.645047    20A     -0.635486    21A     -0.614522
      22A     -0.597978    23A     -0.581706    24A     -0.564779
      25A     -0.541988    26A     -0.531487    27A     -0.521740
      28A     -0.512646    29A     -0.502879    30A     -0.445607
      31A     -0.434304    32A     -0.403593

  @DF-RHF Final Energy:  -400.08535420790406

   => Energetics <=

    Nuclear Repulsion Energy =            400.1296366297338523
    One-Electron Energy =               -1339.1859701235348439
    Two-Electron Energy =                 538.9709792858969877
    Total Energy =                       -400.0853542079040608
  Basis Set: (AUG-CC-PVTZ AUX)
    Blend: AUG-CC-PVTZ-RI
    Molecular point group: c1

    Geometry (in Angstrom), charge = 0, multiplicity = 1:

       Center              X                  Y                   Z               Mass
    ------------   -----------------  -----------------  -----------------  -----------------
         O           -2.487476040982    -0.698189521021    -0.045836084640    15.994914619570
         O            0.014951959018    -1.340675521021    -0.532448084640    15.994914619570
         N            0.893364959018     0.302603478979     0.783028915360    14.003074004430
         C           -1.533452040982     0.255033478979     0.376655915360    12.000000000000
         C            2.275875959018    -0.101335521021     0.555354915360    12.000000000000
         C           -0.136156040982    -0.335262521021     0.177076915360    12.000000000000
         C           -1.684558040982     1.548174478979    -0.422241084640    12.000000000000
         C            2.833573959018     0.442814478979    -0.754039084640    12.000000000000
         H           -1.698404240982     0.465648978979     1.494554915360     1.007825032230
         H            2.864314959018     0.242356478979     1.410804915360     1.007825032230
         H            2.294019959018    -1.193489521021     0.550733915360     1.007825032230
         H            0.705499959018     1.151582478979     1.300714915360     1.007825032230
         H           -1.474310040982     1.348136478979    -1.476407084640     1.007825032230
         H           -1.008426040982     2.333378478979    -0.068203084640     1.007825032230
         H           -2.713267040982     1.904517478979    -0.335015084640     1.007825032230
         H            2.239635959018     0.067820478979    -1.590009084640     1.007825032230
         H            2.807637959018     1.535885478979    -0.764459084640     1.007825032230
         H            3.870152959018     0.121051478979    -0.892697084640     1.007825032230
         H           -1.958692040982    -1.367605521021    -0.531858084640     1.007825032230

  Basis Set: AUG-CC-PVTZ
    Blend: AUG-CC-PVTZ
  Basis Set: (AUG-CC-PVTZ AUX)
    Blend: AUG-CC-PVTZ-JKFIT
	 Reference Energy          =    -400.0853542079040608 [Eh]
	 Singles Energy            =      -0.0000000000000000 [Eh]
	 Same-Spin Energy          =      -0.4020968640776975 [Eh]
	 Opposite-Spin Energy      =      -1.3082253212422468 [Eh]
	 Correlation Energy        =      -1.7103221853199444 [Eh]
	 Total Energy              =    -401.7956763932240278 [Eh]

	 ================> DF-SCS-MP2 Energies <==================
	-----------------------------------------------------------
	 SCS Same-Spin Scale       =       0.3333333333333333 [-]
	 SCS Opposite-Spin Scale   =       1.2000000000000000 [-]
	 SCS Same-Spin Energy      =      -0.1340322880258992 [Eh]
	 SCS Opposite-Spin Energy  =      -1.5698703854906961 [Eh]
	 SCS Correlation Energy    =      -1.7039026735165952 [Eh]
	 SCS Total Energy          =    -401.7892568814206697 [Eh]
	-----------------------------------------------------------

  Dipole Moment: [D]
     X:     2.8614      Y:     3.1166      Z:     1.5758     Total:     4.5149

*** Psi4 exiting successfully. Buy a developer a beer!
