                               Psi4 1.3.2 release

  ==> Input File <==

--------------------------------------------------------------------------
#psi4
#
memory 32 gb

molecule  {
0 1
  O       -2.4925410    -0.6205970    -0.1535330
  O        0.0036459    -1.4046393    -0.3786312
  N        0.8919791     0.3600504     0.7307754
  C       -1.5404070     0.3017530     0.3325960
  C        2.2569670    -0.1011270     0.6035390
  C       -0.1490540    -0.3186880     0.1981930
  C       -1.6458490     1.6048030    -0.4506110
  C        2.8658230     0.2522360    -0.7461750
  H       -1.7322500     0.4923850     1.3997900
  H        2.8336360     0.3321260     1.4253690
  H        2.2399750    -1.1846720     0.7384180
  H        0.7096630     1.2770080     1.1428940
  H       -1.3913480     1.4204780    -1.4971700
  H       -0.9867360     2.3841060    -0.0548340
  H       -2.6752710     1.9656290    -0.4028710
  H        2.2847230    -0.2144000    -1.5438430
  H        2.8717410     1.3343490    -0.8997070
  H        3.8959980    -0.1107530    -0.8084670
  H       -1.9544520    -1.3731060    -0.4835650
units angstrom
no_reorient  #important for SAPT in psi4, default
symmetry c1  #important for SAPT in psi4, default
}

set PROPERTIES_ORIGIN ["COM"]
properties('MP2/aug-cc-pvtz', properties = ['dipole'])
--------------------------------------------------------------------------

    Molecular point group: c1
  Charge       = 0
  Multiplicity = 1
  Basis Set: AUG-CC-PVTZ
    Blend: AUG-CC-PVTZ
  Basis Set: (AUG-CC-PVTZ AUX)
    Blend: AUG-CC-PVTZ-JKFIT

    Orbital Energies [Eh]
    ---------------------

    Doubly Occupied:

       1A    -20.549647     2A    -20.532716     3A    -15.598811
       4A    -11.358846     5A    -11.299426     6A    -11.272728
       7A    -11.231660     8A    -11.222571     9A     -1.398435
      10A     -1.347730    11A     -1.245491    12A     -1.053267
      13A     -1.012555    14A     -0.903453    15A     -0.849538
      16A     -0.790794    17A     -0.745552    18A     -0.677340
      19A     -0.649300    20A     -0.641390    21A     -0.613435
      22A     -0.596183    23A     -0.577740    24A     -0.564073
      25A     -0.543046    26A     -0.534308    27A     -0.520943
      28A     -0.515294    29A     -0.501369    30A     -0.446412
      31A     -0.436515    32A     -0.402157

  @DF-RHF Final Energy:  -400.08730456906324

   => Energetics <=

    Nuclear Repulsion Energy =            400.7177056014354548
    One-Electron Energy =               -1340.3445710157013764
    Two-Electron Energy =                 539.5395608452026863
    Total Energy =                       -400.0873045690632352
  Basis Set: (AUG-CC-PVTZ AUX)
    Blend: AUG-CC-PVTZ-RI
    Molecular point group: c1

    Geometry (in Angstrom), charge = 0, multiplicity = 1:

       Center              X                  Y                   Z               Mass
    ------------   -----------------  -----------------  -----------------  -----------------
         O           -2.494880639567    -0.619646219124    -0.153362169521    15.994914619570
         O            0.001306260433    -1.403688519124    -0.378460369521    15.994914619570
         N            0.889639460433     0.361001180876     0.730946230479    14.003074004430
         C           -1.542746639567     0.302703780876     0.332766830479    12.000000000000
         C            2.254627360433    -0.100176219124     0.603709830479    12.000000000000
         C           -0.151393639567    -0.317737219124     0.198363830479    12.000000000000
         C           -1.648188639567     1.605753780876    -0.450440169521    12.000000000000
         C            2.863483360433     0.253186780876    -0.746004169521    12.000000000000
         H           -1.734589639567     0.493335780876     1.399960830479     1.007825032230
         H            2.831296360433     0.333076780876     1.425539830479     1.007825032230
         H            2.237635360433    -1.183721219124     0.738588830479     1.007825032230
         H            0.707323360433     1.277958780876     1.143064830479     1.007825032230
         H           -1.393687639567     1.421428780876    -1.496999169521     1.007825032230
         H           -0.989075639567     2.385056780876    -0.054663169521     1.007825032230
         H           -2.677610639567     1.966579780876    -0.402700169521     1.007825032230
         H            2.282383360433    -0.213449219124    -1.543672169521     1.007825032230
         H            2.869401360433     1.335299780876    -0.899536169521     1.007825032230
         H            3.893658360433    -0.109802219124    -0.808296169521     1.007825032230
         H           -1.956791639567    -1.372155219124    -0.483394169521     1.007825032230

  Basis Set: AUG-CC-PVTZ
    Blend: AUG-CC-PVTZ
  Basis Set: (AUG-CC-PVTZ AUX)
    Blend: AUG-CC-PVTZ-JKFIT
	 Reference Energy          =    -400.0873045690632352 [Eh]
	 Singles Energy            =      -0.0000000000000000 [Eh]
	 Same-Spin Energy          =      -0.4022308327948473 [Eh]
	 Opposite-Spin Energy      =      -1.3078294648752813 [Eh]
	 Correlation Energy        =      -1.7100602976701287 [Eh]
	 Total Energy              =    -401.7973648667333464 [Eh]

	 ================> DF-SCS-MP2 Energies <==================
	-----------------------------------------------------------
	 SCS Same-Spin Scale       =       0.3333333333333333 [-]
	 SCS Opposite-Spin Scale   =       1.2000000000000000 [-]
	 SCS Same-Spin Energy      =      -0.1340769442649491 [Eh]
	 SCS Opposite-Spin Energy  =      -1.5693953578503375 [Eh]
	 SCS Correlation Energy    =      -1.7034723021152867 [Eh]
	 SCS Total Energy          =    -401.7907768711785366 [Eh]
	-----------------------------------------------------------

  Dipole Moment: [D]
     X:     2.8365      Y:     3.1615      Z:     1.5625     Total:     4.5258

*** Psi4 exiting successfully. Buy a developer a beer!
