                               Psi4 1.4a2.dev612

  ==> Input File <==

--------------------------------------------------------------------------
#psi4
#
memory 32 gb

molecule  {
0 1
  O        3.1501630     0.3869830     0.0122970
  O        1.7226580    -1.3643080    -0.2059640
  C       -2.9163610     0.3476720    -0.5022120
  C       -1.4960630     0.8252950    -0.4074400
  C        0.8585340     0.8235180     0.4136200
  C       -0.5245990     0.2621860     0.3264500
  C       -3.2476580    -0.8824200     0.3361610
  C        1.9107340    -0.1856640     0.0271730
  H       -3.5825680     1.1749950    -0.2170990
  H       -3.1475630     0.1432210    -1.5599470
  H       -1.2553160     1.7190160    -0.9933200
  H        0.9787830     1.7133270    -0.2211670
  H        1.0972480     1.1531100     1.4329360
  H       -0.6720516    -0.7276686     0.7854727
  H       -4.2956480    -1.1625270     0.2123440
  H       -2.6314050    -1.7369230     0.0388270
  H       -3.0739380    -0.6897760     1.4001060
  H        3.7686820    -0.3352680    -0.2293440
units angstrom
no_reorient  #important for SAPT in psi4, default
symmetry c1  #important for SAPT in psi4, default
}

set PROPERTIES_ORIGIN ["COM"]
properties('MP2/aug-cc-pvtz', properties = ['dipole'])
--------------------------------------------------------------------------

    Molecular point group: c1
  Charge       = 0
  Multiplicity = 1
  Basis Set: AUG-CC-PVTZ
    Blend: AUG-CC-PVTZ
  Basis Set: (AUG-CC-PVTZ AUX)
    Blend: AUG-CC-PVTZ-JKFIT

    Orbital Energies [Eh]
    ---------------------

    Doubly Occupied:

       1A    -20.616120     2A    -20.553330     3A    -11.391041
       4A    -11.254212     5A    -11.235814     6A    -11.232674
       7A    -11.230107     8A    -11.214639     9A     -1.459084
      10A     -1.358711    11A     -1.102934    12A     -1.045519
      13A     -0.960143    14A     -0.869863    15A     -0.806145
      16A     -0.737905    17A     -0.703288    18A     -0.682706
      19A     -0.654129    20A     -0.626158    21A     -0.612152
      22A     -0.599015    23A     -0.581440    24A     -0.552724
      25A     -0.527610    26A     -0.498140    27A     -0.491283
      28A     -0.485290    29A     -0.480012    30A     -0.456444
      31A     -0.353088

  @DF-RHF Final Energy:  -382.90153279837716

   => Energetics <=

    Nuclear Repulsion Energy =            355.1195848033308948
    One-Electron Energy =               -1225.2987909752462201
    Two-Electron Energy =                 487.2776733735381640
    Total Energy =                       -382.9015327983771613
  Basis Set: (AUG-CC-PVTZ AUX)
    Blend: AUG-CC-PVTZ-RI
    Molecular point group: c1

    Geometry (in Angstrom), charge = 0, multiplicity = 1:

       Center              X                  Y                   Z               Mass
    ------------   -----------------  -----------------  -----------------  -----------------
         O            3.149800453030     0.387718406899     0.013338285880    15.994914619570
         O            1.722295453030    -1.363572593101    -0.204922714120    15.994914619570
         C           -2.916723546970     0.348407406899    -0.501170714120    12.000000000000
         C           -1.496425546970     0.826030406899    -0.406398714120    12.000000000000
         C            0.858171453030     0.824253406899     0.414661285880    12.000000000000
         C           -0.524961546970     0.262921406899     0.327491285880    12.000000000000
         C           -3.248020546970    -0.881684593101     0.337202285880    12.000000000000
         C            1.910371453030    -0.184928593101     0.028214285880    12.000000000000
         H           -3.582930546970     1.175730406899    -0.216057714120     1.007825032230
         H           -3.147925546970     0.143956406899    -1.558905714120     1.007825032230
         H           -1.255678546970     1.719751406899    -0.992278714120     1.007825032230
         H            0.978420453030     1.714062406899    -0.220125714120     1.007825032230
         H            1.096885453030     1.153845406899     1.433977285880     1.007825032230
         H           -0.672414146970    -0.726933193101     0.786513985880     1.007825032230
         H           -4.296010546970    -1.161791593101     0.213385285880     1.007825032230
         H           -2.631767546970    -1.736187593101     0.039868285880     1.007825032230
         H           -3.074300546970    -0.689040593101     1.401147285880     1.007825032230
         H            3.768319453030    -0.334532593101    -0.228302714120     1.007825032230

  Basis Set: AUG-CC-PVTZ
    Blend: AUG-CC-PVTZ
  Basis Set: (AUG-CC-PVTZ AUX)
    Blend: AUG-CC-PVTZ-JKFIT
	 Reference Energy          =    -382.9015327983771613 [Eh]
	 Singles Energy            =      -0.0000000000000000 [Eh]
	 Same-Spin Energy          =      -0.3832530685723232 [Eh]
	 Opposite-Spin Energy      =      -1.2547028913988503 [Eh]
	 Correlation Energy        =      -1.6379559599711735 [Eh]
	 Total Energy              =    -384.5394887583483410 [Eh]

	 ================> DF-SCS-MP2 Energies <==================
	-----------------------------------------------------------
	 SCS Same-Spin Scale       =       0.3333333333333333 [-]
	 SCS Opposite-Spin Scale   =       1.2000000000000000 [-]
	 SCS Same-Spin Energy      =      -0.1277510228574411 [Eh]
	 SCS Opposite-Spin Energy  =      -1.5056434696786203 [Eh]
	 SCS Correlation Energy    =      -1.6333944925360613 [Eh]
	 SCS Total Energy          =    -384.5349272909132310 [Eh]
	-----------------------------------------------------------

  Dipole Moment: [D]
     X:    -0.1388      Y:     1.3477      Z:     0.1293     Total:     1.3610

*** Psi4 exiting successfully. Buy a developer a beer!
