                               Psi4 1.4a2.dev612

  ==> Input File <==

--------------------------------------------------------------------------
#psi4
#
memory 32 gb

molecule  {
0 1
  O        3.1501630     0.3869830     0.0122970
  O        1.7226580    -1.3643080    -0.2059640
  C       -2.9163610     0.3476720    -0.5022120
  C       -1.4960630     0.8252950    -0.4074400
  C        0.8458704     0.8458845     0.3169796
  C       -0.5245990     0.2621860     0.3264500
  C       -3.2476580    -0.8824200     0.3361610
  C        1.9107340    -0.1856640     0.0271730
  H       -3.5825680     1.1749950    -0.2170990
  H       -3.1475630     0.1432210    -1.5599470
  H       -1.2553160     1.7190160    -0.9933200
  H        0.9787830     1.7133270    -0.2211670
  H        1.0972480     1.1531100     1.4329360
  H       -0.7130820    -0.6444280     0.9033180
  H       -4.2956480    -1.1625270     0.2123440
  H       -2.6314050    -1.7369230     0.0388270
  H       -3.0739380    -0.6897760     1.4001060
  H        3.7686820    -0.3352680    -0.2293440
units angstrom
no_reorient  #important for SAPT in psi4, default
symmetry c1  #important for SAPT in psi4, default
}

set PROPERTIES_ORIGIN ["COM"]
properties('MP2/aug-cc-pvtz', properties = ['dipole'])
--------------------------------------------------------------------------

    Molecular point group: c1
  Charge       = 0
  Multiplicity = 1
  Basis Set: AUG-CC-PVTZ
    Blend: AUG-CC-PVTZ
  Basis Set: (AUG-CC-PVTZ AUX)
    Blend: AUG-CC-PVTZ-JKFIT

    Orbital Energies [Eh]
    ---------------------

    Doubly Occupied:

       1A    -20.615438     2A    -20.552560     3A    -11.391076
       4A    -11.256320     5A    -11.234517     6A    -11.232644
       7A    -11.229480     8A    -11.215006     9A     -1.458435
      10A     -1.358008    11A     -1.104965    12A     -1.045420
      13A     -0.959873    14A     -0.870373    15A     -0.805083
      16A     -0.745551    17A     -0.702997    18A     -0.683497
      19A     -0.647175    20A     -0.630670    21A     -0.612050
      22A     -0.601953    23A     -0.576426    24A     -0.543086
      25A     -0.540529    26A     -0.498204    27A     -0.489851
      28A     -0.486871    29A     -0.478570    30A     -0.455866
      31A     -0.351280

  @DF-RHF Final Energy:  -382.89391932266392

   => Energetics <=

    Nuclear Repulsion Energy =            355.2621085590970438
    One-Electron Energy =               -1225.5645042580283643
    Two-Electron Energy =                 487.4084763762674584
    Total Energy =                       -382.8939193226639190
  Basis Set: (AUG-CC-PVTZ AUX)
    Blend: AUG-CC-PVTZ-RI
    Molecular point group: c1

    Geometry (in Angstrom), charge = 0, multiplicity = 1:

       Center              X                  Y                   Z               Mass
    ------------   -----------------  -----------------  -----------------  -----------------
         O            3.151495183624     0.384629988459     0.022463690294    15.994914619570
         O            1.723990183624    -1.366661011541    -0.195797309706    15.994914619570
         C           -2.915028816376     0.345318988459    -0.492045309706    12.000000000000
         C           -1.494730816376     0.822941988459    -0.397273309706    12.000000000000
         C            0.847202583624     0.843531488459     0.327146290294    12.000000000000
         C           -0.523266816376     0.259832988459     0.336616690294    12.000000000000
         C           -3.246325816376    -0.884773011541     0.346327690294    12.000000000000
         C            1.912066183624    -0.188017011541     0.037339690294    12.000000000000
         H           -3.581235816376     1.172641988459    -0.206932309706     1.007825032230
         H           -3.146230816376     0.140867988459    -1.549780309706     1.007825032230
         H           -1.253983816376     1.716662988459    -0.983153309706     1.007825032230
         H            0.980115183624     1.710973988459    -0.211000309706     1.007825032230
         H            1.098580183624     1.150756988459     1.443102690294     1.007825032230
         H           -0.711749816376    -0.646781011541     0.913484690294     1.007825032230
         H           -4.294315816376    -1.164880011541     0.222510690294     1.007825032230
         H           -2.630072816376    -1.739276011541     0.048993690294     1.007825032230
         H           -3.072605816376    -0.692129011541     1.410272690294     1.007825032230
         H            3.770014183624    -0.337621011541    -0.219177309706     1.007825032230

  Basis Set: AUG-CC-PVTZ
    Blend: AUG-CC-PVTZ
  Basis Set: (AUG-CC-PVTZ AUX)
    Blend: AUG-CC-PVTZ-JKFIT
	 Reference Energy          =    -382.8939193226639190 [Eh]
	 Singles Energy            =      -0.0000000000000000 [Eh]
	 Same-Spin Energy          =      -0.3833666015207833 [Eh]
	 Opposite-Spin Energy      =      -1.2548000097860101 [Eh]
	 Correlation Energy        =      -1.6381666113067934 [Eh]
	 Total Energy              =    -384.5320859339707340 [Eh]

	 ================> DF-SCS-MP2 Energies <==================
	-----------------------------------------------------------
	 SCS Same-Spin Scale       =       0.3333333333333333 [-]
	 SCS Opposite-Spin Scale   =       1.2000000000000000 [-]
	 SCS Same-Spin Energy      =      -0.1277888671735944 [Eh]
	 SCS Opposite-Spin Energy  =      -1.5057600117432122 [Eh]
	 SCS Correlation Energy    =      -1.6335488789168067 [Eh]
	 SCS Total Energy          =    -384.5274682015807457 [Eh]
	-----------------------------------------------------------

  Dipole Moment: [D]
     X:    -0.1912      Y:     1.3986      Z:     0.1476     Total:     1.4193

*** Psi4 exiting successfully. Buy a developer a beer!
