                               Psi4 1.4a2.dev612

  ==> Input File <==

--------------------------------------------------------------------------
#psi4
#
memory 32 gb

molecule  {
0 1
  O        3.1501630     0.3869830     0.0122970
  O        1.7226580    -1.3643080    -0.2059640
  C       -2.9163610     0.3476720    -0.5022120
  C       -1.4960630     0.8252950    -0.4074400
  C        0.8585340     0.8235180     0.4136200
  C       -0.5245990     0.2621860     0.3264500
  C       -3.2476580    -0.8824200     0.3361610
  C        1.9107340    -0.1856640     0.0271730
  H       -3.5825680     1.1749950    -0.2170990
  H       -3.1475630     0.1432210    -1.5599470
  H       -1.3174093     1.8637564    -0.7991689
  H        0.9787830     1.7133270    -0.2211670
  H        1.0972480     1.1531100     1.4329360
  H       -0.7130820    -0.6444280     0.9033180
  H       -4.2956480    -1.1625270     0.2123440
  H       -2.6314050    -1.7369230     0.0388270
  H       -3.0739380    -0.6897760     1.4001060
  H        3.7686820    -0.3352680    -0.2293440
units angstrom
no_reorient  #important for SAPT in psi4, default
symmetry c1  #important for SAPT in psi4, default
}

set PROPERTIES_ORIGIN ["COM"]
properties('MP2/aug-cc-pvtz', properties = ['dipole'])
--------------------------------------------------------------------------

    Molecular point group: c1
  Charge       = 0
  Multiplicity = 1
  Basis Set: AUG-CC-PVTZ
    Blend: AUG-CC-PVTZ
  Basis Set: (AUG-CC-PVTZ AUX)
    Blend: AUG-CC-PVTZ-JKFIT

    Orbital Energies [Eh]
    ---------------------

    Doubly Occupied:

       1A    -20.615876     2A    -20.552833     3A    -11.390892
       4A    -11.254483     5A    -11.238201     6A    -11.233557
       7A    -11.230109     8A    -11.214909     9A     -1.458737
      10A     -1.358215    11A     -1.103053    12A     -1.045645
      13A     -0.959904    14A     -0.870023    15A     -0.805975
      16A     -0.736532    17A     -0.702643    18A     -0.681944
      19A     -0.654566    20A     -0.625285    21A     -0.612482
      22A     -0.596601    23A     -0.582410    24A     -0.552808
      25A     -0.528356    26A     -0.499584    27A     -0.491444
      28A     -0.483976    29A     -0.477676    30A     -0.455331
      31A     -0.353944

  @DF-RHF Final Energy:  -382.89908245929712

   => Energetics <=

    Nuclear Repulsion Energy =            354.9185504198645162
    One-Electron Energy =               -1224.8992765203086037
    Two-Electron Energy =                 487.0816436411470249
    Total Energy =                       -382.8990824592971194
  Basis Set: (AUG-CC-PVTZ AUX)
    Blend: AUG-CC-PVTZ-RI
    Molecular point group: c1

    Geometry (in Angstrom), charge = 0, multiplicity = 1:

       Center              X                  Y                   Z               Mass
    ------------   -----------------  -----------------  -----------------  -----------------
         O            3.150711581250     0.385704127711     0.010581705923    15.994914619570
         O            1.723206581250    -1.365586872289    -0.207679294077    15.994914619570
         C           -2.915812418750     0.346393127711    -0.503927294077    12.000000000000
         C           -1.495514418750     0.824016127711    -0.409155294077    12.000000000000
         C            0.859082581250     0.822239127711     0.411904705923    12.000000000000
         C           -0.524050418750     0.260907127711     0.324734705923    12.000000000000
         C           -3.247109418750    -0.883698872289     0.334445705923    12.000000000000
         C            1.911282581250    -0.186942872289     0.025457705923    12.000000000000
         H           -3.582019418750     1.173716127711    -0.218814294077     1.007825032230
         H           -3.147014418750     0.141942127711    -1.561662294077     1.007825032230
         H           -1.316860718750     1.862477527711    -0.800884194077     1.007825032230
         H            0.979331581250     1.712048127711    -0.222882294077     1.007825032230
         H            1.097796581250     1.151831127711     1.431220705923     1.007825032230
         H           -0.712533418750    -0.645706872289     0.901602705923     1.007825032230
         H           -4.295099418750    -1.163805872289     0.210628705923     1.007825032230
         H           -2.630856418750    -1.738201872289     0.037111705923     1.007825032230
         H           -3.073389418750    -0.691054872289     1.398390705923     1.007825032230
         H            3.769230581250    -0.336546872289    -0.231059294077     1.007825032230

  Basis Set: AUG-CC-PVTZ
    Blend: AUG-CC-PVTZ
  Basis Set: (AUG-CC-PVTZ AUX)
    Blend: AUG-CC-PVTZ-JKFIT
	 Reference Energy          =    -382.8990824592971194 [Eh]
	 Singles Energy            =      -0.0000000000000000 [Eh]
	 Same-Spin Energy          =      -0.3833310031448027 [Eh]
	 Opposite-Spin Energy      =      -1.2550819989349886 [Eh]
	 Correlation Energy        =      -1.6384130020797913 [Eh]
	 Total Energy              =    -384.5374954613769205 [Eh]

	 ================> DF-SCS-MP2 Energies <==================
	-----------------------------------------------------------
	 SCS Same-Spin Scale       =       0.3333333333333333 [-]
	 SCS Opposite-Spin Scale   =       1.2000000000000000 [-]
	 SCS Same-Spin Energy      =      -0.1277770010482676 [Eh]
	 SCS Opposite-Spin Energy  =      -1.5060983987219863 [Eh]
	 SCS Correlation Energy    =      -1.6338753997702538 [Eh]
	 SCS Total Energy          =    -384.5329578590673805 [Eh]
	-----------------------------------------------------------

  Dipole Moment: [D]
     X:    -0.2073      Y:     1.4340      Z:     0.3446     Total:     1.4893

*** Psi4 exiting successfully. Buy a developer a beer!
