                               Psi4 1.4a2.dev612

  ==> Input File <==

--------------------------------------------------------------------------
#psi4
#
memory 32 gb

molecule  {
0 1
  O        3.1501630     0.3869830     0.0122970
  O        1.7226580    -1.3643080    -0.2059640
  C       -2.9163610     0.3476720    -0.5022120
  C       -1.4960630     0.8252950    -0.4074400
  C        0.8585340     0.8235180     0.4136200
  C       -0.5245990     0.2621860     0.3264500
  C       -3.2476580    -0.8824200     0.3361610
  C        1.9107340    -0.1856640     0.0271730
  H       -3.5825680     1.1749950    -0.2170990
  H       -3.1475630     0.1432210    -1.5599470
  H       -1.3049906     1.8348083    -0.8379991
  H        0.9787830     1.7133270    -0.2211670
  H        1.0972480     1.1531100     1.4329360
  H       -0.7130820    -0.6444280     0.9033180
  H       -4.2956480    -1.1625270     0.2123440
  H       -2.6314050    -1.7369230     0.0388270
  H       -3.0739380    -0.6897760     1.4001060
  H        3.7686820    -0.3352680    -0.2293440
units angstrom
no_reorient  #important for SAPT in psi4, default
symmetry c1  #important for SAPT in psi4, default
}

set PROPERTIES_ORIGIN ["COM"]
properties('MP2/aug-cc-pvtz', properties = ['dipole'])
--------------------------------------------------------------------------

    Molecular point group: c1
  Charge       = 0
  Multiplicity = 1
  Basis Set: AUG-CC-PVTZ
    Blend: AUG-CC-PVTZ
  Basis Set: (AUG-CC-PVTZ AUX)
    Blend: AUG-CC-PVTZ-JKFIT

    Orbital Energies [Eh]
    ---------------------

    Doubly Occupied:

       1A    -20.615817     2A    -20.552785     3A    -11.390771
       4A    -11.254397     5A    -11.237236     6A    -11.233116
       7A    -11.230100     8A    -11.214858     9A     -1.458681
      10A     -1.358162    11A     -1.103071    12A     -1.045590
      13A     -0.960008    14A     -0.870086    15A     -0.805938
      16A     -0.737442    17A     -0.702718    18A     -0.682016
      19A     -0.654480    20A     -0.625604    21A     -0.612351
      22A     -0.597434    23A     -0.582380    24A     -0.552727
      25A     -0.528233    26A     -0.499174    27A     -0.491389
      28A     -0.484139    29A     -0.478645    30A     -0.455418
      31A     -0.354058

  @DF-RHF Final Energy:  -382.90064255490302

   => Energetics <=

    Nuclear Repulsion Energy =            354.9658172344102809
    One-Electron Energy =               -1224.9952638913125611
    Two-Electron Energy =                 487.1288041019993216
    Total Energy =                       -382.9006425549030155
  Basis Set: (AUG-CC-PVTZ AUX)
    Blend: AUG-CC-PVTZ-RI
    Molecular point group: c1

    Geometry (in Angstrom), charge = 0, multiplicity = 1:

       Center              X                  Y                   Z               Mass
    ------------   -----------------  -----------------  -----------------  -----------------
         O            3.150601858383     0.385959892689     0.010924782161    15.994914619570
         O            1.723096858383    -1.365331107311    -0.207336217839    15.994914619570
         C           -2.915922141617     0.346648892689    -0.503584217839    12.000000000000
         C           -1.495624141617     0.824271892689    -0.408812217839    12.000000000000
         C            0.858972858383     0.822494892689     0.412247782161    12.000000000000
         C           -0.524160141617     0.261162892689     0.325077782161    12.000000000000
         C           -3.247219141617    -0.883443107311     0.334788782161    12.000000000000
         C            1.911172858383    -0.186687107311     0.025800782161    12.000000000000
         H           -3.582129141617     1.173971892689    -0.218471217839     1.007825032230
         H           -3.147124141617     0.142197892689    -1.561319217839     1.007825032230
         H           -1.304551741617     1.833785192689    -0.839371317839     1.007825032230
         H            0.979221858383     1.712303892689    -0.222539217839     1.007825032230
         H            1.097686858383     1.152086892689     1.431563782161     1.007825032230
         H           -0.712643141617    -0.645451107311     0.901945782161     1.007825032230
         H           -4.295209141617    -1.163550107311     0.210971782161     1.007825032230
         H           -2.630966141617    -1.737946107311     0.037454782161     1.007825032230
         H           -3.073499141617    -0.690799107311     1.398733782161     1.007825032230
         H            3.769120858383    -0.336291107311    -0.230716217839     1.007825032230

  Basis Set: AUG-CC-PVTZ
    Blend: AUG-CC-PVTZ
  Basis Set: (AUG-CC-PVTZ AUX)
    Blend: AUG-CC-PVTZ-JKFIT
	 Reference Energy          =    -382.9006425549030155 [Eh]
	 Singles Energy            =      -0.0000000000000000 [Eh]
	 Same-Spin Energy          =      -0.3832608417645473 [Eh]
	 Opposite-Spin Energy      =      -1.2548805525510691 [Eh]
	 Correlation Energy        =      -1.6381413943156165 [Eh]
	 Total Energy              =    -384.5387839492186117 [Eh]

	 ================> DF-SCS-MP2 Energies <==================
	-----------------------------------------------------------
	 SCS Same-Spin Scale       =       0.3333333333333333 [-]
	 SCS Opposite-Spin Scale   =       1.2000000000000000 [-]
	 SCS Same-Spin Energy      =      -0.1277536139215157 [Eh]
	 SCS Opposite-Spin Energy  =      -1.5058566630612829 [Eh]
	 SCS Correlation Energy    =      -1.6336102769827985 [Eh]
	 SCS Total Energy          =    -384.5342528318857944 [Eh]
	-----------------------------------------------------------

  Dipole Moment: [D]
     X:    -0.2028      Y:     1.4315      Z:     0.3136     Total:     1.4794

*** Psi4 exiting successfully. Buy a developer a beer!
