                               Psi4 1.4a2.dev612

  ==> Input File <==

--------------------------------------------------------------------------
#psi4
#
memory 32 gb

molecule  {
0 1
  O        3.1501630     0.3869830     0.0122970
  O        1.7226580    -1.3643080    -0.2059640
  C       -2.9163610     0.3476720    -0.5022120
  C       -1.4960630     0.8252950    -0.4074400
  C        0.8395386     0.8570677     0.2686593
  C       -0.5245990     0.2621860     0.3264500
  C       -3.2476580    -0.8824200     0.3361610
  C        1.9107340    -0.1856640     0.0271730
  H       -3.5825680     1.1749950    -0.2170990
  H       -3.1475630     0.1432210    -1.5599470
  H       -1.2553160     1.7190160    -0.9933200
  H        0.9787830     1.7133270    -0.2211670
  H        1.0972480     1.1531100     1.4329360
  H       -0.7130820    -0.6444280     0.9033180
  H       -4.2956480    -1.1625270     0.2123440
  H       -2.6314050    -1.7369230     0.0388270
  H       -3.0739380    -0.6897760     1.4001060
  H        3.7686820    -0.3352680    -0.2293440
units angstrom
no_reorient  #important for SAPT in psi4, default
symmetry c1  #important for SAPT in psi4, default
}

set PROPERTIES_ORIGIN ["COM"]
properties('MP2/aug-cc-pvtz', properties = ['dipole'])
--------------------------------------------------------------------------

    Molecular point group: c1
  Charge       = 0
  Multiplicity = 1
  Basis Set: AUG-CC-PVTZ
    Blend: AUG-CC-PVTZ
  Basis Set: (AUG-CC-PVTZ AUX)
    Blend: AUG-CC-PVTZ-JKFIT

    Orbital Energies [Eh]
    ---------------------

    Doubly Occupied:

       1A    -20.615245     2A    -20.552533     3A    -11.391872
       4A    -11.258253     5A    -11.234657     6A    -11.232931
       7A    -11.229260     8A    -11.215199     9A     -1.458330
      10A     -1.357991    11A     -1.105931    12A     -1.045445
      13A     -0.959854    14A     -0.870404    15A     -0.805663
      16A     -0.749614    17A     -0.703061    18A     -0.684683
      19A     -0.645199    20A     -0.632664    21A     -0.612089
      22A     -0.603432    23A     -0.574646    24A     -0.545404
      25A     -0.536660    26A     -0.498262    27A     -0.489457
      28A     -0.487435    29A     -0.476912    30A     -0.455614
      31A     -0.349557

  @DF-RHF Final Energy:  -382.88217302737007

   => Energetics <=

    Nuclear Repulsion Energy =            355.3092998182499969
    One-Electron Energy =               -1225.6264306738964933
    Two-Electron Energy =                 487.4349578282764242
    Total Energy =                       -382.8821730273700723
  Basis Set: (AUG-CC-PVTZ AUX)
    Blend: AUG-CC-PVTZ-RI
    Molecular point group: c1

    Geometry (in Angstrom), charge = 0, multiplicity = 1:

       Center              X                  Y                   Z               Mass
    ------------   -----------------  -----------------  -----------------  -----------------
         O            3.152161291095     0.383453512090     0.027547001964    15.994914619570
         O            1.724656291095    -1.367837487910    -0.190713998036    15.994914619570
         C           -2.914362708905     0.344142512090    -0.486961998036    12.000000000000
         C           -1.494064708905     0.821765512090    -0.392189998036    12.000000000000
         C            0.841536891095     0.853538212090     0.283909301964    12.000000000000
         C           -0.522600708905     0.258656512090     0.341700001964    12.000000000000
         C           -3.245659708905    -0.885949487910     0.351411001964    12.000000000000
         C            1.912732291095    -0.189193487910     0.042423001964    12.000000000000
         H           -3.580569708905     1.171465512090    -0.201848998036     1.007825032230
         H           -3.145564708905     0.139691512090    -1.544696998036     1.007825032230
         H           -1.253317708905     1.715486512090    -0.978069998036     1.007825032230
         H            0.980781291095     1.709797512090    -0.205916998036     1.007825032230
         H            1.099246291095     1.149580512090     1.448186001964     1.007825032230
         H           -0.711083708905    -0.647957487910     0.918568001964     1.007825032230
         H           -4.293649708905    -1.166056487910     0.227594001964     1.007825032230
         H           -2.629406708905    -1.740452487910     0.054077001964     1.007825032230
         H           -3.071939708905    -0.693305487910     1.415356001964     1.007825032230
         H            3.770680291095    -0.338797487910    -0.214093998036     1.007825032230

  Basis Set: AUG-CC-PVTZ
    Blend: AUG-CC-PVTZ
  Basis Set: (AUG-CC-PVTZ AUX)
    Blend: AUG-CC-PVTZ-JKFIT
	 Reference Energy          =    -382.8821730273700723 [Eh]
	 Singles Energy            =      -0.0000000000000000 [Eh]
	 Same-Spin Energy          =      -0.3835924409099877 [Eh]
	 Opposite-Spin Energy      =      -1.2553404962228067 [Eh]
	 Correlation Energy        =      -1.6389329371327945 [Eh]
	 Total Energy              =    -384.5211059645028513 [Eh]

	 ================> DF-SCS-MP2 Energies <==================
	-----------------------------------------------------------
	 SCS Same-Spin Scale       =       0.3333333333333333 [-]
	 SCS Opposite-Spin Scale   =       1.2000000000000000 [-]
	 SCS Same-Spin Energy      =      -0.1278641469699959 [Eh]
	 SCS Opposite-Spin Energy  =      -1.5064085954673681 [Eh]
	 SCS Correlation Energy    =      -1.6342727424373640 [Eh]
	 SCS Total Energy          =    -384.5164457698074330 [Eh]
	-----------------------------------------------------------

  Dipole Moment: [D]
     X:    -0.2057      Y:     1.3944      Z:     0.1152     Total:     1.4142

*** Psi4 exiting successfully. Buy a developer a beer!
