                               Psi4 1.4a2.dev612

  ==> Input File <==

--------------------------------------------------------------------------
#psi4
#
memory 32 gb

molecule  {
0 1
  O        3.1501630     0.3869830     0.0122970
  O        1.7226580    -1.3643080    -0.2059640
  C       -2.9163610     0.3476720    -0.5022120
  C       -1.4960630     0.8252950    -0.4074400
  C        0.8585340     0.8235180     0.4136200
  C       -0.5245990     0.2621860     0.3264500
  C       -3.2476580    -0.8824200     0.3361610
  C        1.9107340    -0.1856640     0.0271730
  H       -3.5825680     1.1749950    -0.2170990
  H       -3.1475630     0.1432210    -1.5599470
  H       -1.2925720     1.8058602    -0.8768294
  H        0.9787830     1.7133270    -0.2211670
  H        1.0972480     1.1531100     1.4329360
  H       -0.7130820    -0.6444280     0.9033180
  H       -4.2956480    -1.1625270     0.2123440
  H       -2.6314050    -1.7369230     0.0388270
  H       -3.0739380    -0.6897760     1.4001060
  H        3.7686820    -0.3352680    -0.2293440
units angstrom
no_reorient  #important for SAPT in psi4, default
symmetry c1  #important for SAPT in psi4, default
}

set PROPERTIES_ORIGIN ["COM"]
properties('MP2/aug-cc-pvtz', properties = ['dipole'])
--------------------------------------------------------------------------

    Molecular point group: c1
  Charge       = 0
  Multiplicity = 1
  Basis Set: AUG-CC-PVTZ
    Blend: AUG-CC-PVTZ
  Basis Set: (AUG-CC-PVTZ AUX)
    Blend: AUG-CC-PVTZ-JKFIT

    Orbital Energies [Eh]
    ---------------------

    Doubly Occupied:

       1A    -20.615774     2A    -20.552758     3A    -11.390671
       4A    -11.254332     5A    -11.236482     6A    -11.232768
       7A    -11.230095     8A    -11.214819     9A     -1.458642
      10A     -1.358129    11A     -1.103091    12A     -1.045549
      13A     -0.960098    14A     -0.870143    15A     -0.805918
      16A     -0.738183    17A     -0.702788    18A     -0.682096
      19A     -0.654406    20A     -0.625866    21A     -0.612248
      22A     -0.598099    23A     -0.582348    24A     -0.552668
      25A     -0.528135    26A     -0.498807    27A     -0.491352
      28A     -0.484349    29A     -0.479376    30A     -0.455503
      31A     -0.354130

  @DF-RHF Final Energy:  -382.90179338360201

   => Energetics <=

    Nuclear Repulsion Energy =            355.0052630466431651
    One-Electron Energy =               -1225.0748643558208641
    Two-Electron Energy =                 487.1678079255756302
    Total Energy =                       -382.9017933836020120
  Basis Set: (AUG-CC-PVTZ AUX)
    Blend: AUG-CC-PVTZ-RI
    Molecular point group: c1

    Geometry (in Angstrom), charge = 0, multiplicity = 1:

       Center              X                  Y                   Z               Mass
    ------------   -----------------  -----------------  -----------------  -----------------
         O            3.150492136400     0.386215657666     0.011267859282    15.994914619570
         O            1.722987136400    -1.365075342334    -0.206993140718    15.994914619570
         C           -2.916031863600     0.346904657666    -0.503241140718    12.000000000000
         C           -1.495733863600     0.824527657666    -0.408469140718    12.000000000000
         C            0.858863136400     0.822750657666     0.412590859282    12.000000000000
         C           -0.524269863600     0.261418657666     0.325420859282    12.000000000000
         C           -3.247328863600    -0.883187342334     0.335131859282    12.000000000000
         C            1.911063136400    -0.186431342334     0.026143859282    12.000000000000
         H           -3.582238863600     1.174227657666    -0.218128140718     1.007825032230
         H           -3.147233863600     0.142453657666    -1.560976140718     1.007825032230
         H           -1.292242863600     1.805092857666    -0.877858540718     1.007825032230
         H            0.979112136400     1.712559657666    -0.222196140718     1.007825032230
         H            1.097577136400     1.152342657666     1.431906859282     1.007825032230
         H           -0.712752863600    -0.645195342334     0.902288859282     1.007825032230
         H           -4.295318863600    -1.163294342334     0.211314859282     1.007825032230
         H           -2.631075863600    -1.737690342334     0.037797859282     1.007825032230
         H           -3.073608863600    -0.690543342334     1.399076859282     1.007825032230
         H            3.769011136400    -0.336035342334    -0.230373140718     1.007825032230

  Basis Set: AUG-CC-PVTZ
    Blend: AUG-CC-PVTZ
  Basis Set: (AUG-CC-PVTZ AUX)
    Blend: AUG-CC-PVTZ-JKFIT
	 Reference Energy          =    -382.9017933836020120 [Eh]
	 Singles Energy            =      -0.0000000000000000 [Eh]
	 Same-Spin Energy          =      -0.3832054961961912 [Eh]
	 Opposite-Spin Energy      =      -1.2547242251674999 [Eh]
	 Correlation Energy        =      -1.6379297213636912 [Eh]
	 Total Energy              =    -384.5397231049657307 [Eh]

	 ================> DF-SCS-MP2 Energies <==================
	-----------------------------------------------------------
	 SCS Same-Spin Scale       =       0.3333333333333333 [-]
	 SCS Opposite-Spin Scale   =       1.2000000000000000 [-]
	 SCS Same-Spin Energy      =      -0.1277351653987304 [Eh]
	 SCS Opposite-Spin Energy  =      -1.5056690702009998 [Eh]
	 SCS Correlation Energy    =      -1.6334042355997302 [Eh]
	 SCS Total Energy          =    -384.5351976192017673 [Eh]
	-----------------------------------------------------------

  Dipole Moment: [D]
     X:    -0.1976      Y:     1.4259      Z:     0.2842     Total:     1.4674

*** Psi4 exiting successfully. Buy a developer a beer!
