                               Psi4 1.4a2.dev612

  ==> Input File <==

--------------------------------------------------------------------------
#psi4
#
memory 32 gb

molecule  {
0 1
  O        3.1501630     0.3869830     0.0122970
  O        1.7226580    -1.3643080    -0.2059640
  C       -2.9163610     0.3476720    -0.5022120
  C       -1.4960630     0.8252950    -0.4074400
  C        0.8522022     0.8347012     0.3652998
  C       -0.5245990     0.2621860     0.3264500
  C       -3.2476580    -0.8824200     0.3361610
  C        1.9107340    -0.1856640     0.0271730
  H       -3.5825680     1.1749950    -0.2170990
  H       -3.1475630     0.1432210    -1.5599470
  H       -1.2553160     1.7190160    -0.9933200
  H        0.9787830     1.7133270    -0.2211670
  H        1.0972480     1.1531100     1.4329360
  H       -0.7130820    -0.6444280     0.9033180
  H       -4.2956480    -1.1625270     0.2123440
  H       -2.6314050    -1.7369230     0.0388270
  H       -3.0739380    -0.6897760     1.4001060
  H        3.7686820    -0.3352680    -0.2293440
units angstrom
no_reorient  #important for SAPT in psi4, default
symmetry c1  #important for SAPT in psi4, default
}

set PROPERTIES_ORIGIN ["COM"]
properties('MP2/aug-cc-pvtz', properties = ['dipole'])
--------------------------------------------------------------------------

    Molecular point group: c1
  Charge       = 0
  Multiplicity = 1
  Basis Set: AUG-CC-PVTZ
    Blend: AUG-CC-PVTZ
  Basis Set: (AUG-CC-PVTZ AUX)
    Blend: AUG-CC-PVTZ-JKFIT

    Orbital Energies [Eh]
    ---------------------

    Doubly Occupied:

       1A    -20.615604     2A    -20.552648     3A    -11.390617
       4A    -11.254993     5A    -11.234907     6A    -11.232342
       7A    -11.229757     8A    -11.214861     9A     -1.458537
      10A     -1.358059    11A     -1.104030    12A     -1.045441
      13A     -0.959999    14A     -0.870321    15A     -0.805214
      16A     -0.741967    17A     -0.702962    18A     -0.682610
      19A     -0.650398    20A     -0.628378    21A     -0.612066
      22A     -0.600421    23A     -0.578977    24A     -0.548620
      25A     -0.534630    26A     -0.498186    27A     -0.490526
      28A     -0.485987    29A     -0.479695    30A     -0.455933
      31A     -0.352771

  @DF-RHF Final Energy:  -382.90097333383079

   => Energetics <=

    Nuclear Repulsion Energy =            355.1830582406759618
    One-Electron Energy =               -1225.4251495006697041
    Two-Electron Energy =                 487.3411179261628945
    Total Energy =                       -382.9009733338307910
  Basis Set: (AUG-CC-PVTZ AUX)
    Blend: AUG-CC-PVTZ-RI
    Molecular point group: c1

    Geometry (in Angstrom), charge = 0, multiplicity = 1:

       Center              X                  Y                   Z               Mass
    ------------   -----------------  -----------------  -----------------  -----------------
         O            3.150829076153     0.385806475347     0.017380389144    15.994914619570
         O            1.723324076153    -1.365484524653    -0.200880610856    15.994914619570
         C           -2.915694923847     0.346495475347    -0.497128610856    12.000000000000
         C           -1.495396923847     0.824118475347    -0.402356610856    12.000000000000
         C            0.852868276153     0.833524675347     0.370383189144    12.000000000000
         C           -0.523932923847     0.261009475347     0.331533389144    12.000000000000
         C           -3.246991923847    -0.883596524653     0.341244389144    12.000000000000
         C            1.911400076153    -0.186840524653     0.032256389144    12.000000000000
         H           -3.581901923847     1.173818475347    -0.212015610856     1.007825032230
         H           -3.146896923847     0.142044475347    -1.554863610856     1.007825032230
         H           -1.254649923847     1.717839475347    -0.988236610856     1.007825032230
         H            0.979449076153     1.712150475347    -0.216083610856     1.007825032230
         H            1.097914076153     1.151933475347     1.438019389144     1.007825032230
         H           -0.712415923847    -0.645604524653     0.908401389144     1.007825032230
         H           -4.294981923847    -1.163703524653     0.217427389144     1.007825032230
         H           -2.630738923847    -1.738099524653     0.043910389144     1.007825032230
         H           -3.073271923847    -0.690952524653     1.405189389144     1.007825032230
         H            3.769348076153    -0.336444524653    -0.224260610856     1.007825032230

  Basis Set: AUG-CC-PVTZ
    Blend: AUG-CC-PVTZ
  Basis Set: (AUG-CC-PVTZ AUX)
    Blend: AUG-CC-PVTZ-JKFIT
	 Reference Energy          =    -382.9009733338307910 [Eh]
	 Singles Energy            =      -0.0000000000000000 [Eh]
	 Same-Spin Energy          =      -0.3832135662747231 [Eh]
	 Opposite-Spin Energy      =      -1.2545314933621845 [Eh]
	 Correlation Energy        =      -1.6377450596369076 [Eh]
	 Total Energy              =    -384.5387183934677182 [Eh]

	 ================> DF-SCS-MP2 Energies <==================
	-----------------------------------------------------------
	 SCS Same-Spin Scale       =       0.3333333333333333 [-]
	 SCS Opposite-Spin Scale   =       1.2000000000000000 [-]
	 SCS Same-Spin Energy      =      -0.1277378554249077 [Eh]
	 SCS Opposite-Spin Energy  =      -1.5054377920346214 [Eh]
	 SCS Correlation Energy    =      -1.6331756474595291 [Eh]
	 SCS Total Energy          =    -384.5341489812903433 [Eh]
	-----------------------------------------------------------

  Dipole Moment: [D]
     X:    -0.1819      Y:     1.3976      Z:     0.1782     Total:     1.4206

*** Psi4 exiting successfully. Buy a developer a beer!
