                               Psi4 1.4a2.dev612

  ==> Input File <==

--------------------------------------------------------------------------
#psi4
#
memory 32 gb

molecule  {
0 1
  O        3.1501630     0.3869830     0.0122970
  O        1.7226580    -1.3643080    -0.2059640
  C       -2.9163610     0.3476720    -0.5022120
  C       -1.4960630     0.8252950    -0.4074400
  C        0.8585340     0.8235180     0.4136200
  C       -0.5245990     0.2621860     0.3264500
  C       -3.2476580    -0.8824200     0.3361610
  C        1.9107340    -0.1856640     0.0271730
  H       -3.5825680     1.1749950    -0.2170990
  H       -3.1475630     0.1432210    -1.5599470
  H       -1.2553160     1.7190160    -0.9933200
  H        0.9787830     1.7133270    -0.2211670
  H        1.0972480     1.1531100     1.4329360
  H       -0.6310211    -0.8109092     0.6676274
  H       -4.2956480    -1.1625270     0.2123440
  H       -2.6314050    -1.7369230     0.0388270
  H       -3.0739380    -0.6897760     1.4001060
  H        3.7686820    -0.3352680    -0.2293440
units angstrom
no_reorient  #important for SAPT in psi4, default
symmetry c1  #important for SAPT in psi4, default
}

set PROPERTIES_ORIGIN ["COM"]
properties('MP2/aug-cc-pvtz', properties = ['dipole'])
--------------------------------------------------------------------------

    Molecular point group: c1
  Charge       = 0
  Multiplicity = 1
  Basis Set: AUG-CC-PVTZ
    Blend: AUG-CC-PVTZ
  Basis Set: (AUG-CC-PVTZ AUX)
    Blend: AUG-CC-PVTZ-JKFIT

    Orbital Energies [Eh]
    ---------------------

    Doubly Occupied:

       1A    -20.616456     2A    -20.553785     3A    -11.391510
       4A    -11.254138     5A    -11.236907     6A    -11.234556
       7A    -11.230334     8A    -11.214439     9A     -1.459483
      10A     -1.359227    11A     -1.102562    12A     -1.045559
      13A     -0.960028    14A     -0.869129    15A     -0.806337
      16A     -0.734151    17A     -0.703355    18A     -0.683033
      19A     -0.654001    20A     -0.626103    21A     -0.612352
      22A     -0.598524    23A     -0.580437    24A     -0.552850
      25A     -0.524913    26A     -0.498110    27A     -0.491207
      28A     -0.485421    29A     -0.479151    30A     -0.456989
      31A     -0.351586

  @DF-RHF Final Energy:  -382.89657925988467

   => Energetics <=

    Nuclear Repulsion Energy =            355.0907752794843759
    One-Electron Energy =               -1225.2414428015424619
    Two-Electron Energy =                 487.2540882621733545
    Total Energy =                       -382.8965792598846747
  Basis Set: (AUG-CC-PVTZ AUX)
    Blend: AUG-CC-PVTZ-RI
    Molecular point group: c1

    Geometry (in Angstrom), charge = 0, multiplicity = 1:

       Center              X                  Y                   Z               Mass
    ------------   -----------------  -----------------  -----------------  -----------------
         O            3.149437936495     0.388453862082     0.014379483766    15.994914619570
         O            1.721932936495    -1.362837137918    -0.203881516234    15.994914619570
         C           -2.917086063505     0.349142862082    -0.500129516234    12.000000000000
         C           -1.496788063505     0.826765862082    -0.405357516234    12.000000000000
         C            0.857808936495     0.824988862082     0.415702483766    12.000000000000
         C           -0.525324063505     0.263656862082     0.328532483766    12.000000000000
         C           -3.248383063505    -0.880949137918     0.338243483766    12.000000000000
         C            1.910008936495    -0.184193137918     0.029255483766    12.000000000000
         H           -3.583293063505     1.176465862082    -0.215016516234     1.007825032230
         H           -3.148288063505     0.144691862082    -1.557864516234     1.007825032230
         H           -1.256041063505     1.720486862082    -0.991237516234     1.007825032230
         H            0.978057936495     1.714797862082    -0.219084516234     1.007825032230
         H            1.096522936495     1.154580862082     1.435018483766     1.007825032230
         H           -0.631746163505    -0.809438337918     0.669709883766     1.007825032230
         H           -4.296373063505    -1.161056137918     0.214426483766     1.007825032230
         H           -2.632130063505    -1.735452137918     0.040909483766     1.007825032230
         H           -3.074663063505    -0.688305137918     1.402188483766     1.007825032230
         H            3.767956936495    -0.333797137918    -0.227261516234     1.007825032230

  Basis Set: AUG-CC-PVTZ
    Blend: AUG-CC-PVTZ
  Basis Set: (AUG-CC-PVTZ AUX)
    Blend: AUG-CC-PVTZ-JKFIT
	 Reference Energy          =    -382.8965792598846747 [Eh]
	 Singles Energy            =      -0.0000000000000000 [Eh]
	 Same-Spin Energy          =      -0.3835512555560145 [Eh]
	 Opposite-Spin Energy      =      -1.2553099933235679 [Eh]
	 Correlation Energy        =      -1.6388612488795824 [Eh]
	 Total Energy              =    -384.5354405087642817 [Eh]

	 ================> DF-SCS-MP2 Energies <==================
	-----------------------------------------------------------
	 SCS Same-Spin Scale       =       0.3333333333333333 [-]
	 SCS Opposite-Spin Scale   =       1.2000000000000000 [-]
	 SCS Same-Spin Energy      =      -0.1278504185186715 [Eh]
	 SCS Opposite-Spin Energy  =      -1.5063719919882814 [Eh]
	 SCS Correlation Energy    =      -1.6342224105069529 [Eh]
	 SCS Total Energy          =    -384.5308016703916110 [Eh]
	-----------------------------------------------------------

  Dipole Moment: [D]
     X:    -0.1035      Y:     1.3183      Z:     0.0401     Total:     1.3229

*** Psi4 exiting successfully. Buy a developer a beer!
