                               Psi4 1.4a2.dev612

  ==> Input File <==

--------------------------------------------------------------------------
#psi4
#
memory 32 gb

molecule  {
0 1
  O        3.1501630     0.3869830     0.0122970
  O        1.7226580    -1.3643080    -0.2059640
  C       -2.9163610     0.3476720    -0.5022120
  C       -1.4960630     0.8252950    -0.4074400
  C        0.8585340     0.8235180     0.4136200
  C       -0.5245990     0.2621860     0.3264500
  C       -3.2476580    -0.8824200     0.3361610
  C        1.9107340    -0.1856640     0.0271730
  H       -3.5825680     1.1749950    -0.2170990
  H       -3.1475630     0.1432210    -1.5599470
  H       -1.2553160     1.7190160    -0.9933200
  H        0.9787830     1.7133270    -0.2211670
  H        1.0972480     1.1531100     1.4329360
  H       -0.7130820    -0.6444280     0.9033180
  H       -4.2956480    -1.1625270     0.2123440
  H       -2.6314050    -1.7369230     0.0388270
  H       -3.0739380    -0.6897760     1.4001060
  H        3.7686820    -0.3352680    -0.2293440
units angstrom
no_reorient  #important for SAPT in psi4, default
symmetry c1  #important for SAPT in psi4, default
}

set PROPERTIES_ORIGIN ["COM"]
properties('MP2/aug-cc-pvtz', properties = ['dipole'])
--------------------------------------------------------------------------

    Molecular point group: c1
  Charge       = 0
  Multiplicity = 1
  Basis Set: AUG-CC-PVTZ
    Blend: AUG-CC-PVTZ
  Basis Set: (AUG-CC-PVTZ AUX)
    Blend: AUG-CC-PVTZ-JKFIT

    Orbital Energies [Eh]
    ---------------------

    Doubly Occupied:

       1A    -20.615745     2A    -20.552802     3A    -11.390511
       4A    -11.254267     5A    -11.235526     6A    -11.232323
       7A    -11.230087     8A    -11.214764     9A     -1.458638
      10A     -1.358149    11A     -1.103134    12A     -1.045506
      13A     -0.960229    14A     -0.870244    15A     -0.805950
      16A     -0.739125    17A     -0.702957    18A     -0.682373
      19A     -0.654260    20A     -0.626231    21A     -0.612134
      22A     -0.599036    23A     -0.582274    24A     -0.552621
      25A     -0.527994    26A     -0.498208    27A     -0.491319
      28A     -0.484873    29A     -0.480306    30A     -0.455797
      31A     -0.354058

  @DF-RHF Final Energy:  -382.90311956690311

   => Energetics <=

    Nuclear Repulsion Energy =            355.0731706708194793
    One-Electron Energy =               -1225.2096978314516491
    Two-Electron Energy =                 487.2334075937289981
    Total Energy =                       -382.9031195669031149
  Basis Set: (AUG-CC-PVTZ AUX)
    Blend: AUG-CC-PVTZ-RI
    Molecular point group: c1

    Geometry (in Angstrom), charge = 0, multiplicity = 1:

       Center              X                  Y                   Z               Mass
    ------------   -----------------  -----------------  -----------------  -----------------
         O            3.150162968682     0.386982951715     0.012297087995    15.994914619570
         O            1.722657968682    -1.364308048285    -0.205963912005    15.994914619570
         C           -2.916361031318     0.347671951715    -0.502211912005    12.000000000000
         C           -1.496063031318     0.825294951715    -0.407439912005    12.000000000000
         C            0.858533968682     0.823517951715     0.413620087995    12.000000000000
         C           -0.524599031318     0.262185951715     0.326450087995    12.000000000000
         C           -3.247658031318    -0.882420048285     0.336161087995    12.000000000000
         C            1.910733968682    -0.185664048285     0.027173087995    12.000000000000
         H           -3.582568031318     1.174994951715    -0.217098912005     1.007825032230
         H           -3.147563031318     0.143220951715    -1.559946912005     1.007825032230
         H           -1.255316031318     1.719015951715    -0.993319912005     1.007825032230
         H            0.978782968682     1.713326951715    -0.221166912005     1.007825032230
         H            1.097247968682     1.153109951715     1.432936087995     1.007825032230
         H           -0.713082031318    -0.644428048285     0.903318087995     1.007825032230
         H           -4.295648031318    -1.162527048285     0.212344087995     1.007825032230
         H           -2.631405031318    -1.736923048285     0.038827087995     1.007825032230
         H           -3.073938031318    -0.689776048285     1.400106087995     1.007825032230
         H            3.768681968682    -0.335268048285    -0.229343912005     1.007825032230

  Basis Set: AUG-CC-PVTZ
    Blend: AUG-CC-PVTZ
  Basis Set: (AUG-CC-PVTZ AUX)
    Blend: AUG-CC-PVTZ-JKFIT
	 Reference Energy          =    -382.9031195669031149 [Eh]
	 Singles Energy            =      -0.0000000000000000 [Eh]
	 Same-Spin Energy          =      -0.3831336260772388 [Eh]
	 Opposite-Spin Energy      =      -1.2545236119648151 [Eh]
	 Correlation Energy        =      -1.6376572380420540 [Eh]
	 Total Energy              =    -384.5407768049451533 [Eh]

	 ================> DF-SCS-MP2 Energies <==================
	-----------------------------------------------------------
	 SCS Same-Spin Scale       =       0.3333333333333333 [-]
	 SCS Opposite-Spin Scale   =       1.2000000000000000 [-]
	 SCS Same-Spin Energy      =      -0.1277112086924129 [Eh]
	 SCS Opposite-Spin Energy  =      -1.5054283343577781 [Eh]
	 SCS Correlation Energy    =      -1.6331395430501909 [Eh]
	 SCS Total Energy          =    -384.5362591099532779 [Eh]
	-----------------------------------------------------------

  Dipole Moment: [D]
     X:    -0.1777      Y:     1.3911      Z:     0.2067     Total:     1.4176

*** Psi4 exiting successfully. Buy a developer a beer!
