                               Psi4 1.4a2.dev612

  ==> Input File <==

--------------------------------------------------------------------------
#psi4
#
memory 32 gb

molecule  {
0 1
  O        3.1501630     0.3869830     0.0122970
  O        1.7226580    -1.3643080    -0.2059640
  C       -2.9163610     0.3476720    -0.5022120
  C       -1.4960630     0.8252950    -0.4074400
  C        0.8332068     0.8682509     0.2203391
  C       -0.5245990     0.2621860     0.3264500
  C       -3.2476580    -0.8824200     0.3361610
  C        1.9107340    -0.1856640     0.0271730
  H       -3.5825680     1.1749950    -0.2170990
  H       -3.1475630     0.1432210    -1.5599470
  H       -1.2553160     1.7190160    -0.9933200
  H        0.9787830     1.7133270    -0.2211670
  H        1.0972480     1.1531100     1.4329360
  H       -0.7130820    -0.6444280     0.9033180
  H       -4.2956480    -1.1625270     0.2123440
  H       -2.6314050    -1.7369230     0.0388270
  H       -3.0739380    -0.6897760     1.4001060
  H        3.7686820    -0.3352680    -0.2293440
units angstrom
no_reorient  #important for SAPT in psi4, default
symmetry c1  #important for SAPT in psi4, default
}

set PROPERTIES_ORIGIN ["COM"]
properties('MP2/aug-cc-pvtz', properties = ['dipole'])
--------------------------------------------------------------------------

    Molecular point group: c1
  Charge       = 0
  Multiplicity = 1
  Basis Set: AUG-CC-PVTZ
    Blend: AUG-CC-PVTZ
  Basis Set: (AUG-CC-PVTZ AUX)
    Blend: AUG-CC-PVTZ-JKFIT

    Orbital Energies [Eh]
    ---------------------

    Doubly Occupied:

       1A    -20.615022     2A    -20.552560     3A    -11.392982
       4A    -11.260790     5A    -11.235616     6A    -11.232914
       7A    -11.229098     8A    -11.215438     9A     -1.458217
      10A     -1.358001    11A     -1.106921    12A     -1.045524
      13A     -0.959956    14A     -0.870426    15A     -0.807100
      16A     -0.753800    17A     -0.703156    18A     -0.686003
      19A     -0.644981    20A     -0.633711    21A     -0.612182
      22A     -0.604689    23A     -0.573589    24A     -0.549038
      25A     -0.530095    26A     -0.498357    27A     -0.489550
      28A     -0.487557    29A     -0.474637    30A     -0.455178
      31A     -0.347580

  @DF-RHF Final Energy:  -382.86593395306636

   => Energetics <=

    Nuclear Repulsion Energy =            355.3237560818653265
    One-Electron Energy =               -1225.6100425415531845
    Two-Electron Energy =                 487.4203525066214979
    Total Energy =                       -382.8659339530663601
  Basis Set: (AUG-CC-PVTZ AUX)
    Blend: AUG-CC-PVTZ-RI
    Molecular point group: c1

    Geometry (in Angstrom), charge = 0, multiplicity = 1:

       Center              X                  Y                   Z               Mass
    ------------   -----------------  -----------------  -----------------  -----------------
         O            3.152827398566     0.382277035722     0.032630303114    15.994914619570
         O            1.725322398566    -1.369013964278    -0.185630696886    15.994914619570
         C           -2.913696601434     0.342966035722    -0.481878696886    12.000000000000
         C           -1.493398601434     0.820589035722    -0.387106696886    12.000000000000
         C            0.835871198566     0.863544935722     0.240672403114    12.000000000000
         C           -0.521934601434     0.257480035722     0.346783303114    12.000000000000
         C           -3.244993601434    -0.887125964278     0.356494303114    12.000000000000
         C            1.913398398566    -0.190369964278     0.047506303114    12.000000000000
         H           -3.579903601434     1.170289035722    -0.196765696886     1.007825032230
         H           -3.144898601434     0.138515035722    -1.539613696886     1.007825032230
         H           -1.252651601434     1.714310035722    -0.972986696886     1.007825032230
         H            0.981447398566     1.708621035722    -0.200833696886     1.007825032230
         H            1.099912398566     1.148404035722     1.453269303114     1.007825032230
         H           -0.710417601434    -0.649133964278     0.923651303114     1.007825032230
         H           -4.292983601434    -1.167232964278     0.232677303114     1.007825032230
         H           -2.628740601434    -1.741628964278     0.059160303114     1.007825032230
         H           -3.071273601434    -0.694481964278     1.420439303114     1.007825032230
         H            3.771346398566    -0.339973964278    -0.209010696886     1.007825032230

  Basis Set: AUG-CC-PVTZ
    Blend: AUG-CC-PVTZ
  Basis Set: (AUG-CC-PVTZ AUX)
    Blend: AUG-CC-PVTZ-JKFIT
	 Reference Energy          =    -382.8659339530663601 [Eh]
	 Singles Energy            =      -0.0000000000000000 [Eh]
	 Same-Spin Energy          =      -0.3838917106066912 [Eh]
	 Opposite-Spin Energy      =      -1.2561606708974451 [Eh]
	 Correlation Energy        =      -1.6400523815041363 [Eh]
	 Total Energy              =    -384.5059863345704798 [Eh]

	 ================> DF-SCS-MP2 Energies <==================
	-----------------------------------------------------------
	 SCS Same-Spin Scale       =       0.3333333333333333 [-]
	 SCS Opposite-Spin Scale   =       1.2000000000000000 [-]
	 SCS Same-Spin Energy      =      -0.1279639035355637 [Eh]
	 SCS Opposite-Spin Energy  =      -1.5073928050769341 [Eh]
	 SCS Correlation Energy    =      -1.6353567086124978 [Eh]
	 SCS Total Energy          =    -384.5012906616788655 [Eh]
	-----------------------------------------------------------

  Dipole Moment: [D]
     X:    -0.2254      Y:     1.3859      Z:     0.0815     Total:     1.4065

*** Psi4 exiting successfully. Buy a developer a beer!
