                               Psi4 1.4a2.dev612

  ==> Input File <==

--------------------------------------------------------------------------
#psi4
#
memory 32 gb

molecule  {
0 1
  O        3.1501630     0.3869830     0.0122970
  O        1.7226580    -1.3643080    -0.2059640
  C       -2.9163610     0.3476720    -0.5022120
  C       -1.4960630     0.8252950    -0.4074400
  C        0.8205432     0.8906174     0.1236987
  C       -0.5245990     0.2621860     0.3264500
  C       -3.2476580    -0.8824200     0.3361610
  C        1.9107340    -0.1856640     0.0271730
  H       -3.5825680     1.1749950    -0.2170990
  H       -3.1475630     0.1432210    -1.5599470
  H       -1.2553160     1.7190160    -0.9933200
  H        0.9787830     1.7133270    -0.2211670
  H        1.0972480     1.1531100     1.4329360
  H       -0.7130820    -0.6444280     0.9033180
  H       -4.2956480    -1.1625270     0.2123440
  H       -2.6314050    -1.7369230     0.0388270
  H       -3.0739380    -0.6897760     1.4001060
  H        3.7686820    -0.3352680    -0.2293440
units angstrom
no_reorient  #important for SAPT in psi4, default
symmetry c1  #important for SAPT in psi4, default
}

set PROPERTIES_ORIGIN ["COM"]
properties('MP2/aug-cc-pvtz', properties = ['dipole'])
--------------------------------------------------------------------------

    Molecular point group: c1
  Charge       = 0
  Multiplicity = 1
  Basis Set: AUG-CC-PVTZ
    Blend: AUG-CC-PVTZ
  Basis Set: (AUG-CC-PVTZ AUX)
    Blend: AUG-CC-PVTZ-JKFIT

    Orbital Energies [Eh]
    ---------------------

    Doubly Occupied:

       1A    -20.614472     2A    -20.552736     3A    -11.396020
       4A    -11.267604     5A    -11.239116     6A    -11.232762
       7A    -11.228948     8A    -11.216048     9A     -1.457943
      10A     -1.358068    11A     -1.108932    12A     -1.045880
      13A     -0.960605    14A     -0.870494    15A     -0.813003
      16A     -0.760878    17A     -0.703479    18A     -0.688784
      19A     -0.648460    20A     -0.633202    21A     -0.612535
      22A     -0.606157    23A     -0.573696    24A     -0.552198
      25A     -0.518648    26A     -0.498623    27A     -0.490601
      28A     -0.487227    29A     -0.468185    30A     -0.453699
      31A     -0.342805

  @DF-RHF Final Energy:  -382.82088366032167

   => Energetics <=

    Nuclear Repulsion Energy =            355.2515040092401932
    One-Electron Energy =               -1225.3411617021095026
    Two-Electron Energy =                 487.2687740325476398
    Total Energy =                       -382.8208836603216696
  Basis Set: (AUG-CC-PVTZ AUX)
    Blend: AUG-CC-PVTZ-RI
    Molecular point group: c1

    Geometry (in Angstrom), charge = 0, multiplicity = 1:

       Center              X                  Y                   Z               Mass
    ------------   -----------------  -----------------  -----------------  -----------------
         O            3.154159613508     0.379924072465     0.042796905414    15.994914619570
         O            1.726654613508    -1.371366927535    -0.175464094586    15.994914619570
         C           -2.912364386492     0.340613072465    -0.471712094586    12.000000000000
         C           -1.492066386492     0.818236072465    -0.376940094586    12.000000000000
         C            0.824539813508     0.883558472465     0.154198605414    12.000000000000
         C           -0.520602386492     0.255127072465     0.356949905414    12.000000000000
         C           -3.243661386492    -0.889478927535     0.366660905414    12.000000000000
         C            1.914730613508    -0.192722927535     0.057672905414    12.000000000000
         H           -3.578571386492     1.167936072465    -0.186599094586     1.007825032230
         H           -3.143566386492     0.136162072465    -1.529447094586     1.007825032230
         H           -1.251319386492     1.711957072465    -0.962820094586     1.007825032230
         H            0.982779613508     1.706268072465    -0.190667094586     1.007825032230
         H            1.101244613508     1.146051072465     1.463435905414     1.007825032230
         H           -0.709085386492    -0.651486927535     0.933817905414     1.007825032230
         H           -4.291651386492    -1.169585927535     0.242843905414     1.007825032230
         H           -2.627408386492    -1.743981927535     0.069326905414     1.007825032230
         H           -3.069941386492    -0.696834927535     1.430605905414     1.007825032230
         H            3.772678613508    -0.342326927535    -0.198844094586     1.007825032230

  Basis Set: AUG-CC-PVTZ
    Blend: AUG-CC-PVTZ
  Basis Set: (AUG-CC-PVTZ AUX)
    Blend: AUG-CC-PVTZ-JKFIT
	 Reference Energy          =    -382.8208836603216696 [Eh]
	 Singles Energy            =      -0.0000000000000000 [Eh]
	 Same-Spin Energy          =      -0.3847169437304606 [Eh]
	 Opposite-Spin Energy      =      -1.2586415860074101 [Eh]
	 Correlation Energy        =      -1.6433585297378706 [Eh]
	 Total Energy              =    -384.4642421900595650 [Eh]

	 ================> DF-SCS-MP2 Energies <==================
	-----------------------------------------------------------
	 SCS Same-Spin Scale       =       0.3333333333333333 [-]
	 SCS Opposite-Spin Scale   =       1.2000000000000000 [-]
	 SCS Same-Spin Energy      =      -0.1282389812434869 [Eh]
	 SCS Opposite-Spin Energy  =      -1.5103699032088920 [Eh]
	 SCS Correlation Energy    =      -1.6386088844523790 [Eh]
	 SCS Total Energy          =    -384.4594925447740366 [Eh]
	-----------------------------------------------------------

  Dipole Moment: [D]
     X:    -0.2792      Y:     1.3592      Z:     0.0143     Total:     1.3877

*** Psi4 exiting successfully. Buy a developer a beer!
