                               Psi4 1.4a2.dev612

  ==> Input File <==

--------------------------------------------------------------------------
#psi4
#
memory 32 gb

molecule  {
0 1
  O        3.1501630     0.3869830     0.0122970
  O        1.7226580    -1.3643080    -0.2059640
  C       -2.9163610     0.3476720    -0.5022120
  C       -1.4960630     0.8252950    -0.4074400
  C        0.8585340     0.8235180     0.4136200
  C       -0.5245990     0.2621860     0.3264500
  C       -3.2476580    -0.8824200     0.3361610
  C        1.9107340    -0.1856640     0.0271730
  H       -3.5825680     1.1749950    -0.2170990
  H       -3.1475630     0.1432210    -1.5599470
  H       -1.2553160     1.7190160    -0.9933200
  H        0.9787830     1.7133270    -0.2211670
  H        1.0972480     1.1531100     1.4329360
  H       -0.6857284    -0.6999217     0.8247545
  H       -4.2956480    -1.1625270     0.2123440
  H       -2.6314050    -1.7369230     0.0388270
  H       -3.0739380    -0.6897760     1.4001060
  H        3.7686820    -0.3352680    -0.2293440
units angstrom
no_reorient  #important for SAPT in psi4, default
symmetry c1  #important for SAPT in psi4, default
}

set PROPERTIES_ORIGIN ["COM"]
properties('MP2/aug-cc-pvtz', properties = ['dipole'])
--------------------------------------------------------------------------

    Molecular point group: c1
  Charge       = 0
  Multiplicity = 1
  Basis Set: AUG-CC-PVTZ
    Blend: AUG-CC-PVTZ
  Basis Set: (AUG-CC-PVTZ AUX)
    Blend: AUG-CC-PVTZ-JKFIT

    Orbital Energies [Eh]
    ---------------------

    Doubly Occupied:

       1A    -20.616000     2A    -20.553163     3A    -11.390872
       4A    -11.254235     5A    -11.235626     6A    -11.232372
       7A    -11.230075     8A    -11.214688     9A     -1.458941
      10A     -1.358530    11A     -1.103022    12A     -1.045510
      13A     -0.960176    14A     -0.870036    15A     -0.806080
      16A     -0.738628    17A     -0.703207    18A     -0.682597
      19A     -0.654174    20A     -0.626181    21A     -0.612121
      22A     -0.599083    23A     -0.581744    24A     -0.552684
      25A     -0.527996    26A     -0.498157    27A     -0.491301
      28A     -0.485184    29A     -0.480154    30A     -0.456239
      31A     -0.353473

  @DF-RHF Final Energy:  -382.90239311392651

   => Energetics <=

    Nuclear Repulsion Energy =            355.1128526502465093
    One-Electron Energy =               -1225.2859913987363143
    Two-Electron Energy =                 487.2707456345632977
    Total Energy =                       -382.9023931139265073
  Basis Set: (AUG-CC-PVTZ AUX)
    Blend: AUG-CC-PVTZ-RI
    Molecular point group: c1

    Geometry (in Angstrom), charge = 0, multiplicity = 1:

       Center              X                  Y                   Z               Mass
    ------------   -----------------  -----------------  -----------------  -----------------
         O            3.149921291581     0.387473254877     0.012991219624    15.994914619570
         O            1.722416291581    -1.363817745123    -0.205269780376    15.994914619570
         C           -2.916602708419     0.348162254877    -0.501517780376    12.000000000000
         C           -1.496304708419     0.825785254877    -0.406745780376    12.000000000000
         C            0.858292291581     0.824008254877     0.414314219624    12.000000000000
         C           -0.524840708419     0.262676254877     0.327144219624    12.000000000000
         C           -3.247899708419    -0.881929745123     0.336855219624    12.000000000000
         C            1.910492291581    -0.185173745123     0.027867219624    12.000000000000
         H           -3.582809708419     1.175485254877    -0.216404780376     1.007825032230
         H           -3.147804708419     0.143711254877    -1.559252780376     1.007825032230
         H           -1.255557708419     1.719506254877    -0.992625780376     1.007825032230
         H            0.978541291581     1.713817254877    -0.220472780376     1.007825032230
         H            1.097006291581     1.153600254877     1.433630219624     1.007825032230
         H           -0.685970108419    -0.699431445123     0.825448719624     1.007825032230
         H           -4.295889708419    -1.162036745123     0.213038219624     1.007825032230
         H           -2.631646708419    -1.736432745123     0.039521219624     1.007825032230
         H           -3.074179708419    -0.689285745123     1.400800219624     1.007825032230
         H            3.768440291581    -0.334777745123    -0.228649780376     1.007825032230

  Basis Set: AUG-CC-PVTZ
    Blend: AUG-CC-PVTZ
  Basis Set: (AUG-CC-PVTZ AUX)
    Blend: AUG-CC-PVTZ-JKFIT
	 Reference Energy          =    -382.9023931139265073 [Eh]
	 Singles Energy            =      -0.0000000000000000 [Eh]
	 Same-Spin Energy          =      -0.3831934893387995 [Eh]
	 Opposite-Spin Energy      =      -1.2545961334532474 [Eh]
	 Correlation Energy        =      -1.6377896227920470 [Eh]
	 Total Energy              =    -384.5401827367185774 [Eh]

	 ================> DF-SCS-MP2 Energies <==================
	-----------------------------------------------------------
	 SCS Same-Spin Scale       =       0.3333333333333333 [-]
	 SCS Opposite-Spin Scale   =       1.2000000000000000 [-]
	 SCS Same-Spin Energy      =      -0.1277311631129331 [Eh]
	 SCS Opposite-Spin Energy  =      -1.5055153601438969 [Eh]
	 SCS Correlation Energy    =      -1.6332465232568301 [Eh]
	 SCS Total Energy          =    -384.5356396371833512 [Eh]
	-----------------------------------------------------------

  Dipole Moment: [D]
     X:    -0.1511      Y:     1.3605      Z:     0.1566     Total:     1.3778

*** Psi4 exiting successfully. Buy a developer a beer!
