                               Psi4 1.4a2.dev612

  ==> Input File <==

--------------------------------------------------------------------------
#psi4
#
memory 32 gb

molecule  {
0 1
  O        3.1501630     0.3869830     0.0122970
  O        1.7226580    -1.3643080    -0.2059640
  C       -2.9163610     0.3476720    -0.5022120
  C       -1.4960630     0.8252950    -0.4074400
  C        0.8585340     0.8235180     0.4136200
  C       -0.5245990     0.2621860     0.3264500
  C       -3.2476580    -0.8824200     0.3361610
  C        1.9107340    -0.1856640     0.0271730
  H       -3.5825680     1.1749950    -0.2170990
  H       -3.1475630     0.1432210    -1.5599470
  H       -1.2553160     1.7190160    -0.9933200
  H        0.9787830     1.7133270    -0.2211670
  H        1.0972480     1.1531100     1.4329360
  H       -0.6446980    -0.7831623     0.7069092
  H       -4.2956480    -1.1625270     0.2123440
  H       -2.6314050    -1.7369230     0.0388270
  H       -3.0739380    -0.6897760     1.4001060
  H        3.7686820    -0.3352680    -0.2293440
units angstrom
no_reorient  #important for SAPT in psi4, default
symmetry c1  #important for SAPT in psi4, default
}

set PROPERTIES_ORIGIN ["COM"]
properties('MP2/aug-cc-pvtz', properties = ['dipole'])
--------------------------------------------------------------------------

    Molecular point group: c1
  Charge       = 0
  Multiplicity = 1
  Basis Set: AUG-CC-PVTZ
    Blend: AUG-CC-PVTZ
  Basis Set: (AUG-CC-PVTZ AUX)
    Blend: AUG-CC-PVTZ-JKFIT

    Orbital Energies [Eh]
    ---------------------

    Doubly Occupied:

       1A    -20.616347     2A    -20.553640     3A    -11.391359
       4A    -11.254162     5A    -11.236454     6A    -11.233784
       7A    -11.230240     8A    -11.214516     9A     -1.459354
      10A     -1.359058    11A     -1.102702    12A     -1.045544
      13A     -0.960068    14A     -0.869403    15A     -0.806272
      16A     -0.735629    17A     -0.703363    18A     -0.682922
      19A     -0.654041    20A     -0.626118    21A     -0.612271
      22A     -0.598727    23A     -0.580781    24A     -0.552809
      25A     -0.526060    26A     -0.498119    27A     -0.491235
      28A     -0.485407    29A     -0.479533    30A     -0.456821
      31A     -0.352142

  @DF-RHF Final Energy:  -382.89866635667187

   => Energetics <=

    Nuclear Repulsion Energy =            355.1081432094494517
    One-Electron Energy =               -1225.2758577803490425
    Two-Electron Energy =                 487.2690482142276664
    Total Energy =                       -382.8986663566718676
  Basis Set: (AUG-CC-PVTZ AUX)
    Blend: AUG-CC-PVTZ-RI
    Molecular point group: c1

    Geometry (in Angstrom), charge = 0, multiplicity = 1:

       Center              X                  Y                   Z               Mass
    ------------   -----------------  -----------------  -----------------  -----------------
         O            3.149558775929     0.388208710060     0.014032417510    15.994914619570
         O            1.722053775929    -1.363082289940    -0.204228582490    15.994914619570
         C           -2.916965224071     0.348897710060    -0.500476582490    12.000000000000
         C           -1.496667224071     0.826520710060    -0.405704582490    12.000000000000
         C            0.857929775929     0.824743710060     0.415355417510    12.000000000000
         C           -0.525203224071     0.263411710060     0.328185417510    12.000000000000
         C           -3.248262224071    -0.881194289940     0.337896417510    12.000000000000
         C            1.910129775929    -0.184438289940     0.028908417510    12.000000000000
         H           -3.583172224071     1.176220710060    -0.215363582490     1.007825032230
         H           -3.148167224071     0.144446710060    -1.558211582490     1.007825032230
         H           -1.255920224071     1.720241710060    -0.991584582490     1.007825032230
         H            0.978178775929     1.714552710060    -0.219431582490     1.007825032230
         H            1.096643775929     1.154335710060     1.434671417510     1.007825032230
         H           -0.645302224071    -0.781936589940     0.708644617510     1.007825032230
         H           -4.296252224071    -1.161301289940     0.214079417510     1.007825032230
         H           -2.632009224071    -1.735697289940     0.040562417510     1.007825032230
         H           -3.074542224071    -0.688550289940     1.401841417510     1.007825032230
         H            3.768077775929    -0.334042289940    -0.227608582490     1.007825032230

  Basis Set: AUG-CC-PVTZ
    Blend: AUG-CC-PVTZ
  Basis Set: (AUG-CC-PVTZ AUX)
    Blend: AUG-CC-PVTZ-JKFIT
	 Reference Energy          =    -382.8986663566718676 [Eh]
	 Singles Energy            =      -0.0000000000000000 [Eh]
	 Same-Spin Energy          =      -0.3834320299248787 [Eh]
	 Opposite-Spin Energy      =      -1.2550594771902104 [Eh]
	 Correlation Energy        =      -1.6384915071150892 [Eh]
	 Total Energy              =    -384.5371578637869447 [Eh]

	 ================> DF-SCS-MP2 Energies <==================
	-----------------------------------------------------------
	 SCS Same-Spin Scale       =       0.3333333333333333 [-]
	 SCS Opposite-Spin Scale   =       1.2000000000000000 [-]
	 SCS Same-Spin Energy      =      -0.1278106766416262 [Eh]
	 SCS Opposite-Spin Energy  =      -1.5060713726282524 [Eh]
	 SCS Correlation Energy    =      -1.6338820492698787 [Eh]
	 SCS Total Energy          =    -384.5325484059417249 [Eh]
	-----------------------------------------------------------

  Dipole Moment: [D]
     X:    -0.1151      Y:     1.3266      Z:     0.0709     Total:     1.3335

*** Psi4 exiting successfully. Buy a developer a beer!
