                               Psi4 1.4a2.dev612

  ==> Input File <==

--------------------------------------------------------------------------
#psi4
#
memory 32 gb

molecule  {
0 1
  O        3.1501630     0.3869830     0.0122970
  O        1.7226580    -1.3643080    -0.2059640
  C       -2.9163610     0.3476720    -0.5022120
  C       -1.4960630     0.8252950    -0.4074400
  C        0.8585340     0.8235180     0.4136200
  C       -0.5245990     0.2621860     0.3264500
  C       -3.2476580    -0.8824200     0.3361610
  C        1.9107340    -0.1856640     0.0271730
  H       -3.5825680     1.1749950    -0.2170990
  H       -3.1475630     0.1432210    -1.5599470
  H       -1.2801533     1.7769122    -0.9156596
  H        0.9787830     1.7133270    -0.2211670
  H        1.0972480     1.1531100     1.4329360
  H       -0.7130820    -0.6444280     0.9033180
  H       -4.2956480    -1.1625270     0.2123440
  H       -2.6314050    -1.7369230     0.0388270
  H       -3.0739380    -0.6897760     1.4001060
  H        3.7686820    -0.3352680    -0.2293440
units angstrom
no_reorient  #important for SAPT in psi4, default
symmetry c1  #important for SAPT in psi4, default
}

set PROPERTIES_ORIGIN ["COM"]
properties('MP2/aug-cc-pvtz', properties = ['dipole'])
--------------------------------------------------------------------------

    Molecular point group: c1
  Charge       = 0
  Multiplicity = 1
  Basis Set: AUG-CC-PVTZ
    Blend: AUG-CC-PVTZ
  Basis Set: (AUG-CC-PVTZ AUX)
    Blend: AUG-CC-PVTZ-JKFIT

    Orbital Energies [Eh]
    ---------------------

    Doubly Occupied:

       1A    -20.615748     2A    -20.552751     3A    -11.390594
       4A    -11.254288     5A    -11.235945     6A    -11.232516
       7A    -11.230093     8A    -11.214791     9A     -1.458622
      10A     -1.358115    11A     -1.103109    12A     -1.045522
      13A     -0.960167    14A     -0.870190    15A     -0.805914
      16A     -0.738725    17A     -0.702851    18A     -0.682182
      19A     -0.654344    20A     -0.626063    21A     -0.612176
      22A     -0.598589    23A     -0.582319    24A     -0.552631
      25A     -0.528062    26A     -0.498507    27A     -0.491331
      28A     -0.484573    29A     -0.479879    30A     -0.455593
      31A     -0.354155

  @DF-RHF Final Energy:  -382.90257153565653

   => Energetics <=

    Nuclear Repulsion Energy =            355.0364876493835595
    One-Electron Energy =               -1225.1374302219953734
    Two-Electron Energy =                 487.1983710369552227
    Total Energy =                       -382.9025715356565343
  Basis Set: (AUG-CC-PVTZ AUX)
    Blend: AUG-CC-PVTZ-RI
    Molecular point group: c1

    Geometry (in Angstrom), charge = 0, multiplicity = 1:

       Center              X                  Y                   Z               Mass
    ------------   -----------------  -----------------  -----------------  -----------------
         O            3.150382413533     0.386471421760     0.011610935519    15.994914619570
         O            1.722877413533    -1.364819578240    -0.206650064481    15.994914619570
         C           -2.916141586467     0.347160421760    -0.502898064481    12.000000000000
         C           -1.495843586467     0.824783421760    -0.408126064481    12.000000000000
         C            0.858753413533     0.823006421760     0.412933935519    12.000000000000
         C           -0.524379586467     0.261674421760     0.325763935519    12.000000000000
         C           -3.247438586467    -0.882931578240     0.335474935519    12.000000000000
         C            1.910953413533    -0.186175578240     0.026486935519    12.000000000000
         H           -3.582348586467     1.174483421760    -0.217785064481     1.007825032230
         H           -3.147343586467     0.142709421760    -1.560633064481     1.007825032230
         H           -1.279933886467     1.776400621760    -0.916345664481     1.007825032230
         H            0.979002413533     1.712815421760    -0.221853064481     1.007825032230
         H            1.097467413533     1.152598421760     1.432249935519     1.007825032230
         H           -0.712862586467    -0.644939578240     0.902631935519     1.007825032230
         H           -4.295428586467    -1.163038578240     0.211657935519     1.007825032230
         H           -2.631185586467    -1.737434578240     0.038140935519     1.007825032230
         H           -3.073718586467    -0.690287578240     1.399419935519     1.007825032230
         H            3.768901413533    -0.335779578240    -0.230030064481     1.007825032230

  Basis Set: AUG-CC-PVTZ
    Blend: AUG-CC-PVTZ
  Basis Set: (AUG-CC-PVTZ AUX)
    Blend: AUG-CC-PVTZ-JKFIT
	 Reference Energy          =    -382.9025715356565343 [Eh]
	 Singles Energy            =      -0.0000000000000000 [Eh]
	 Same-Spin Energy          =      -0.3831655838051595 [Eh]
	 Opposite-Spin Energy      =      -1.2546128293696794 [Eh]
	 Correlation Energy        =      -1.6377784131748390 [Eh]
	 Total Energy              =    -384.5403499488313628 [Eh]

	 ================> DF-SCS-MP2 Energies <==================
	-----------------------------------------------------------
	 SCS Same-Spin Scale       =       0.3333333333333333 [-]
	 SCS Opposite-Spin Scale   =       1.2000000000000000 [-]
	 SCS Same-Spin Energy      =      -0.1277218612683865 [Eh]
	 SCS Opposite-Spin Energy  =      -1.5055353952436152 [Eh]
	 SCS Correlation Energy    =      -1.6332572565120018 [Eh]
	 SCS Total Energy          =    -384.5358287921685587 [Eh]
	-----------------------------------------------------------

  Dipole Moment: [D]
     X:    -0.1917      Y:     1.4173      Z:     0.2564     Total:     1.4530

*** Psi4 exiting successfully. Buy a developer a beer!
