                               Psi4 1.4a2.dev612

  ==> Input File <==

--------------------------------------------------------------------------
#psi4
#
memory 32 gb

molecule  {
0 1
  O        3.1501630     0.3869830     0.0122970
  O        1.7226580    -1.3643080    -0.2059640
  C       -2.9163610     0.3476720    -0.5022120
  C       -1.4960630     0.8252950    -0.4074400
  C        0.8585340     0.8235180     0.4136200
  C       -0.5245990     0.2621860     0.3264500
  C       -3.2476580    -0.8824200     0.3361610
  C        1.9107340    -0.1856640     0.0271730
  H       -3.5825680     1.1749950    -0.2170990
  H       -3.1475630     0.1432210    -1.5599470
  H       -1.2677347     1.7479641    -0.9544898
  H        0.9787830     1.7133270    -0.2211670
  H        1.0972480     1.1531100     1.4329360
  H       -0.7130820    -0.6444280     0.9033180
  H       -4.2956480    -1.1625270     0.2123440
  H       -2.6314050    -1.7369230     0.0388270
  H       -3.0739380    -0.6897760     1.4001060
  H        3.7686820    -0.3352680    -0.2293440
units angstrom
no_reorient  #important for SAPT in psi4, default
symmetry c1  #important for SAPT in psi4, default
}

set PROPERTIES_ORIGIN ["COM"]
properties('MP2/aug-cc-pvtz', properties = ['dipole'])
--------------------------------------------------------------------------

    Molecular point group: c1
  Charge       = 0
  Multiplicity = 1
  Basis Set: AUG-CC-PVTZ
    Blend: AUG-CC-PVTZ
  Basis Set: (AUG-CC-PVTZ AUX)
    Blend: AUG-CC-PVTZ-JKFIT

    Orbital Energies [Eh]
    ---------------------

    Doubly Occupied:

       1A    -20.615738     2A    -20.552766     3A    -11.390541
       4A    -11.254266     5A    -11.235626     6A    -11.232367
       7A    -11.230090     8A    -11.214773     9A     -1.458621
      10A     -1.358122    11A     -1.103124    12A     -1.045507
      13A     -0.960211    14A     -0.870224    15A     -0.805925
      16A     -0.739044    17A     -0.702907    18A     -0.682275
      19A     -0.654295    20A     -0.626186    21A     -0.612138
      22A     -0.598902    23A     -0.582294    24A     -0.552616
      25A     -0.528015    26A     -0.498301    27A     -0.491321
      28A     -0.484762    29A     -0.480180    30A     -0.455690
      31A     -0.354131

  @DF-RHF Final Energy:  -382.90300696280036

   => Energetics <=

    Nuclear Repulsion Energy =            355.0591881262284346
    One-Electron Energy =               -1225.1824768831675101
    Two-Electron Energy =                 487.2202817941386570
    Total Energy =                       -382.9030069628003616
  Basis Set: (AUG-CC-PVTZ AUX)
    Blend: AUG-CC-PVTZ-RI
    Molecular point group: c1

    Geometry (in Angstrom), charge = 0, multiplicity = 1:

       Center              X                  Y                   Z               Mass
    ------------   -----------------  -----------------  -----------------  -----------------
         O            3.150272691549     0.386727186738     0.011954011757    15.994914619570
         O            1.722767691549    -1.364563813262    -0.206306988243    15.994914619570
         C           -2.916251308451     0.347416186738    -0.502554988243    12.000000000000
         C           -1.495953308451     0.825039186738    -0.407782988243    12.000000000000
         C            0.858643691549     0.823262186738     0.413277011757    12.000000000000
         C           -0.524489308451     0.261930186738     0.326107011757    12.000000000000
         C           -3.247548308451    -0.882675813262     0.335818011757    12.000000000000
         C            1.910843691549    -0.185919813262     0.026830011757    12.000000000000
         H           -3.582458308451     1.174739186738    -0.217441988243     1.007825032230
         H           -3.147453308451     0.142965186738    -1.560289988243     1.007825032230
         H           -1.267625008451     1.747708286738    -0.954832788243     1.007825032230
         H            0.978892691549     1.713071186738    -0.221509988243     1.007825032230
         H            1.097357691549     1.152854186738     1.432593011757     1.007825032230
         H           -0.712972308451    -0.644683813262     0.902975011757     1.007825032230
         H           -4.295538308451    -1.162782813262     0.212001011757     1.007825032230
         H           -2.631295308451    -1.737178813262     0.038484011757     1.007825032230
         H           -3.073828308451    -0.690031813262     1.399763011757     1.007825032230
         H            3.768791691549    -0.335523813262    -0.229686988243     1.007825032230

  Basis Set: AUG-CC-PVTZ
    Blend: AUG-CC-PVTZ
  Basis Set: (AUG-CC-PVTZ AUX)
    Blend: AUG-CC-PVTZ-JKFIT
	 Reference Energy          =    -382.9030069628003616 [Eh]
	 Singles Energy            =      -0.0000000000000000 [Eh]
	 Same-Spin Energy          =      -0.3831415400897325 [Eh]
	 Opposite-Spin Energy      =      -1.2545460346883304 [Eh]
	 Correlation Energy        =      -1.6376875747780628 [Eh]
	 Total Energy              =    -384.5406945375784176 [Eh]

	 ================> DF-SCS-MP2 Energies <==================
	-----------------------------------------------------------
	 SCS Same-Spin Scale       =       0.3333333333333333 [-]
	 SCS Opposite-Spin Scale   =       1.2000000000000000 [-]
	 SCS Same-Spin Energy      =      -0.1277138466965775 [Eh]
	 SCS Opposite-Spin Energy  =      -1.5054552416259963 [Eh]
	 SCS Correlation Energy    =      -1.6331690883225738 [Eh]
	 SCS Total Energy          =    -384.5361760511229363 [Eh]
	-----------------------------------------------------------

  Dipole Moment: [D]
     X:    -0.1851      Y:     1.4057      Z:     0.2305     Total:     1.4364

*** Psi4 exiting successfully. Buy a developer a beer!
