                               Psi4 1.4a2.dev612

  ==> Input File <==

--------------------------------------------------------------------------
#psi4
#
memory 32 gb

molecule  {
0 1
  O        3.1501630     0.3869830     0.0122970
  O        1.7226580    -1.3643080    -0.2059640
  C       -2.9163610     0.3476720    -0.5022120
  C       -1.4960630     0.8252950    -0.4074400
  C        0.8585340     0.8235180     0.4136200
  C       -0.5245990     0.2621860     0.3264500
  C       -3.2476580    -0.8824200     0.3361610
  C        1.9107340    -0.1856640     0.0271730
  H       -3.5825680     1.1749950    -0.2170990
  H       -3.1475630     0.1432210    -1.5599470
  H       -1.2553160     1.7190160    -0.9933200
  H        0.9787830     1.7133270    -0.2211670
  H        1.0972480     1.1531100     1.4329360
  H       -0.6583748    -0.7554154     0.7461910
  H       -4.2956480    -1.1625270     0.2123440
  H       -2.6314050    -1.7369230     0.0388270
  H       -3.0739380    -0.6897760     1.4001060
  H        3.7686820    -0.3352680    -0.2293440
units angstrom
no_reorient  #important for SAPT in psi4, default
symmetry c1  #important for SAPT in psi4, default
}

set PROPERTIES_ORIGIN ["COM"]
properties('MP2/aug-cc-pvtz', properties = ['dipole'])
--------------------------------------------------------------------------

    Molecular point group: c1
  Charge       = 0
  Multiplicity = 1
  Basis Set: AUG-CC-PVTZ
    Blend: AUG-CC-PVTZ
  Basis Set: (AUG-CC-PVTZ AUX)
    Blend: AUG-CC-PVTZ-JKFIT

    Orbital Energies [Eh]
    ---------------------

    Doubly Occupied:

       1A    -20.616235     2A    -20.553489     3A    -11.391203
       4A    -11.254188     5A    -11.236090     6A    -11.233150
       7A    -11.230163     8A    -11.214582     9A     -1.459221
      10A     -1.358887    11A     -1.102827    12A     -1.045530
      13A     -0.960107    14A     -0.869650    15A     -0.806209
      16A     -0.736894    17A     -0.703341    18A     -0.682814
      19A     -0.654084    20A     -0.626136    21A     -0.612203
      22A     -0.598894    23A     -0.581117    24A     -0.552766
      25A     -0.526964    26A     -0.498128    27A     -0.491261
      28A     -0.485364    29A     -0.479811    30A     -0.456639
      31A     -0.352643

  @DF-RHF Final Energy:  -382.90030344903880

   => Energetics <=

    Nuclear Repulsion Energy =            355.1178941708418506
    One-Electron Energy =               -1225.2952158831806173
    Two-Electron Energy =                 487.2770182632999649
    Total Energy =                       -382.9003034490388018
  Basis Set: (AUG-CC-PVTZ AUX)
    Blend: AUG-CC-PVTZ-RI
    Molecular point group: c1

    Geometry (in Angstrom), charge = 0, multiplicity = 1:

       Center              X                  Y                   Z               Mass
    ------------   -----------------  -----------------  -----------------  -----------------
         O            3.149679614480     0.387963558038     0.013685351253    15.994914619570
         O            1.722174614480    -1.363327441962    -0.204575648747    15.994914619570
         C           -2.916844385520     0.348652558038    -0.500823648747    12.000000000000
         C           -1.496546385520     0.826275558038    -0.406051648747    12.000000000000
         C            0.858050614480     0.824498558038     0.415008351253    12.000000000000
         C           -0.525082385520     0.263166558038     0.327838351253    12.000000000000
         C           -3.248141385520    -0.881439441962     0.337549351253    12.000000000000
         C            1.910250614480    -0.184683441962     0.028561351253    12.000000000000
         H           -3.583051385520     1.175975558038    -0.215710648747     1.007825032230
         H           -3.148046385520     0.144201558038    -1.558558648747     1.007825032230
         H           -1.255799385520     1.719996558038    -0.991931648747     1.007825032230
         H            0.978299614480     1.714307558038    -0.219778648747     1.007825032230
         H            1.096764614480     1.154090558038     1.434324351253     1.007825032230
         H           -0.658858185520    -0.754434841962     0.747579351253     1.007825032230
         H           -4.296131385520    -1.161546441962     0.213732351253     1.007825032230
         H           -2.631888385520    -1.735942441962     0.040215351253     1.007825032230
         H           -3.074421385520    -0.688795441962     1.401494351253     1.007825032230
         H            3.768198614480    -0.334287441962    -0.227955648747     1.007825032230

  Basis Set: AUG-CC-PVTZ
    Blend: AUG-CC-PVTZ
  Basis Set: (AUG-CC-PVTZ AUX)
    Blend: AUG-CC-PVTZ-JKFIT
	 Reference Energy          =    -382.9003034490388018 [Eh]
	 Singles Energy            =      -0.0000000000000000 [Eh]
	 Same-Spin Energy          =      -0.3833325896896708 [Eh]
	 Opposite-Spin Energy      =      -1.2548572268653115 [Eh]
	 Correlation Energy        =      -1.6381898165549824 [Eh]
	 Total Energy              =    -384.5384932655937860 [Eh]

	 ================> DF-SCS-MP2 Energies <==================
	-----------------------------------------------------------
	 SCS Same-Spin Scale       =       0.3333333333333333 [-]
	 SCS Opposite-Spin Scale   =       1.2000000000000000 [-]
	 SCS Same-Spin Energy      =      -0.1277775298965569 [Eh]
	 SCS Opposite-Spin Energy  =      -1.5058286722383738 [Eh]
	 SCS Correlation Energy    =      -1.6336062021349307 [Eh]
	 SCS Total Energy          =    -384.5339096511737580 [Eh]
	-----------------------------------------------------------

  Dipole Moment: [D]
     X:    -0.1268      Y:     1.3364      Z:     0.1007     Total:     1.3461

*** Psi4 exiting successfully. Buy a developer a beer!
