                               Psi4 1.4a2.dev612

  ==> Input File <==

--------------------------------------------------------------------------
#psi4
#
memory 32 gb

molecule  {
0 1
  O        3.1501630     0.3869830     0.0122970
  O        1.7226580    -1.3643080    -0.2059640
  C       -2.9163610     0.3476720    -0.5022120
  C       -1.4960630     0.8252950    -0.4074400
  C        0.8268750     0.8794342     0.1720189
  C       -0.5245990     0.2621860     0.3264500
  C       -3.2476580    -0.8824200     0.3361610
  C        1.9107340    -0.1856640     0.0271730
  H       -3.5825680     1.1749950    -0.2170990
  H       -3.1475630     0.1432210    -1.5599470
  H       -1.2553160     1.7190160    -0.9933200
  H        0.9787830     1.7133270    -0.2211670
  H        1.0972480     1.1531100     1.4329360
  H       -0.7130820    -0.6444280     0.9033180
  H       -4.2956480    -1.1625270     0.2123440
  H       -2.6314050    -1.7369230     0.0388270
  H       -3.0739380    -0.6897760     1.4001060
  H        3.7686820    -0.3352680    -0.2293440
units angstrom
no_reorient  #important for SAPT in psi4, default
symmetry c1  #important for SAPT in psi4, default
}

set PROPERTIES_ORIGIN ["COM"]
properties('MP2/aug-cc-pvtz', properties = ['dipole'])
--------------------------------------------------------------------------

    Molecular point group: c1
  Charge       = 0
  Multiplicity = 1
  Basis Set: AUG-CC-PVTZ
    Blend: AUG-CC-PVTZ
  Basis Set: (AUG-CC-PVTZ AUX)
    Blend: AUG-CC-PVTZ-JKFIT

    Orbital Energies [Eh]
    ---------------------

    Doubly Occupied:

       1A    -20.614765     2A    -20.552631     3A    -11.394377
       4A    -11.263918     5A    -11.237161     6A    -11.232808
       7A    -11.228995     8A    -11.215723     9A     -1.458090
      10A     -1.358030    11A     -1.107926    12A     -1.045666
      13A     -0.960198    14A     -0.870451    15A     -0.809537
      16A     -0.757685    17A     -0.703291    18A     -0.687383
      19A     -0.646368    20A     -0.633691    21A     -0.612331
      22A     -0.605614    23A     -0.573274    24A     -0.551303
      25A     -0.523974    26A     -0.498482    27A     -0.490011
      28A     -0.487406    29A     -0.471707    30A     -0.454546
      31A     -0.345331

  @DF-RHF Final Energy:  -382.84541625507472

   => Energetics <=

    Nuclear Repulsion Energy =            355.3047183953248123
    One-Electron Energy =               -1225.5149272795499655
    Two-Electron Energy =                 487.3647926291504291
    Total Energy =                       -382.8454162550747242
  Basis Set: (AUG-CC-PVTZ AUX)
    Blend: AUG-CC-PVTZ-RI
    Molecular point group: c1

    Geometry (in Angstrom), charge = 0, multiplicity = 1:

       Center              X                  Y                   Z               Mass
    ------------   -----------------  -----------------  -----------------  -----------------
         O            3.153493506037     0.381100548833     0.037713604264    15.994914619570
         O            1.725988506037    -1.370190451167    -0.180547395736    15.994914619570
         C           -2.913030493963     0.341789548833    -0.476795395736    12.000000000000
         C           -1.492732493963     0.819412548833    -0.382023395736    12.000000000000
         C            0.830205506037     0.873551748833     0.197435504264    12.000000000000
         C           -0.521268493963     0.256303548833     0.351866604264    12.000000000000
         C           -3.244327493963    -0.888302451167     0.361577604264    12.000000000000
         C            1.914064506037    -0.191546451167     0.052589604264    12.000000000000
         H           -3.579237493963     1.169112548833    -0.191682395736     1.007825032230
         H           -3.144232493963     0.137338548833    -1.534530395736     1.007825032230
         H           -1.251985493963     1.713133548833    -0.967903395736     1.007825032230
         H            0.982113506037     1.707444548833    -0.195750395736     1.007825032230
         H            1.100578506037     1.147227548833     1.458352604264     1.007825032230
         H           -0.709751493963    -0.650310451167     0.928734604264     1.007825032230
         H           -4.292317493963    -1.168409451167     0.237760604264     1.007825032230
         H           -2.628074493963    -1.742805451167     0.064243604264     1.007825032230
         H           -3.070607493963    -0.695658451167     1.425522604264     1.007825032230
         H            3.772012506037    -0.341150451167    -0.203927395736     1.007825032230

  Basis Set: AUG-CC-PVTZ
    Blend: AUG-CC-PVTZ
  Basis Set: (AUG-CC-PVTZ AUX)
    Blend: AUG-CC-PVTZ-JKFIT
	 Reference Energy          =    -382.8454162550747242 [Eh]
	 Singles Energy            =      -0.0000000000000000 [Eh]
	 Same-Spin Energy          =      -0.3842658204936273 [Eh]
	 Opposite-Spin Energy      =      -1.2572621890837177 [Eh]
	 Correlation Energy        =      -1.6415280095773450 [Eh]
	 Total Energy              =    -384.4869442646520952 [Eh]

	 ================> DF-SCS-MP2 Energies <==================
	-----------------------------------------------------------
	 SCS Same-Spin Scale       =       0.3333333333333333 [-]
	 SCS Opposite-Spin Scale   =       1.2000000000000000 [-]
	 SCS Same-Spin Energy      =      -0.1280886068312091 [Eh]
	 SCS Opposite-Spin Energy  =      -1.5087146269004612 [Eh]
	 SCS Correlation Energy    =      -1.6368032337316702 [Eh]
	 SCS Total Energy          =    -384.4822194888063791 [Eh]
	-----------------------------------------------------------

  Dipole Moment: [D]
     X:    -0.2501      Y:     1.3738      Z:     0.0474     Total:     1.3972

*** Psi4 exiting successfully. Buy a developer a beer!
