                               Psi4 1.4a2.dev612

  ==> Input File <==

--------------------------------------------------------------------------
#psi4
#
memory 32 gb

molecule  {
0 1
  O        3.1501630     0.3869830     0.0122970
  O        1.7226580    -1.3643080    -0.2059640
  C       -2.9163610     0.3476720    -0.5022120
  C       -1.4960630     0.8252950    -0.4074400
  C        0.8585340     0.8235180     0.4136200
  C       -0.5245990     0.2621860     0.3264500
  C       -3.2476580    -0.8824200     0.3361610
  C        1.9107340    -0.1856640     0.0271730
  H       -3.5825680     1.1749950    -0.2170990
  H       -3.1475630     0.1432210    -1.5599470
  H       -1.3298279     1.8927045    -0.7603387
  H        0.9787830     1.7133270    -0.2211670
  H        1.0972480     1.1531100     1.4329360
  H       -0.7130820    -0.6444280     0.9033180
  H       -4.2956480    -1.1625270     0.2123440
  H       -2.6314050    -1.7369230     0.0388270
  H       -3.0739380    -0.6897760     1.4001060
  H        3.7686820    -0.3352680    -0.2293440
units angstrom
no_reorient  #important for SAPT in psi4, default
symmetry c1  #important for SAPT in psi4, default
}

set PROPERTIES_ORIGIN ["COM"]
properties('MP2/aug-cc-pvtz', properties = ['dipole'])
--------------------------------------------------------------------------

    Molecular point group: c1
  Charge       = 0
  Multiplicity = 1
  Basis Set: AUG-CC-PVTZ
    Blend: AUG-CC-PVTZ
  Basis Set: (AUG-CC-PVTZ AUX)
    Blend: AUG-CC-PVTZ-JKFIT

    Orbital Energies [Eh]
    ---------------------

    Doubly Occupied:

       1A    -20.615949     2A    -20.552900     3A    -11.391033
       4A    -11.254589     5A    -11.239368     6A    -11.234086
       7A    -11.230124     8A    -11.214974     9A     -1.458810
      10A     -1.358287    11A     -1.103041    12A     -1.045714
      13A     -0.959792    14A     -0.869957    15A     -0.806030
      16A     -0.735488    17A     -0.702562    18A     -0.681880
      19A     -0.654662    20A     -0.624921    21A     -0.612639
      22A     -0.595609    23A     -0.582433    24A     -0.552910
      25A     -0.528504    26A     -0.500018    27A     -0.491520
      28A     -0.483871    29A     -0.476477    30A     -0.455235
      31A     -0.353791

  @DF-RHF Final Energy:  -382.89707383491918

   => Energetics <=

    Nuclear Repulsion Energy =            354.8639427268896611
    One-Electron Energy =               -1224.7876886958172236
    Two-Electron Energy =                 487.0266721340083222
    Total Energy =                       -382.8970738349191834
  Basis Set: (AUG-CC-PVTZ AUX)
    Blend: AUG-CC-PVTZ-RI
    Molecular point group: c1

    Geometry (in Angstrom), charge = 0, multiplicity = 1:

       Center              X                  Y                   Z               Mass
    ------------   -----------------  -----------------  -----------------  -----------------
         O            3.150821303234     0.385448362733     0.010238629685    15.994914619570
         O            1.723316303234    -1.365842637267    -0.208022370315    15.994914619570
         C           -2.915702696766     0.346137362733    -0.504270370315    12.000000000000
         C           -1.495404696766     0.823760362733    -0.409498370315    12.000000000000
         C            0.859192303234     0.821983362733     0.411561629685    12.000000000000
         C           -0.523940696766     0.260651362733     0.324391629685    12.000000000000
         C           -3.246999696766    -0.883954637267     0.334102629685    12.000000000000
         C            1.911392303234    -0.187198637267     0.025114629685    12.000000000000
         H           -3.581909696766     1.173460362733    -0.219157370315     1.007825032230
         H           -3.146904696766     0.141686362733    -1.562005370315     1.007825032230
         H           -1.329169596766     1.891169862733    -0.762397070315     1.007825032230
         H            0.979441303234     1.711792362733    -0.223225370315     1.007825032230
         H            1.097906303234     1.151575362733     1.430877629685     1.007825032230
         H           -0.712423696766    -0.645962637267     0.901259629685     1.007825032230
         H           -4.294989696766    -1.164061637267     0.210285629685     1.007825032230
         H           -2.630746696766    -1.738457637267     0.036768629685     1.007825032230
         H           -3.073279696766    -0.691310637267     1.398047629685     1.007825032230
         H            3.769340303234    -0.336802637267    -0.231402370315     1.007825032230

  Basis Set: AUG-CC-PVTZ
    Blend: AUG-CC-PVTZ
  Basis Set: (AUG-CC-PVTZ AUX)
    Blend: AUG-CC-PVTZ-JKFIT
	 Reference Energy          =    -382.8970738349191834 [Eh]
	 Singles Energy            =      -0.0000000000000000 [Eh]
	 Same-Spin Energy          =      -0.3834151897149354 [Eh]
	 Opposite-Spin Energy      =      -1.2553284628254000 [Eh]
	 Correlation Energy        =      -1.6387436525403354 [Eh]
	 Total Energy              =    -384.5358174874594965 [Eh]

	 ================> DF-SCS-MP2 Energies <==================
	-----------------------------------------------------------
	 SCS Same-Spin Scale       =       0.3333333333333333 [-]
	 SCS Opposite-Spin Scale   =       1.2000000000000000 [-]
	 SCS Same-Spin Energy      =      -0.1278050632383118 [Eh]
	 SCS Opposite-Spin Energy  =      -1.5063941553904800 [Eh]
	 SCS Correlation Energy    =      -1.6341992186287919 [Eh]
	 SCS Total Energy          =    -384.5312730535479773 [Eh]
	-----------------------------------------------------------

  Dipole Moment: [D]
     X:    -0.2114      Y:     1.4333      Z:     0.3768     Total:     1.4970

*** Psi4 exiting successfully. Buy a developer a beer!
