                               Psi4 1.4a2.dev612

  ==> Input File <==

--------------------------------------------------------------------------
#psi4
#
memory 32 gb

molecule  {
0 1
  O        3.1501630     0.3869830     0.0122970
  O        1.7226580    -1.3643080    -0.2059640
  C       -2.9163610     0.3476720    -0.5022120
  C       -1.4960630     0.8252950    -0.4074400
  C        0.8585340     0.8235180     0.4136200
  C       -0.5245990     0.2621860     0.3264500
  C       -3.2476580    -0.8824200     0.3361610
  C        1.9107340    -0.1856640     0.0271730
  H       -3.5825680     1.1749950    -0.2170990
  H       -3.1475630     0.1432210    -1.5599470
  H       -1.2553160     1.7190160    -0.9933200
  H        0.9787830     1.7133270    -0.2211670
  H        1.0972480     1.1531100     1.4329360
  H       -0.6994052    -0.6721749     0.8640362
  H       -4.2956480    -1.1625270     0.2123440
  H       -2.6314050    -1.7369230     0.0388270
  H       -3.0739380    -0.6897760     1.4001060
  H        3.7686820    -0.3352680    -0.2293440
units angstrom
no_reorient  #important for SAPT in psi4, default
symmetry c1  #important for SAPT in psi4, default
}

set PROPERTIES_ORIGIN ["COM"]
properties('MP2/aug-cc-pvtz', properties = ['dipole'])
--------------------------------------------------------------------------

    Molecular point group: c1
  Charge       = 0
  Multiplicity = 1
  Basis Set: AUG-CC-PVTZ
    Blend: AUG-CC-PVTZ
  Basis Set: (AUG-CC-PVTZ AUX)
    Blend: AUG-CC-PVTZ-JKFIT

    Orbital Energies [Eh]
    ---------------------

    Doubly Occupied:

       1A    -20.615875     2A    -20.552987     3A    -11.390695
       4A    -11.254253     5A    -11.235530     6A    -11.232253
       7A    -11.230068     8A    -11.214729     9A     -1.458793
      10A     -1.358343    11A     -1.103089    12A     -1.045506
      13A     -0.960204    14A     -0.870164    15A     -0.806015
      16A     -0.739040    17A     -0.703096    18A     -0.682486
      19A     -0.654218    20A     -0.626206    21A     -0.612115
      22A     -0.599092    23A     -0.582023    24A     -0.552650
      25A     -0.528122    26A     -0.498179    27A     -0.491312
      28A     -0.485046    29A     -0.480249    30A     -0.456023
      31A     -0.353797

  @DF-RHF Final Energy:  -382.90291540186286

   => Energetics <=

    Nuclear Repulsion Energy =            355.0974324582021495
    One-Electron Energy =               -1225.2563808727181822
    Two-Electron Energy =                 487.2560330126532335
    Total Energy =                       -382.9029154018628560
  Basis Set: (AUG-CC-PVTZ AUX)
    Blend: AUG-CC-PVTZ-RI
    Molecular point group: c1

    Geometry (in Angstrom), charge = 0, multiplicity = 1:

       Center              X                  Y                   Z               Mass
    ------------   -----------------  -----------------  -----------------  -----------------
         O            3.150042130132     0.387228103738     0.012644154251    15.994914619570
         O            1.722537130132    -1.364062896262    -0.205616845749    15.994914619570
         C           -2.916481869868     0.347917103738    -0.501864845749    12.000000000000
         C           -1.496183869868     0.825540103738    -0.407092845749    12.000000000000
         C            0.858413130132     0.823763103738     0.413967154251    12.000000000000
         C           -0.524719869868     0.262431103738     0.326797154251    12.000000000000
         C           -3.247778869868    -0.882174896262     0.336508154251    12.000000000000
         C            1.910613130132    -0.185418896262     0.027520154251    12.000000000000
         H           -3.582688869868     1.175240103738    -0.216751845749     1.007825032230
         H           -3.147683869868     0.143466103738    -1.559599845749     1.007825032230
         H           -1.255436869868     1.719261103738    -0.992972845749     1.007825032230
         H            0.978662130132     1.713572103738    -0.220819845749     1.007825032230
         H            1.097127130132     1.153355103738     1.433283154251     1.007825032230
         H           -0.699526069868    -0.671929796262     0.864383354251     1.007825032230
         H           -4.295768869868    -1.162281896262     0.212691154251     1.007825032230
         H           -2.631525869868    -1.736677896262     0.039174154251     1.007825032230
         H           -3.074058869868    -0.689530896262     1.400453154251     1.007825032230
         H            3.768561130132    -0.335022896262    -0.228996845749     1.007825032230

  Basis Set: AUG-CC-PVTZ
    Blend: AUG-CC-PVTZ
  Basis Set: (AUG-CC-PVTZ AUX)
    Blend: AUG-CC-PVTZ-JKFIT
	 Reference Energy          =    -382.9029154018628560 [Eh]
	 Singles Energy            =      -0.0000000000000000 [Eh]
	 Same-Spin Energy          =      -0.3831537526618964 [Eh]
	 Opposite-Spin Energy      =      -1.2545365526361953 [Eh]
	 Correlation Energy        =      -1.6376903052980918 [Eh]
	 Total Energy              =    -384.5406057071609212 [Eh]

	 ================> DF-SCS-MP2 Energies <==================
	-----------------------------------------------------------
	 SCS Same-Spin Scale       =       0.3333333333333333 [-]
	 SCS Opposite-Spin Scale   =       1.2000000000000000 [-]
	 SCS Same-Spin Energy      =      -0.1277179175539655 [Eh]
	 SCS Opposite-Spin Energy  =      -1.5054438631634344 [Eh]
	 SCS Correlation Energy    =      -1.6331617807173999 [Eh]
	 SCS Total Energy          =    -384.5360771825802431 [Eh]
	-----------------------------------------------------------

  Dipole Moment: [D]
     X:    -0.1641      Y:     1.3750      Z:     0.1825     Total:     1.3967

*** Psi4 exiting successfully. Buy a developer a beer!
