                               Psi4 1.4a3.dev225

  ==> Input File <==

--------------------------------------------------------------------------
#psi4
#
memory 32 gb

molecule  {
0 1
  O       -2.1909590     0.3022110    -0.2104850
  N        0.0851610     0.4390910     0.0952720
  N       -0.9981990    -1.6345430     0.1344100
  C        1.3080130    -0.1567610     0.6181790
  C        2.3023860    -0.5362440    -0.4764420
  C        0.0556740     1.8856370    -0.0391460
  C       -1.1027220    -0.2453970    -0.0205620
  H        1.7650550     0.5724880     1.2977430
  H        1.0430010    -1.0258810     1.2255100
  H        1.8814000    -1.2911440    -1.1469770
  H        2.5641180     0.3366430    -1.0800470
  H        3.2219480    -0.9400230    -0.0411410
  H        0.9206510     2.2208510    -0.6190080
  H        0.0774459     2.4214926     1.0309906
  H       -0.8611500     2.1650270    -0.5546380
  H       -0.1986710    -2.0759730    -0.3046340
  H       -1.8731440    -2.0716480    -0.1344710
units angstrom
no_reorient  #important for SAPT in psi4, default
symmetry c1  #important for SAPT in psi4, default
}

set PROPERTIES_ORIGIN ["COM"]
properties('MP2/aug-cc-pvtz', properties = ['dipole'])
--------------------------------------------------------------------------

    Molecular point group: c1
  Charge       = 0
  Multiplicity = 1
  Basis Set: AUG-CC-PVTZ
    Blend: AUG-CC-PVTZ
  Basis Set: (AUG-CC-PVTZ AUX)
    Blend: AUG-CC-PVTZ-JKFIT

    Orbital Energies [Eh]
    ---------------------

    Doubly Occupied:

       1A    -20.506552     2A    -15.583825     3A    -15.578305
       4A    -11.373399     5A    -11.274601     6A    -11.264754
       7A    -11.233493     8A     -1.380366     9A     -1.250261
      10A     -1.190709    11A     -1.033817    12A     -0.938374
      13A     -0.876844    14A     -0.760635    15A     -0.728159
      16A     -0.685311    17A     -0.636123    18A     -0.633462
      19A     -0.604020    20A     -0.587276    21A     -0.561432
      22A     -0.549604    23A     -0.533561    24A     -0.526295
      25A     -0.504897    26A     -0.441666    27A     -0.418400
      28A     -0.372547

  @DF-RHF Final Energy:  -341.19841882859703

   => Energetics <=

    Nuclear Repulsion Energy =            325.8835783767972316
    One-Electron Energy =               -1110.1066189452799335
    Two-Electron Energy =                 443.0246217398856743
    Total Energy =                       -341.1984188285970276
  Basis Set: (AUG-CC-PVTZ AUX)
    Blend: AUG-CC-PVTZ-RI
    Molecular point group: c1

    Geometry (in Angstrom), charge = 0, multiplicity = 1:

       Center              X                  Y                   Z               Mass
    ------------   -----------------  -----------------  -----------------  -----------------
         O           -2.108064201963     0.304415863806    -0.215429036192    15.994914619570
         N            0.168055798037     0.441295863806     0.090327963808    14.003074004430
         N           -0.915304201963    -1.632338136194     0.129465963808    14.003074004430
         C            1.390907798037    -0.154556136194     0.613234963808    12.000000000000
         C            2.385280798037    -0.534039136194    -0.481386036192    12.000000000000
         C            0.138568798037     1.887841863806    -0.044090036192    12.000000000000
         C           -1.019827201963    -0.243192136194    -0.025506036192    12.000000000000
         H            1.847949798037     0.574692863806     1.292798963808     1.007825032230
         H            1.125895798037    -1.023676136194     1.220565963808     1.007825032230
         H            1.964294798037    -1.288939136194    -1.151921036192     1.007825032230
         H            2.647012798037     0.338847863806    -1.084991036192     1.007825032230
         H            3.304842798037    -0.937818136194    -0.046085036192     1.007825032230
         H            1.003545798037     2.223055863806    -0.623952036192     1.007825032230
         H            0.160340698037     2.423697463806     1.026046563808     1.007825032230
         H           -0.778255201963     2.167231863806    -0.559582036192     1.007825032230
         H           -0.115776201963    -2.073768136194    -0.309578036192     1.007825032230
         H           -1.790249201963    -2.069443136194    -0.139415036192     1.007825032230

  Basis Set: AUG-CC-PVTZ
    Blend: AUG-CC-PVTZ
  Basis Set: (AUG-CC-PVTZ AUX)
    Blend: AUG-CC-PVTZ-JKFIT
	 Reference Energy          =    -341.1984188285970276 [Eh]
	 Singles Energy            =      -0.0000000000000000 [Eh]
	 Same-Spin Energy          =      -0.3489451928686485 [Eh]
	 Opposite-Spin Energy      =      -1.1403364892436803 [Eh]
	 Correlation Energy        =      -1.4892816821123287 [Eh]
	 Total Energy              =    -342.6877005107093623 [Eh]

	 ================> DF-SCS-MP2 Energies <==================
	-----------------------------------------------------------
	 SCS Same-Spin Scale       =       0.3333333333333333 [-]
	 SCS Opposite-Spin Scale   =       1.2000000000000000 [-]
	 SCS Same-Spin Energy      =      -0.1163150642895495 [Eh]
	 SCS Opposite-Spin Energy  =      -1.3684037870924162 [Eh]
	 SCS Correlation Energy    =      -1.4847188513819656 [Eh]
	 SCS Total Energy          =    -342.6831376799789837 [Eh]
	-----------------------------------------------------------

  Dipole Moment: [D]
     X:     3.7991      Y:    -1.2483      Z:    -0.2410     Total:     4.0062

*** Psi4 exiting successfully. Buy a developer a beer!
