                               Psi4 1.4a3.dev225

  ==> Input File <==

--------------------------------------------------------------------------
#psi4
#
memory 32 gb

molecule  {
0 1
  O       -2.1909590     0.3022110    -0.2104850
  N        0.0851610     0.4390910     0.0952720
  N       -0.9981990    -1.6345430     0.1344100
  C        1.3080130    -0.1567610     0.6181790
  C        2.3023860    -0.5362440    -0.4764420
  C        0.0556740     1.8856370    -0.0391460
  C       -1.1176361    -0.0471835    -0.0426745
  H        1.7650550     0.5724880     1.2977430
  H        1.0430010    -1.0258810     1.2255100
  H        1.8814000    -1.2911440    -1.1469770
  H        2.5641180     0.3366430    -1.0800470
  H        3.2219480    -0.9400230    -0.0411410
  H        0.9206510     2.2208510    -0.6190080
  H        0.0756270     2.3767260     0.9415890
  H       -0.8611500     2.1650270    -0.5546380
  H       -0.1986710    -2.0759730    -0.3046340
  H       -1.8731440    -2.0716480    -0.1344710
units angstrom
no_reorient  #important for SAPT in psi4, default
symmetry c1  #important for SAPT in psi4, default
}

set PROPERTIES_ORIGIN ["COM"]
properties('MP2/aug-cc-pvtz', properties = ['dipole'])
--------------------------------------------------------------------------

    Molecular point group: c1
  Charge       = 0
  Multiplicity = 1
  Basis Set: AUG-CC-PVTZ
    Blend: AUG-CC-PVTZ
  Basis Set: (AUG-CC-PVTZ AUX)
    Blend: AUG-CC-PVTZ-JKFIT

    Orbital Energies [Eh]
    ---------------------

    Doubly Occupied:

       1A    -20.529288     2A    -15.594304     3A    -15.534178
       4A    -11.372348     5A    -11.283765     6A    -11.262121
       7A    -11.236194     8A     -1.443031     9A     -1.286851
      10A     -1.117954    11A     -1.047940    12A     -0.954447
      13A     -0.893279    14A     -0.748968    15A     -0.705589
      16A     -0.684956    17A     -0.661795    18A     -0.635632
      19A     -0.614912    20A     -0.588649    21A     -0.570382
      22A     -0.554376    23A     -0.548801    24A     -0.538431
      25A     -0.511259    26A     -0.443850    27A     -0.397674
      28A     -0.381600

  @DF-RHF Final Energy:  -341.16485994496975

   => Energetics <=

    Nuclear Repulsion Energy =            327.2272476883846366
    One-Electron Energy =               -1112.4990700804264634
    Two-Electron Energy =                 444.1069624470720782
    Total Energy =                       -341.1648599449697485
  Basis Set: (AUG-CC-PVTZ AUX)
    Blend: AUG-CC-PVTZ-RI
    Molecular point group: c1

    Geometry (in Angstrom), charge = 0, multiplicity = 1:

       Center              X                  Y                   Z               Mass
    ------------   -----------------  -----------------  -----------------  -----------------
         O           -2.106293007313     0.281556725824    -0.211946928407    15.994914619570
         N            0.169826992687     0.418436725824     0.093810071593    14.003074004430
         N           -0.913533007313    -1.655197274176     0.132948071593    14.003074004430
         C            1.392678992687    -0.177415274176     0.616717071593    12.000000000000
         C            2.387051992687    -0.556898274176    -0.477903928407    12.000000000000
         C            0.140339992687     1.864982725824    -0.040607928407    12.000000000000
         C           -1.032970107313    -0.067837774176    -0.044136428407    12.000000000000
         H            1.849720992687     0.551833725824     1.296281071593     1.007825032230
         H            1.127666992687    -1.046535274176     1.224048071593     1.007825032230
         H            1.966065992687    -1.311798274176    -1.148438928407     1.007825032230
         H            2.648783992687     0.315988725824    -1.081508928407     1.007825032230
         H            3.306613992687    -0.960677274176    -0.042602928407     1.007825032230
         H            1.005316992687     2.200196725824    -0.620469928407     1.007825032230
         H            0.160292992687     2.356071725824     0.940127071593     1.007825032230
         H           -0.776484007313     2.144372725824    -0.556099928407     1.007825032230
         H           -0.114005007313    -2.096627274176    -0.306095928407     1.007825032230
         H           -1.788478007313    -2.092302274176    -0.135932928407     1.007825032230

  Basis Set: AUG-CC-PVTZ
    Blend: AUG-CC-PVTZ
  Basis Set: (AUG-CC-PVTZ AUX)
    Blend: AUG-CC-PVTZ-JKFIT
	 Reference Energy          =    -341.1648599449697485 [Eh]
	 Singles Energy            =      -0.0000000000000000 [Eh]
	 Same-Spin Energy          =      -0.3484987952992169 [Eh]
	 Opposite-Spin Energy      =      -1.1401404642810906 [Eh]
	 Correlation Energy        =      -1.4886392595803075 [Eh]
	 Total Energy              =    -342.6534992045500303 [Eh]

	 ================> DF-SCS-MP2 Energies <==================
	-----------------------------------------------------------
	 SCS Same-Spin Scale       =       0.3333333333333333 [-]
	 SCS Opposite-Spin Scale   =       1.2000000000000000 [-]
	 SCS Same-Spin Energy      =      -0.1161662650997390 [Eh]
	 SCS Opposite-Spin Energy  =      -1.3681685571373088 [Eh]
	 SCS Correlation Energy    =      -1.4843348222370478 [Eh]
	 SCS Total Energy          =    -342.6491947672067795 [Eh]
	-----------------------------------------------------------

  Dipole Moment: [D]
     X:     3.8324      Y:     0.5118      Z:    -0.2748     Total:     3.8762

*** Psi4 exiting successfully. Buy a developer a beer!
