                               Psi4 1.4a3.dev225

  ==> Input File <==

--------------------------------------------------------------------------
#psi4
#
memory 32 gb

molecule  {
0 1
  O       -2.1909590     0.3022110    -0.2104850
  N        0.0851610     0.4390910     0.0952720
  N       -0.9981990    -1.6345430     0.1344100
  C        1.3080130    -0.1567610     0.6181790
  C        2.3023860    -0.5362440    -0.4764420
  C        0.0556740     1.8856370    -0.0391460
  C       -1.1027220    -0.2453970    -0.0205620
  H        1.7650550     0.5724880     1.2977430
  H        1.0430010    -1.0258810     1.2255100
  H        1.8814000    -1.2911440    -1.1469770
  H        2.5760905     0.3765717    -1.1076579
  H        3.2219480    -0.9400230    -0.0411410
  H        0.9206510     2.2208510    -0.6190080
  H        0.0756270     2.3767260     0.9415890
  H       -0.8611500     2.1650270    -0.5546380
  H       -0.1986710    -2.0759730    -0.3046340
  H       -1.8731440    -2.0716480    -0.1344710
units angstrom
no_reorient  #important for SAPT in psi4, default
symmetry c1  #important for SAPT in psi4, default
}

set PROPERTIES_ORIGIN ["COM"]
properties('MP2/aug-cc-pvtz', properties = ['dipole'])
--------------------------------------------------------------------------

    Molecular point group: c1
  Charge       = 0
  Multiplicity = 1
  Basis Set: AUG-CC-PVTZ
    Blend: AUG-CC-PVTZ
  Basis Set: (AUG-CC-PVTZ AUX)
    Blend: AUG-CC-PVTZ-JKFIT

    Orbital Energies [Eh]
    ---------------------

    Doubly Occupied:

       1A    -20.505702     2A    -15.582020     3A    -15.577691
       4A    -11.372515     5A    -11.274906     6A    -11.252704
       7A    -11.239071     8A     -1.379550     9A     -1.249499
      10A     -1.190188    11A     -1.032109    12A     -0.943909
      13A     -0.873686    14A     -0.762254    15A     -0.727431
      16A     -0.684650    17A     -0.639853    18A     -0.632081
      19A     -0.603867    20A     -0.585798    21A     -0.560603
      22A     -0.556790    23A     -0.535559    24A     -0.525793
      25A     -0.502017    26A     -0.441075    27A     -0.417965
      28A     -0.373432

  @DF-RHF Final Energy:  -341.20275088792062

   => Energetics <=

    Nuclear Repulsion Energy =            326.1207103908395197
    One-Electron Energy =               -1110.6014847231449494
    Two-Electron Energy =                 443.2780234443847576
    Total Energy =                       -341.2027508879206152
  Basis Set: (AUG-CC-PVTZ AUX)
    Blend: AUG-CC-PVTZ-RI
    Molecular point group: c1

    Geometry (in Angstrom), charge = 0, multiplicity = 1:

       Center              X                  Y                   Z               Mass
    ------------   -----------------  -----------------  -----------------  -----------------
         O           -2.108164448056     0.304463628202    -0.214273776393    15.994914619570
         N            0.167955551944     0.441343628202     0.091483223607    14.003074004430
         N           -0.915404448056    -1.632290371798     0.130621223607    14.003074004430
         C            1.390807551944    -0.154508371798     0.614390223607    12.000000000000
         C            2.385180551944    -0.533991371798    -0.480230776393    12.000000000000
         C            0.138468551944     1.887889628202    -0.042934776393    12.000000000000
         C           -1.019927448056    -0.243144371798    -0.024350776393    12.000000000000
         H            1.847849551944     0.574740628202     1.293954223607     1.007825032230
         H            1.125795551944    -1.023628371798     1.221721223607     1.007825032230
         H            1.964194551944    -1.288891371798    -1.150765776393     1.007825032230
         H            2.658885051944     0.378824328202    -1.111446676393     1.007825032230
         H            3.304742551944    -0.937770371798    -0.044929776393     1.007825032230
         H            1.003445551944     2.223103628202    -0.622796776393     1.007825032230
         H            0.158421551944     2.378978628202     0.937800223607     1.007825032230
         H           -0.778355448056     2.167279628202    -0.558426776393     1.007825032230
         H           -0.115876448056    -2.073720371798    -0.308422776393     1.007825032230
         H           -1.790349448056    -2.069395371798    -0.138259776393     1.007825032230

  Basis Set: AUG-CC-PVTZ
    Blend: AUG-CC-PVTZ
  Basis Set: (AUG-CC-PVTZ AUX)
    Blend: AUG-CC-PVTZ-JKFIT
	 Reference Energy          =    -341.2027508879206152 [Eh]
	 Singles Energy            =      -0.0000000000000000 [Eh]
	 Same-Spin Energy          =      -0.3488983687943522 [Eh]
	 Opposite-Spin Energy      =      -1.1399524549540443 [Eh]
	 Correlation Energy        =      -1.4888508237483964 [Eh]
	 Total Energy              =    -342.6916017116690227 [Eh]

	 ================> DF-SCS-MP2 Energies <==================
	-----------------------------------------------------------
	 SCS Same-Spin Scale       =       0.3333333333333333 [-]
	 SCS Opposite-Spin Scale   =       1.2000000000000000 [-]
	 SCS Same-Spin Energy      =      -0.1162994562647841 [Eh]
	 SCS Opposite-Spin Energy  =      -1.3679429459448531 [Eh]
	 SCS Correlation Energy    =      -1.4842424022096372 [Eh]
	 SCS Total Energy          =    -342.6869932901302604 [Eh]
	-----------------------------------------------------------

  Dipole Moment: [D]
     X:     3.8018      Y:    -1.1823      Z:    -0.1607     Total:     3.9847

*** Psi4 exiting successfully. Buy a developer a beer!
