                               Psi4 1.4a3.dev225

  ==> Input File <==

--------------------------------------------------------------------------
#psi4
#
memory 32 gb

molecule  {
0 1
  O       -2.1909590     0.3022110    -0.2104850
  N        0.0851610     0.4390910     0.0952720
  N       -0.9981990    -1.6345430     0.1344100
  C        1.3080130    -0.1567610     0.6181790
  C        2.3023860    -0.5362440    -0.4764420
  C        0.0556740     1.8856370    -0.0391460
  C       -1.1027220    -0.2453970    -0.0205620
  H        1.7650550     0.5724880     1.2977430
  H        1.0430010    -1.0258810     1.2255100
  H        1.8814000    -1.2911440    -1.1469770
  H        2.5641180     0.3366430    -1.0800470
  H        3.2219480    -0.9400230    -0.0411410
  H        0.9206510     2.2208510    -0.6190080
  H        0.0756270     2.3767260     0.9415890
  H       -0.8779990     2.1701615    -0.5641115
  H       -0.1986710    -2.0759730    -0.3046340
  H       -1.8731440    -2.0716480    -0.1344710
units angstrom
no_reorient  #important for SAPT in psi4, default
symmetry c1  #important for SAPT in psi4, default
}

set PROPERTIES_ORIGIN ["COM"]
properties('MP2/aug-cc-pvtz', properties = ['dipole'])
--------------------------------------------------------------------------

    Molecular point group: c1
  Charge       = 0
  Multiplicity = 1
  Basis Set: AUG-CC-PVTZ
    Blend: AUG-CC-PVTZ
  Basis Set: (AUG-CC-PVTZ AUX)
    Blend: AUG-CC-PVTZ-JKFIT

    Orbital Energies [Eh]
    ---------------------

    Doubly Occupied:

       1A    -20.505595     2A    -15.582032     3A    -15.577549
       4A    -11.372417     5A    -11.274404     6A    -11.254839
       7A    -11.233069     8A     -1.379452     9A     -1.249409
      10A     -1.190029    11A     -1.033601    12A     -0.942814
      13A     -0.876268    14A     -0.761901    15A     -0.727285
      16A     -0.684524    17A     -0.639685    18A     -0.632498
      19A     -0.603759    20A     -0.588863    21A     -0.559824
      22A     -0.556948    23A     -0.536371    24A     -0.524006
      25A     -0.505091    26A     -0.440824    27A     -0.417827
      28A     -0.373317

  @DF-RHF Final Energy:  -341.20421651728759

   => Energetics <=

    Nuclear Repulsion Energy =            326.2352365865410775
    One-Electron Energy =               -1110.8305017732391207
    Two-Electron Energy =                 443.3910486694104520
    Total Energy =                       -341.2042165172875912
  Basis Set: (AUG-CC-PVTZ AUX)
    Blend: AUG-CC-PVTZ-RI
    Molecular point group: c1

    Geometry (in Angstrom), charge = 0, multiplicity = 1:

       Center              X                  Y                   Z               Mass
    ------------   -----------------  -----------------  -----------------  -----------------
         O           -2.107879894522     0.304807149967    -0.214452846228    15.994914619570
         N            0.168240105478     0.441687149967     0.091304153772    14.003074004430
         N           -0.915119894522    -1.631946850033     0.130442153772    14.003074004430
         C            1.391092105478    -0.154164850033     0.614211153772    12.000000000000
         C            2.385465105478    -0.533647850033    -0.480409846228    12.000000000000
         C            0.138753105478     1.888233149967    -0.043113846228    12.000000000000
         C           -1.019642894522    -0.242800850033    -0.024529846228    12.000000000000
         H            1.848134105478     0.575084149967     1.293775153772     1.007825032230
         H            1.126080105478    -1.023284850033     1.221542153772     1.007825032230
         H            1.964479105478    -1.288547850033    -1.150944846228     1.007825032230
         H            2.647197105478     0.339239149967    -1.084014846228     1.007825032230
         H            3.305027105478    -0.937426850033    -0.045108846228     1.007825032230
         H            1.003730105478     2.223447149967    -0.622975846228     1.007825032230
         H            0.158706105478     2.379322149967     0.937621153772     1.007825032230
         H           -0.794919894522     2.172757649967    -0.568079346228     1.007825032230
         H           -0.115591894522    -2.073376850033    -0.308601846228     1.007825032230
         H           -1.790064894522    -2.069051850033    -0.138438846228     1.007825032230

  Basis Set: AUG-CC-PVTZ
    Blend: AUG-CC-PVTZ
  Basis Set: (AUG-CC-PVTZ AUX)
    Blend: AUG-CC-PVTZ-JKFIT
	 Reference Energy          =    -341.2042165172875912 [Eh]
	 Singles Energy            =      -0.0000000000000000 [Eh]
	 Same-Spin Energy          =      -0.3489524634558858 [Eh]
	 Opposite-Spin Energy      =      -1.1398062496877801 [Eh]
	 Correlation Energy        =      -1.4887587131436659 [Eh]
	 Total Energy              =    -342.6929752304312728 [Eh]

	 ================> DF-SCS-MP2 Energies <==================
	-----------------------------------------------------------
	 SCS Same-Spin Scale       =       0.3333333333333333 [-]
	 SCS Opposite-Spin Scale   =       1.2000000000000000 [-]
	 SCS Same-Spin Energy      =      -0.1163174878186286 [Eh]
	 SCS Opposite-Spin Energy  =      -1.3677674996253362 [Eh]
	 SCS Correlation Energy    =      -1.4840849874439648 [Eh]
	 SCS Total Energy          =    -342.6883015047315553 [Eh]
	-----------------------------------------------------------

  Dipole Moment: [D]
     X:     3.8124      Y:    -1.1709      Z:    -0.1772     Total:     3.9921

*** Psi4 exiting successfully. Buy a developer a beer!
