                               Psi4 1.4a3.dev225

  ==> Input File <==

--------------------------------------------------------------------------
#psi4
#
memory 32 gb

molecule  {
0 1
  O       -2.1909590     0.3022110    -0.2104850
  N        0.0851610     0.4390910     0.0952720
  N       -0.9981990    -1.6345430     0.1344100
  C        1.3080130    -0.1567610     0.6181790
  C        2.3023860    -0.5362440    -0.4764420
  C        0.1559838     1.8855188    -0.0241587
  C       -1.1027220    -0.2453970    -0.0205620
  H        1.7650550     0.5724880     1.2977430
  H        1.0430010    -1.0258810     1.2255100
  H        1.8814000    -1.2911440    -1.1469770
  H        2.5641180     0.3366430    -1.0800470
  H        3.2219480    -0.9400230    -0.0411410
  H        0.9206510     2.2208510    -0.6190080
  H        0.0756270     2.3767260     0.9415890
  H       -0.8611500     2.1650270    -0.5546380
  H       -0.1986710    -2.0759730    -0.3046340
  H       -1.8731440    -2.0716480    -0.1344710
units angstrom
no_reorient  #important for SAPT in psi4, default
symmetry c1  #important for SAPT in psi4, default
}

set PROPERTIES_ORIGIN ["COM"]
properties('MP2/aug-cc-pvtz', properties = ['dipole'])
--------------------------------------------------------------------------

    Molecular point group: c1
  Charge       = 0
  Multiplicity = 1
  Basis Set: AUG-CC-PVTZ
    Blend: AUG-CC-PVTZ
  Basis Set: (AUG-CC-PVTZ AUX)
    Blend: AUG-CC-PVTZ-JKFIT

    Orbital Energies [Eh]
    ---------------------

    Doubly Occupied:

       1A    -20.506078     2A    -15.582370     3A    -15.578540
       4A    -11.374398     5A    -11.272133     6A    -11.253551
       7A    -11.232771     8A     -1.379221     9A     -1.250192
      10A     -1.190701    11A     -1.031649    12A     -0.948085
      13A     -0.875698    14A     -0.764088    15A     -0.726572
      16A     -0.686729    17A     -0.644089    18A     -0.631909
      19A     -0.603363    20A     -0.591765    21A     -0.575013
      22A     -0.555408    23A     -0.533738    24A     -0.517810
      25A     -0.489572    26A     -0.440500    27A     -0.418334
      28A     -0.375475

  @DF-RHF Final Energy:  -341.19262430854178

   => Energetics <=

    Nuclear Repulsion Energy =            326.2048443993327851
    One-Electron Energy =               -1110.7354337035396838
    Two-Electron Energy =                 443.3379649956650610
    Total Energy =                       -341.1926243085417809
  Basis Set: (AUG-CC-PVTZ AUX)
    Blend: AUG-CC-PVTZ-RI
    Molecular point group: c1

    Geometry (in Angstrom), charge = 0, multiplicity = 1:

       Center              X                  Y                   Z               Mass
    ------------   -----------------  -----------------  -----------------  -----------------
         O           -2.119838227790     0.304871737761    -0.216308219516    15.994914619570
         N            0.156281772210     0.441751737761     0.089448780484    14.003074004430
         N           -0.927078227790    -1.631882262239     0.128586780484    14.003074004430
         C            1.379133772210    -0.154100262239     0.612355780484    12.000000000000
         C            2.373506772210    -0.533583262239    -0.482265219516    12.000000000000
         C            0.227104572210     1.888179537761    -0.029981919516    12.000000000000
         C           -1.031601227790    -0.242736262239    -0.026385219516    12.000000000000
         H            1.836175772210     0.575148737761     1.291919780484     1.007825032230
         H            1.114121772210    -1.023220262239     1.219686780484     1.007825032230
         H            1.952520772210    -1.288483262239    -1.152800219516     1.007825032230
         H            2.635238772210     0.339303737761    -1.085870219516     1.007825032230
         H            3.293068772210    -0.937362262239    -0.046964219516     1.007825032230
         H            0.991771772210     2.223511737761    -0.624831219516     1.007825032230
         H            0.146747772210     2.379386737761     0.935765780484     1.007825032230
         H           -0.790029227790     2.167687737761    -0.560461219516     1.007825032230
         H           -0.127550227790    -2.073312262239    -0.310457219516     1.007825032230
         H           -1.802023227790    -2.068987262239    -0.140294219516     1.007825032230

  Basis Set: AUG-CC-PVTZ
    Blend: AUG-CC-PVTZ
  Basis Set: (AUG-CC-PVTZ AUX)
    Blend: AUG-CC-PVTZ-JKFIT
	 Reference Energy          =    -341.1926243085417809 [Eh]
	 Singles Energy            =      -0.0000000000000000 [Eh]
	 Same-Spin Energy          =      -0.3494242570908126 [Eh]
	 Opposite-Spin Energy      =      -1.1407114681711912 [Eh]
	 Correlation Energy        =      -1.4901357252620038 [Eh]
	 Total Energy              =    -342.6827600338037882 [Eh]

	 ================> DF-SCS-MP2 Energies <==================
	-----------------------------------------------------------
	 SCS Same-Spin Scale       =       0.3333333333333333 [-]
	 SCS Opposite-Spin Scale   =       1.2000000000000000 [-]
	 SCS Same-Spin Energy      =      -0.1164747523636042 [Eh]
	 SCS Opposite-Spin Energy  =      -1.3688537618054293 [Eh]
	 SCS Correlation Energy    =      -1.4853285141690336 [Eh]
	 SCS Total Energy          =    -342.6779528227108358 [Eh]
	-----------------------------------------------------------

  Dipole Moment: [D]
     X:     3.8116      Y:    -1.1694      Z:    -0.1845     Total:     3.9912

*** Psi4 exiting successfully. Buy a developer a beer!
