                               Psi4 1.4a3.dev225

  ==> Input File <==

--------------------------------------------------------------------------
#psi4
#
memory 32 gb

molecule  {
0 1
  O       -2.1909590     0.3022110    -0.2104850
  N        0.0851610     0.4390910     0.0952720
  N       -0.9981990    -1.6345430     0.1344100
  C        1.3080130    -0.1567610     0.6181790
  C        2.3023860    -0.5362440    -0.4764420
  C        0.0556740     1.8856370    -0.0391460
  C       -1.1027220    -0.2453970    -0.0205620
  H        1.7650550     0.5724880     1.2977430
  H        1.0430010    -1.0258810     1.2255100
  H        1.8814000    -1.2911440    -1.1469770
  H        2.5880629     0.4165004    -1.1352687
  H        3.2219480    -0.9400230    -0.0411410
  H        0.9206510     2.2208510    -0.6190080
  H        0.0756270     2.3767260     0.9415890
  H       -0.8611500     2.1650270    -0.5546380
  H       -0.1986710    -2.0759730    -0.3046340
  H       -1.8731440    -2.0716480    -0.1344710
units angstrom
no_reorient  #important for SAPT in psi4, default
symmetry c1  #important for SAPT in psi4, default
}

set PROPERTIES_ORIGIN ["COM"]
properties('MP2/aug-cc-pvtz', properties = ['dipole'])
--------------------------------------------------------------------------

    Molecular point group: c1
  Charge       = 0
  Multiplicity = 1
  Basis Set: AUG-CC-PVTZ
    Blend: AUG-CC-PVTZ
  Basis Set: (AUG-CC-PVTZ AUX)
    Blend: AUG-CC-PVTZ-JKFIT

    Orbital Energies [Eh]
    ---------------------

    Doubly Occupied:

       1A    -20.505812     2A    -15.582157     3A    -15.577889
       4A    -11.372647     5A    -11.275592     6A    -11.252589
       7A    -11.244943     8A     -1.379666     9A     -1.249621
      10A     -1.190353    11A     -1.030903    12A     -0.943621
      13A     -0.871565    14A     -0.762246    15A     -0.727189
      16A     -0.684840    17A     -0.640022    18A     -0.631577
      19A     -0.603886    20A     -0.583202    21A     -0.560829
      22A     -0.556428    23A     -0.534462    24A     -0.526053
      25A     -0.497519    26A     -0.441197    27A     -0.418105
      28A     -0.373614

  @DF-RHF Final Energy:  -341.19835387712629

   => Energetics <=

    Nuclear Repulsion Energy =            325.9346889173348245
    One-Electron Energy =               -1110.2290300094166469
    Two-Electron Energy =                 443.0959872149555281
    Total Energy =                       -341.1983538771262943
  Basis Set: (AUG-CC-PVTZ AUX)
    Blend: AUG-CC-PVTZ-RI
    Molecular point group: c1

    Geometry (in Angstrom), charge = 0, multiplicity = 1:

       Center              X                  Y                   Z               Mass
    ------------   -----------------  -----------------  -----------------  -----------------
         O           -2.108282651089     0.304069413721    -0.214001176053    15.994914619570
         N            0.167837348911     0.440949413721     0.091755823947    14.003074004430
         N           -0.915522651089    -1.632684586279     0.130893823947    14.003074004430
         C            1.390689348911    -0.154902586279     0.614662823947    12.000000000000
         C            2.385062348911    -0.534385586279    -0.479958176053    12.000000000000
         C            0.138350348911     1.887495413721    -0.042662176053    12.000000000000
         C           -1.020045651089    -0.243538586279    -0.024078176053    12.000000000000
         H            1.847731348911     0.574346413721     1.294226823947     1.007825032230
         H            1.125677348911    -1.024022586279     1.221993823947     1.007825032230
         H            1.964076348911    -1.289285586279    -1.150493176053     1.007825032230
         H            2.670739248911     0.418358813721    -1.138784876053     1.007825032230
         H            3.304624348911    -0.938164586279    -0.044657176053     1.007825032230
         H            1.003327348911     2.222709413721    -0.622524176053     1.007825032230
         H            0.158303348911     2.378584413721     0.938072823947     1.007825032230
         H           -0.778473651089     2.166885413721    -0.558154176053     1.007825032230
         H           -0.115994651089    -2.074114586279    -0.308150176053     1.007825032230
         H           -1.790467651089    -2.069789586279    -0.137987176053     1.007825032230

  Basis Set: AUG-CC-PVTZ
    Blend: AUG-CC-PVTZ
  Basis Set: (AUG-CC-PVTZ AUX)
    Blend: AUG-CC-PVTZ-JKFIT
	 Reference Energy          =    -341.1983538771262943 [Eh]
	 Singles Energy            =      -0.0000000000000000 [Eh]
	 Same-Spin Energy          =      -0.3488976944391284 [Eh]
	 Opposite-Spin Energy      =      -1.1403282288004095 [Eh]
	 Correlation Energy        =      -1.4892259232395380 [Eh]
	 Total Energy              =    -342.6875798003658247 [Eh]

	 ================> DF-SCS-MP2 Energies <==================
	-----------------------------------------------------------
	 SCS Same-Spin Scale       =       0.3333333333333333 [-]
	 SCS Opposite-Spin Scale   =       1.2000000000000000 [-]
	 SCS Same-Spin Energy      =      -0.1162992314797095 [Eh]
	 SCS Opposite-Spin Energy  =      -1.3683938745604913 [Eh]
	 SCS Correlation Energy    =      -1.4846931060402009 [Eh]
	 SCS Total Energy          =    -342.6830469831664914 [Eh]
	-----------------------------------------------------------

  Dipole Moment: [D]
     X:     3.7872      Y:    -1.2024      Z:    -0.1405     Total:     3.9760

*** Psi4 exiting successfully. Buy a developer a beer!
