                               Psi4 1.4a3.dev225

  ==> Input File <==

--------------------------------------------------------------------------
#psi4
#
memory 32 gb

molecule  {
0 1
  O       -2.1909590     0.3022110    -0.2104850
  N        0.0851610     0.4390910     0.0952720
  N       -0.9981990    -1.6345430     0.1344100
  C        1.3150457    -0.0076219     0.5611985
  C        2.3023860    -0.5362440    -0.4764420
  C        0.0556740     1.8856370    -0.0391460
  C       -1.1027220    -0.2453970    -0.0205620
  H        1.7650550     0.5724880     1.2977430
  H        1.0430010    -1.0258810     1.2255100
  H        1.8814000    -1.2911440    -1.1469770
  H        2.5641180     0.3366430    -1.0800470
  H        3.2219480    -0.9400230    -0.0411410
  H        0.9206510     2.2208510    -0.6190080
  H        0.0756270     2.3767260     0.9415890
  H       -0.8611500     2.1650270    -0.5546380
  H       -0.1986710    -2.0759730    -0.3046340
  H       -1.8731440    -2.0716480    -0.1344710
units angstrom
no_reorient  #important for SAPT in psi4, default
symmetry c1  #important for SAPT in psi4, default
}

set PROPERTIES_ORIGIN ["COM"]
properties('MP2/aug-cc-pvtz', properties = ['dipole'])
--------------------------------------------------------------------------

    Molecular point group: c1
  Charge       = 0
  Multiplicity = 1
  Basis Set: AUG-CC-PVTZ
    Blend: AUG-CC-PVTZ
  Basis Set: (AUG-CC-PVTZ AUX)
    Blend: AUG-CC-PVTZ-JKFIT

    Orbital Energies [Eh]
    ---------------------

    Doubly Occupied:

       1A    -20.510173     2A    -15.585041     3A    -15.578895
       4A    -11.378794     5A    -11.277867     6A    -11.253421
       7A    -11.232609     8A     -1.384467     9A     -1.265009
      10A     -1.194302    11A     -1.031519    12A     -0.947579
      13A     -0.886156    14A     -0.765253    15A     -0.726967
      16A     -0.695932    17A     -0.648448    18A     -0.633068
      19A     -0.608015    20A     -0.585075    21A     -0.563548
      22A     -0.558961    23A     -0.539904    24A     -0.534756
      25A     -0.469036    26A     -0.444653    27A     -0.418408
      28A     -0.372854

  @DF-RHF Final Energy:  -341.17775989227482

   => Energetics <=

    Nuclear Repulsion Energy =            327.2192852321808232
    One-Electron Energy =               -1112.6126691251283773
    Two-Electron Energy =                 444.2156240006727330
    Total Energy =                       -341.1777598922748211
  Basis Set: (AUG-CC-PVTZ AUX)
    Blend: AUG-CC-PVTZ-RI
    Molecular point group: c1

    Geometry (in Angstrom), charge = 0, multiplicity = 1:

       Center              X                  Y                   Z               Mass
    ------------   -----------------  -----------------  -----------------  -----------------
         O           -2.108872977656     0.287325698821    -0.207847997997    15.994914619570
         N            0.167247022344     0.424205698821     0.097909002003    14.003074004430
         N           -0.916112977656    -1.649428301179     0.137047002003    14.003074004430
         C            1.397131722344    -0.022507201179     0.563835502003    12.000000000000
         C            2.384472022344    -0.551129301179    -0.473804997997    12.000000000000
         C            0.137760022344     1.870751698821    -0.036508997997    12.000000000000
         C           -1.020635977656    -0.260282301179    -0.017924997997    12.000000000000
         H            1.847141022344     0.557602698821     1.300380002003     1.007825032230
         H            1.125087022344    -1.040766301179     1.228147002003     1.007825032230
         H            1.963486022344    -1.306029301179    -1.144339997997     1.007825032230
         H            2.646204022344     0.321757698821    -1.077409997997     1.007825032230
         H            3.304034022344    -0.954908301179    -0.038503997997     1.007825032230
         H            1.002737022344     2.205965698821    -0.616370997997     1.007825032230
         H            0.157713022344     2.361840698821     0.944226002003     1.007825032230
         H           -0.779063977656     2.150141698821    -0.552000997997     1.007825032230
         H           -0.116584977656    -2.090858301179    -0.301996997997     1.007825032230
         H           -1.791057977656    -2.086533301179    -0.131833997997     1.007825032230

  Basis Set: AUG-CC-PVTZ
    Blend: AUG-CC-PVTZ
  Basis Set: (AUG-CC-PVTZ AUX)
    Blend: AUG-CC-PVTZ-JKFIT
	 Reference Energy          =    -341.1777598922748211 [Eh]
	 Singles Energy            =      -0.0000000000000000 [Eh]
	 Same-Spin Energy          =      -0.3502733676566020 [Eh]
	 Opposite-Spin Energy      =      -1.1419910346523880 [Eh]
	 Correlation Energy        =      -1.4922644023089902 [Eh]
	 Total Energy              =    -342.6700242945838113 [Eh]

	 ================> DF-SCS-MP2 Energies <==================
	-----------------------------------------------------------
	 SCS Same-Spin Scale       =       0.3333333333333333 [-]
	 SCS Opposite-Spin Scale   =       1.2000000000000000 [-]
	 SCS Same-Spin Energy      =      -0.1167577892188673 [Eh]
	 SCS Opposite-Spin Energy  =      -1.3703892415828656 [Eh]
	 SCS Correlation Energy    =      -1.4871470308017329 [Eh]
	 SCS Total Energy          =    -342.6649069230765576 [Eh]
	-----------------------------------------------------------

  Dipole Moment: [D]
     X:     3.6292      Y:    -1.0612      Z:    -0.2776     Total:     3.7913

*** Psi4 exiting successfully. Buy a developer a beer!
