                               Psi4 1.4a3.dev225

  ==> Input File <==

--------------------------------------------------------------------------
#psi4
#
memory 32 gb

molecule  {
0 1
  O       -2.1909590     0.3022110    -0.2104850
  N        0.0851610     0.4390910     0.0952720
  N       -0.9981990    -1.6345430     0.1344100
  C        1.3080130    -0.1567610     0.6181790
  C        2.3023860    -0.5362440    -0.4764420
  C        0.0556740     1.8856370    -0.0391460
  C       -1.1027220    -0.2453970    -0.0205620
  H        1.7650550     0.5724880     1.2977430
  H        1.0430010    -1.0258810     1.2255100
  H        1.8814000    -1.2911440    -1.1469770
  H        2.4526016     0.3461662    -1.1037871
  H        3.2219480    -0.9400230    -0.0411410
  H        0.9206510     2.2208510    -0.6190080
  H        0.0756270     2.3767260     0.9415890
  H       -0.8611500     2.1650270    -0.5546380
  H       -0.1986710    -2.0759730    -0.3046340
  H       -1.8731440    -2.0716480    -0.1344710
units angstrom
no_reorient  #important for SAPT in psi4, default
symmetry c1  #important for SAPT in psi4, default
}

set PROPERTIES_ORIGIN ["COM"]
properties('MP2/aug-cc-pvtz', properties = ['dipole'])
--------------------------------------------------------------------------

    Molecular point group: c1
  Charge       = 0
  Multiplicity = 1
  Basis Set: AUG-CC-PVTZ
    Blend: AUG-CC-PVTZ
  Basis Set: (AUG-CC-PVTZ AUX)
    Blend: AUG-CC-PVTZ-JKFIT

    Orbital Energies [Eh]
    ---------------------

    Doubly Occupied:

       1A    -20.505735     2A    -15.582151     3A    -15.577423
       4A    -11.372513     5A    -11.273548     6A    -11.253177
       7A    -11.233153     8A     -1.379570     9A     -1.249625
      10A     -1.190051    11A     -1.034301    12A     -0.944553
      13A     -0.875350    14A     -0.762465    15A     -0.727971
      16A     -0.685131    17A     -0.639811    18A     -0.631018
      19A     -0.603241    20A     -0.592697    21A     -0.562101
      22A     -0.558023    23A     -0.535924    24A     -0.524991
      25A     -0.503497    26A     -0.441067    27A     -0.417802
      28A     -0.373331

  @DF-RHF Final Energy:  -341.20346653995847

   => Energetics <=

    Nuclear Repulsion Energy =            326.4924887939765199
    One-Electron Energy =               -1111.3314700737000749
    Two-Electron Energy =                 443.6355147397651422
    Total Energy =                       -341.2034665399584696
  Basis Set: (AUG-CC-PVTZ AUX)
    Blend: AUG-CC-PVTZ-RI
    Molecular point group: c1

    Geometry (in Angstrom), charge = 0, multiplicity = 1:

       Center              X                  Y                   Z               Mass
    ------------   -----------------  -----------------  -----------------  -----------------
         O           -2.106945247014     0.304763820505    -0.214311992649    15.994914619570
         N            0.169174752986     0.441643820505     0.091445007351    14.003074004430
         N           -0.914185247014    -1.631990179495     0.130583007351    14.003074004430
         C            1.392026752986    -0.154208179495     0.614352007351    12.000000000000
         C            2.386399752986    -0.533691179495    -0.480268992649    12.000000000000
         C            0.139687752986     1.888189820505    -0.042972992649    12.000000000000
         C           -1.018708247014    -0.242844179495    -0.024388992649    12.000000000000
         H            1.849068752986     0.575040820505     1.293916007351     1.007825032230
         H            1.127014752986    -1.023328179495     1.221683007351     1.007825032230
         H            1.965413752986    -1.288591179495    -1.150803992649     1.007825032230
         H            2.536615352986     0.348719020505    -1.107614092649     1.007825032230
         H            3.305961752986    -0.937470179495    -0.044967992649     1.007825032230
         H            1.004664752986     2.223403820505    -0.622834992649     1.007825032230
         H            0.159640752986     2.379278820505     0.937762007351     1.007825032230
         H           -0.777136247014     2.167579820505    -0.558464992649     1.007825032230
         H           -0.114657247014    -2.073420179495    -0.308460992649     1.007825032230
         H           -1.789130247014    -2.069095179495    -0.138297992649     1.007825032230

  Basis Set: AUG-CC-PVTZ
    Blend: AUG-CC-PVTZ
  Basis Set: (AUG-CC-PVTZ AUX)
    Blend: AUG-CC-PVTZ-JKFIT
	 Reference Energy          =    -341.2034665399584696 [Eh]
	 Singles Energy            =      -0.0000000000000000 [Eh]
	 Same-Spin Energy          =      -0.3490181497410242 [Eh]
	 Opposite-Spin Energy      =      -1.1398197182816325 [Eh]
	 Correlation Energy        =      -1.4888378680226566 [Eh]
	 Total Energy              =    -342.6923044079811120 [Eh]

	 ================> DF-SCS-MP2 Energies <==================
	-----------------------------------------------------------
	 SCS Same-Spin Scale       =       0.3333333333333333 [-]
	 SCS Opposite-Spin Scale   =       1.2000000000000000 [-]
	 SCS Same-Spin Energy      =      -0.1163393832470081 [Eh]
	 SCS Opposite-Spin Energy  =      -1.3677836619379591 [Eh]
	 SCS Correlation Energy    =      -1.4841230451849672 [Eh]
	 SCS Total Energy          =    -342.6875895851434279 [Eh]
	-----------------------------------------------------------

  Dipole Moment: [D]
     X:     3.7795      Y:    -1.1726      Z:    -0.1814     Total:     3.9614

*** Psi4 exiting successfully. Buy a developer a beer!
