                               Psi4 1.4a3.dev225

  ==> Input File <==

--------------------------------------------------------------------------
#psi4
#
memory 32 gb

molecule  {
0 1
  O       -2.1909590     0.3022110    -0.2104850
  N        0.0851610     0.4390910     0.0952720
  N       -0.9981990    -1.6345430     0.1344100
  C        1.3080130    -0.1567610     0.6181790
  C        2.3023860    -0.5362440    -0.4764420
  C        0.0560799     1.8657269    -0.0372959
  C       -1.1027220    -0.2453970    -0.0205620
  H        1.7650550     0.5724880     1.2977430
  H        1.0430010    -1.0258810     1.2255100
  H        1.8814000    -1.2911440    -1.1469770
  H        2.5641180     0.3366430    -1.0800470
  H        3.2219480    -0.9400230    -0.0411410
  H        0.9206510     2.2208510    -0.6190080
  H        0.0756270     2.3767260     0.9415890
  H       -0.8611500     2.1650270    -0.5546380
  H       -0.1986710    -2.0759730    -0.3046340
  H       -1.8731440    -2.0716480    -0.1344710
units angstrom
no_reorient  #important for SAPT in psi4, default
symmetry c1  #important for SAPT in psi4, default
}

set PROPERTIES_ORIGIN ["COM"]
properties('MP2/aug-cc-pvtz', properties = ['dipole'])
--------------------------------------------------------------------------

    Molecular point group: c1
  Charge       = 0
  Multiplicity = 1
  Basis Set: AUG-CC-PVTZ
    Blend: AUG-CC-PVTZ
  Basis Set: (AUG-CC-PVTZ AUX)
    Blend: AUG-CC-PVTZ-JKFIT

    Orbital Energies [Eh]
    ---------------------

    Doubly Occupied:

       1A    -20.506336     2A    -15.582447     3A    -15.578079
       4A    -11.373124     5A    -11.274808     6A    -11.252627
       7A    -11.233365     8A     -1.380599     9A     -1.252736
      10A     -1.191560    11A     -1.034948    12A     -0.943413
      13A     -0.877188    14A     -0.763076    15A     -0.729023
      16A     -0.685705    17A     -0.640622    18A     -0.633683
      19A     -0.604594    20A     -0.592304    21A     -0.558743
      22A     -0.555775    23A     -0.536345    24A     -0.523813
      25A     -0.505856    26A     -0.441486    27A     -0.418387
      28A     -0.373049

  @DF-RHF Final Energy:  -341.20434709104723

   => Energetics <=

    Nuclear Repulsion Energy =            326.7057554065360705
    One-Electron Energy =               -1111.7328241966206406
    Two-Electron Energy =                 443.8227216990372881
    Total Energy =                       -341.2043470910472251
  Basis Set: (AUG-CC-PVTZ AUX)
    Blend: AUG-CC-PVTZ-RI
    Molecular point group: c1

    Geometry (in Angstrom), charge = 0, multiplicity = 1:

       Center              X                  Y                   Z               Mass
    ------------   -----------------  -----------------  -----------------  -----------------
         O           -2.108093959873     0.307198387433    -0.214763867429    15.994914619570
         N            0.168026040127     0.444078387433     0.090993132571    14.003074004430
         N           -0.915333959873    -1.629555612567     0.130131132571    14.003074004430
         C            1.390878040127    -0.151773612567     0.613900132571    12.000000000000
         C            2.385251040127    -0.531256612567    -0.480720867429    12.000000000000
         C            0.138944940127     1.870714287433    -0.041574767429    12.000000000000
         C           -1.019856959873    -0.240409612567    -0.024840867429    12.000000000000
         H            1.847920040127     0.577475387433     1.293464132571     1.007825032230
         H            1.125866040127    -1.020893612567     1.221231132571     1.007825032230
         H            1.964265040127    -1.286156612567    -1.151255867429     1.007825032230
         H            2.646983040127     0.341630387433    -1.084325867429     1.007825032230
         H            3.304813040127    -0.935035612567    -0.045419867429     1.007825032230
         H            1.003516040127     2.225838387433    -0.623286867429     1.007825032230
         H            0.158492040127     2.381713387433     0.937310132571     1.007825032230
         H           -0.778284959873     2.170014387433    -0.558916867429     1.007825032230
         H           -0.115805959873    -2.070985612567    -0.308912867429     1.007825032230
         H           -1.790278959873    -2.066660612567    -0.138749867429     1.007825032230

  Basis Set: AUG-CC-PVTZ
    Blend: AUG-CC-PVTZ
  Basis Set: (AUG-CC-PVTZ AUX)
    Blend: AUG-CC-PVTZ-JKFIT
	 Reference Energy          =    -341.2043470910472251 [Eh]
	 Singles Energy            =      -0.0000000000000000 [Eh]
	 Same-Spin Energy          =      -0.3490563157503982 [Eh]
	 Opposite-Spin Energy      =      -1.1396889209255752 [Eh]
	 Correlation Energy        =      -1.4887452366759732 [Eh]
	 Total Energy              =    -342.6930923277232068 [Eh]

	 ================> DF-SCS-MP2 Energies <==================
	-----------------------------------------------------------
	 SCS Same-Spin Scale       =       0.3333333333333333 [-]
	 SCS Opposite-Spin Scale   =       1.2000000000000000 [-]
	 SCS Same-Spin Energy      =      -0.1163521052501327 [Eh]
	 SCS Opposite-Spin Energy  =      -1.3676267051106901 [Eh]
	 SCS Correlation Energy    =      -1.4839788103608227 [Eh]
	 SCS Total Energy          =    -342.6883259014080636 [Eh]
	-----------------------------------------------------------

  Dipole Moment: [D]
     X:     3.8026      Y:    -1.2232      Z:    -0.1829     Total:     3.9987

*** Psi4 exiting successfully. Buy a developer a beer!
