                               Psi4 1.4a3.dev225

  ==> Input File <==

--------------------------------------------------------------------------
#psi4
#
memory 32 gb

molecule  {
0 1
  O       -2.1909590     0.3022110    -0.2104850
  N        0.0851610     0.4390910     0.0952720
  N       -0.9981990    -1.6345430     0.1344100
  C        1.3080130    -0.1567610     0.6181790
  C        2.3023860    -0.5362440    -0.4764420
  C        0.0546594     1.9354123    -0.0437713
  C       -1.1027220    -0.2453970    -0.0205620
  H        1.7650550     0.5724880     1.2977430
  H        1.0430010    -1.0258810     1.2255100
  H        1.8814000    -1.2911440    -1.1469770
  H        2.5641180     0.3366430    -1.0800470
  H        3.2219480    -0.9400230    -0.0411410
  H        0.9206510     2.2208510    -0.6190080
  H        0.0756270     2.3767260     0.9415890
  H       -0.8611500     2.1650270    -0.5546380
  H       -0.1986710    -2.0759730    -0.3046340
  H       -1.8731440    -2.0716480    -0.1344710
units angstrom
no_reorient  #important for SAPT in psi4, default
symmetry c1  #important for SAPT in psi4, default
}

set PROPERTIES_ORIGIN ["COM"]
properties('MP2/aug-cc-pvtz', properties = ['dipole'])
--------------------------------------------------------------------------

    Molecular point group: c1
  Charge       = 0
  Multiplicity = 1
  Basis Set: AUG-CC-PVTZ
    Blend: AUG-CC-PVTZ
  Basis Set: (AUG-CC-PVTZ AUX)
    Blend: AUG-CC-PVTZ-JKFIT

    Orbital Energies [Eh]
    ---------------------

    Doubly Occupied:

       1A    -20.503893     2A    -15.580333     3A    -15.576161
       4A    -11.370651     5A    -11.273017     6A    -11.253903
       7A    -11.232188     8A     -1.376853     9A     -1.242124
      10A     -1.186237    11A     -1.030990    12A     -0.946796
      13A     -0.874051    14A     -0.760361    15A     -0.724727
      16A     -0.681750    17A     -0.638242    18A     -0.631105
      19A     -0.603238    20A     -0.580473    21A     -0.567670
      22A     -0.559638    23A     -0.538156    24A     -0.527238
      25A     -0.503551    26A     -0.439708    27A     -0.416476
      28A     -0.373228

  @DF-RHF Final Energy:  -341.20282210552608

   => Energetics <=

    Nuclear Repulsion Energy =            325.3721264564860576
    One-Electron Energy =               -1109.1643827662826425
    Two-Electron Energy =                 442.5894342042705034
    Total Energy =                       -341.2028221055260815
  Basis Set: (AUG-CC-PVTZ AUX)
    Blend: AUG-CC-PVTZ-RI
    Molecular point group: c1

    Geometry (in Angstrom), charge = 0, multiplicity = 1:

       Center              X                  Y                   Z               Mass
    ------------   -----------------  -----------------  -----------------  -----------------
         O           -2.107926972072     0.299006474931    -0.214002647572    15.994914619570
         N            0.168193027928     0.435886474931     0.091754352428    14.003074004430
         N           -0.915166972072    -1.637747525069     0.130892352428    14.003074004430
         C            1.391045027928    -0.159965525069     0.614661352428    12.000000000000
         C            2.385418027928    -0.539448525069    -0.479959647572    12.000000000000
         C            0.137691427928     1.932207774931    -0.047288947572    12.000000000000
         C           -1.019689972072    -0.248601525069    -0.024079647572    12.000000000000
         H            1.848087027928     0.569283474931     1.294225352428     1.007825032230
         H            1.126033027928    -1.029085525069     1.221992352428     1.007825032230
         H            1.964432027928    -1.294348525069    -1.150494647572     1.007825032230
         H            2.647150027928     0.333438474931    -1.083564647572     1.007825032230
         H            3.304980027928    -0.943227525069    -0.044658647572     1.007825032230
         H            1.003683027928     2.217646474931    -0.622525647572     1.007825032230
         H            0.158659027928     2.373521474931     0.938071352428     1.007825032230
         H           -0.778117972072     2.161822474931    -0.558155647572     1.007825032230
         H           -0.115638972072    -2.079177525069    -0.308151647572     1.007825032230
         H           -1.790111972072    -2.074852525069    -0.137988647572     1.007825032230

  Basis Set: AUG-CC-PVTZ
    Blend: AUG-CC-PVTZ
  Basis Set: (AUG-CC-PVTZ AUX)
    Blend: AUG-CC-PVTZ-JKFIT
	 Reference Energy          =    -341.2028221055260815 [Eh]
	 Singles Energy            =      -0.0000000000000000 [Eh]
	 Same-Spin Energy          =      -0.3486401668874434 [Eh]
	 Opposite-Spin Energy      =      -1.1396714084637605 [Eh]
	 Correlation Energy        =      -1.4883115753512040 [Eh]
	 Total Energy              =    -342.6911336808772717 [Eh]

	 ================> DF-SCS-MP2 Energies <==================
	-----------------------------------------------------------
	 SCS Same-Spin Scale       =       0.3333333333333333 [-]
	 SCS Opposite-Spin Scale   =       1.2000000000000000 [-]
	 SCS Same-Spin Energy      =      -0.1162133889624811 [Eh]
	 SCS Opposite-Spin Energy  =      -1.3676056901565126 [Eh]
	 SCS Correlation Energy    =      -1.4838190791189936 [Eh]
	 SCS Total Energy          =    -342.6866411846450546 [Eh]
	-----------------------------------------------------------

  Dipole Moment: [D]
     X:     3.8427      Y:    -1.0259      Z:    -0.1700     Total:     3.9809

*** Psi4 exiting successfully. Buy a developer a beer!
