                               Psi4 1.4a3.dev225

  ==> Input File <==

--------------------------------------------------------------------------
#psi4
#
memory 32 gb

molecule  {
0 1
  O       -2.2004699     0.2829079    -0.2104263
  N        0.0851610     0.4390910     0.0952720
  N       -0.9981990    -1.6345430     0.1344100
  C        1.3080130    -0.1567610     0.6181790
  C        2.3023860    -0.5362440    -0.4764420
  C        0.0556740     1.8856370    -0.0391460
  C       -1.1027220    -0.2453970    -0.0205620
  H        1.7650550     0.5724880     1.2977430
  H        1.0430010    -1.0258810     1.2255100
  H        1.8814000    -1.2911440    -1.1469770
  H        2.5641180     0.3366430    -1.0800470
  H        3.2219480    -0.9400230    -0.0411410
  H        0.9206510     2.2208510    -0.6190080
  H        0.0756270     2.3767260     0.9415890
  H       -0.8611500     2.1650270    -0.5546380
  H       -0.1986710    -2.0759730    -0.3046340
  H       -1.8731440    -2.0716480    -0.1344710
units angstrom
no_reorient  #important for SAPT in psi4, default
symmetry c1  #important for SAPT in psi4, default
}

set PROPERTIES_ORIGIN ["COM"]
properties('MP2/aug-cc-pvtz', properties = ['dipole'])
--------------------------------------------------------------------------

    Molecular point group: c1
  Charge       = 0
  Multiplicity = 1
  Basis Set: AUG-CC-PVTZ
    Blend: AUG-CC-PVTZ
  Basis Set: (AUG-CC-PVTZ AUX)
    Blend: AUG-CC-PVTZ-JKFIT

    Orbital Energies [Eh]
    ---------------------

    Doubly Occupied:

       1A    -20.505612     2A    -15.582960     3A    -15.576119
       4A    -11.372322     5A    -11.274808     6A    -11.253676
       7A    -11.233293     8A     -1.379336     9A     -1.250300
      10A     -1.188768    11A     -1.034276    12A     -0.944863
      13A     -0.876743    14A     -0.762087    15A     -0.727412
      16A     -0.684293    17A     -0.640076    18A     -0.632820
      19A     -0.603915    20A     -0.589060    21A     -0.560892
      22A     -0.557495    23A     -0.537270    24A     -0.526238
      25A     -0.505947    26A     -0.440814    27A     -0.416826
      28A     -0.374119

  @DF-RHF Final Energy:  -341.20479120096661

   => Energetics <=

    Nuclear Repulsion Energy =            326.2210741921642807
    One-Electron Energy =               -1110.7870528100602314
    Two-Electron Energy =                 443.3611874169293969
    Total Energy =                       -341.2047912009666106
  Basis Set: (AUG-CC-PVTZ AUX)
    Blend: AUG-CC-PVTZ-RI
    Molecular point group: c1

    Geometry (in Angstrom), charge = 0, multiplicity = 1:

       Center              X                  Y                   Z               Mass
    ------------   -----------------  -----------------  -----------------  -----------------
         O           -2.116066871138     0.288579365670    -0.214496875485    15.994914619570
         N            0.169564028862     0.444762465670     0.091201424515    14.003074004430
         N           -0.913795971138    -1.628871534330     0.130339424515    14.003074004430
         C            1.392416028862    -0.151089534330     0.614108424515    12.000000000000
         C            2.386789028862    -0.530572534330    -0.480512575485    12.000000000000
         C            0.140077028862     1.891308465670    -0.043216575485    12.000000000000
         C           -1.018318971138    -0.239725534330    -0.024632575485    12.000000000000
         H            1.849458028862     0.578159465670     1.293672424515     1.007825032230
         H            1.127404028862    -1.020209534330     1.221439424515     1.007825032230
         H            1.965803028862    -1.285472534330    -1.151047575485     1.007825032230
         H            2.648521028862     0.342314465670    -1.084117575485     1.007825032230
         H            3.306351028862    -0.934351534330    -0.045211575485     1.007825032230
         H            1.005054028862     2.226522465670    -0.623078575485     1.007825032230
         H            0.160030028862     2.382397465670     0.937518424515     1.007825032230
         H           -0.776746971138     2.170698465670    -0.558708575485     1.007825032230
         H           -0.114267971138    -2.070301534330    -0.308704575485     1.007825032230
         H           -1.788740971138    -2.065976534330    -0.138541575485     1.007825032230

  Basis Set: AUG-CC-PVTZ
    Blend: AUG-CC-PVTZ
  Basis Set: (AUG-CC-PVTZ AUX)
    Blend: AUG-CC-PVTZ-JKFIT
	 Reference Energy          =    -341.2047912009666106 [Eh]
	 Singles Energy            =      -0.0000000000000000 [Eh]
	 Same-Spin Energy          =      -0.3488580432615486 [Eh]
	 Opposite-Spin Energy      =      -1.1395905041883561 [Eh]
	 Correlation Energy        =      -1.4884485474499045 [Eh]
	 Total Energy              =    -342.6932397484164881 [Eh]

	 ================> DF-SCS-MP2 Energies <==================
	-----------------------------------------------------------
	 SCS Same-Spin Scale       =       0.3333333333333333 [-]
	 SCS Opposite-Spin Scale   =       1.2000000000000000 [-]
	 SCS Same-Spin Energy      =      -0.1162860144205162 [Eh]
	 SCS Opposite-Spin Energy  =      -1.3675086050260272 [Eh]
	 SCS Correlation Energy    =      -1.4837946194465435 [Eh]
	 SCS Total Energy          =    -342.6885858204131523 [Eh]
	-----------------------------------------------------------

  Dipole Moment: [D]
     X:     3.8533      Y:    -1.1051      Z:    -0.1775     Total:     4.0126

*** Psi4 exiting successfully. Buy a developer a beer!
