                               Psi4 1.4a3.dev225

  ==> Input File <==

--------------------------------------------------------------------------
#psi4
#
memory 32 gb

molecule  {
0 1
  O       -2.1270407     0.4143243    -0.2096230
  N        0.0851610     0.4390910     0.0952720
  N       -0.9981990    -1.6345430     0.1344100
  C        1.3080130    -0.1567610     0.6181790
  C        2.3023860    -0.5362440    -0.4764420
  C        0.0556740     1.8856370    -0.0391460
  C       -1.1027220    -0.2453970    -0.0205620
  H        1.7650550     0.5724880     1.2977430
  H        1.0430010    -1.0258810     1.2255100
  H        1.8814000    -1.2911440    -1.1469770
  H        2.5641180     0.3366430    -1.0800470
  H        3.2219480    -0.9400230    -0.0411410
  H        0.9206510     2.2208510    -0.6190080
  H        0.0756270     2.3767260     0.9415890
  H       -0.8611500     2.1650270    -0.5546380
  H       -0.1986710    -2.0759730    -0.3046340
  H       -1.8731440    -2.0716480    -0.1344710
units angstrom
no_reorient  #important for SAPT in psi4, default
symmetry c1  #important for SAPT in psi4, default
}

set PROPERTIES_ORIGIN ["COM"]
properties('MP2/aug-cc-pvtz', properties = ['dipole'])
--------------------------------------------------------------------------

    Molecular point group: c1
  Charge       = 0
  Multiplicity = 1
  Basis Set: AUG-CC-PVTZ
    Blend: AUG-CC-PVTZ
  Basis Set: (AUG-CC-PVTZ AUX)
    Blend: AUG-CC-PVTZ-JKFIT

    Orbital Energies [Eh]
    ---------------------

    Doubly Occupied:

       1A    -20.505148     2A    -15.585663     3A    -15.575463
       4A    -11.373103     5A    -11.270924     6A    -11.247341
       7A    -11.231223     8A     -1.381059     9A     -1.244324
      10A     -1.196576    11A     -1.030452    12A     -0.940688
      13A     -0.873150    14A     -0.763983    15A     -0.729632
      16A     -0.685607    17A     -0.638030    18A     -0.632811
      19A     -0.605300    20A     -0.586828    21A     -0.557653
      22A     -0.555616    23A     -0.534673    24A     -0.520501
      25A     -0.502854    26A     -0.441450    27A     -0.422385
      28A     -0.367973

  @DF-RHF Final Energy:  -341.20068794690599

   => Energetics <=

    Nuclear Repulsion Energy =            327.0380990202681346
    One-Electron Energy =               -1112.4767574452300778
    Two-Electron Energy =                 444.2379704780558995
    Total Energy =                       -341.2006879469059868
  Basis Set: (AUG-CC-PVTZ AUX)
    Blend: AUG-CC-PVTZ-RI
    Molecular point group: c1

    Geometry (in Angstrom), charge = 0, multiplicity = 1:

       Center              X                  Y                   Z               Mass
    ------------   -----------------  -----------------  -----------------  -----------------
         O           -2.054143369507     0.399403992108    -0.213819445405    15.994914619570
         N            0.158058330493     0.424170692108     0.091075554595    14.003074004430
         N           -0.925301669507    -1.649463307892     0.130213554595    14.003074004430
         C            1.380910330493    -0.171681307892     0.613982554595    12.000000000000
         C            2.375283330493    -0.551164307892    -0.480638445405    12.000000000000
         C            0.128571330493     1.870716692108    -0.043342445405    12.000000000000
         C           -1.029824669507    -0.260317307892    -0.024758445405    12.000000000000
         H            1.837952330493     0.557567692108     1.293546554595     1.007825032230
         H            1.115898330493    -1.040801307892     1.221313554595     1.007825032230
         H            1.954297330493    -1.306064307892    -1.151173445405     1.007825032230
         H            2.637015330493     0.321722692108    -1.084243445405     1.007825032230
         H            3.294845330493    -0.954943307892    -0.045337445405     1.007825032230
         H            0.993548330493     2.205930692108    -0.623204445405     1.007825032230
         H            0.148524330493     2.361805692108     0.937392554595     1.007825032230
         H           -0.788252669507     2.150106692108    -0.558834445405     1.007825032230
         H           -0.125773669507    -2.090893307892    -0.308830445405     1.007825032230
         H           -1.800246669507    -2.086568307892    -0.138667445405     1.007825032230

  Basis Set: AUG-CC-PVTZ
    Blend: AUG-CC-PVTZ
  Basis Set: (AUG-CC-PVTZ AUX)
    Blend: AUG-CC-PVTZ-JKFIT
	 Reference Energy          =    -341.2006879469059868 [Eh]
	 Singles Energy            =      -0.0000000000000000 [Eh]
	 Same-Spin Energy          =      -0.3493482007536239 [Eh]
	 Opposite-Spin Energy      =      -1.1401547078161187 [Eh]
	 Correlation Energy        =      -1.4895029085697427 [Eh]
	 Total Energy              =    -342.6901908554757483 [Eh]

	 ================> DF-SCS-MP2 Energies <==================
	-----------------------------------------------------------
	 SCS Same-Spin Scale       =       0.3333333333333333 [-]
	 SCS Opposite-Spin Scale   =       1.2000000000000000 [-]
	 SCS Same-Spin Energy      =      -0.1164494002512080 [Eh]
	 SCS Opposite-Spin Energy  =      -1.3681856493793425 [Eh]
	 SCS Correlation Energy    =      -1.4846350496305505 [Eh]
	 SCS Total Energy          =    -342.6853229965365131 [Eh]
	-----------------------------------------------------------

  Dipole Moment: [D]
     X:     3.5598      Y:    -1.5090      Z:    -0.1889     Total:     3.8710

*** Psi4 exiting successfully. Buy a developer a beer!
