                               Psi4 1.4a3.dev225

  ==> Input File <==

--------------------------------------------------------------------------
#psi4
#
memory 32 gb

molecule  {
0 1
  O       -2.1909590     0.3022110    -0.2104850
  N        0.0851610     0.4390910     0.0952720
  N       -0.9981990    -1.6345430     0.1344100
  C        1.3080130    -0.1567610     0.6181790
  C        2.3023860    -0.5362440    -0.4764420
  C        0.0556740     1.8856370    -0.0391460
  C       -1.1027220    -0.2453970    -0.0205620
  H        1.7650550     0.5724880     1.2977430
  H        1.0430010    -1.0258810     1.2255100
  H        1.8814000    -1.2911440    -1.1469770
  H        2.5272047     0.3408873    -1.0887095
  H        3.2219480    -0.9400230    -0.0411410
  H        0.9206510     2.2208510    -0.6190080
  H        0.0756270     2.3767260     0.9415890
  H       -0.8611500     2.1650270    -0.5546380
  H       -0.1986710    -2.0759730    -0.3046340
  H       -1.8731440    -2.0716480    -0.1344710
units angstrom
no_reorient  #important for SAPT in psi4, default
symmetry c1  #important for SAPT in psi4, default
}

set PROPERTIES_ORIGIN ["COM"]
properties('MP2/aug-cc-pvtz', properties = ['dipole'])
--------------------------------------------------------------------------

    Molecular point group: c1
  Charge       = 0
  Multiplicity = 1
  Basis Set: AUG-CC-PVTZ
    Blend: AUG-CC-PVTZ
  Basis Set: (AUG-CC-PVTZ AUX)
    Blend: AUG-CC-PVTZ-JKFIT

    Orbital Energies [Eh]
    ---------------------

    Doubly Occupied:

       1A    -20.505646     2A    -15.581985     3A    -15.577485
       4A    -11.372436     5A    -11.274033     6A    -11.252931
       7A    -11.233063     8A     -1.379487     9A     -1.249471
      10A     -1.190046    11A     -1.033913    12A     -0.944356
      13A     -0.875928    14A     -0.762357    15A     -0.727821
      16A     -0.684686    17A     -0.639713    18A     -0.632236
      19A     -0.603747    20A     -0.590046    21A     -0.560839
      22A     -0.557641    23A     -0.536552    24A     -0.525316
      25A     -0.505211    26A     -0.440999    27A     -0.417828
      28A     -0.373285

  @DF-RHF Final Energy:  -341.20464656868188

   => Energetics <=

    Nuclear Repulsion Energy =            326.3741514995668354
    One-Electron Energy =               -1111.0994813846759826
    Two-Electron Energy =                 443.5206833164273235
    Total Energy =                       -341.2046465686818806
  Basis Set: (AUG-CC-PVTZ AUX)
    Blend: AUG-CC-PVTZ-RI
    Molecular point group: c1

    Geometry (in Angstrom), charge = 0, multiplicity = 1:

       Center              X                  Y                   Z               Mass
    ------------   -----------------  -----------------  -----------------  -----------------
         O           -2.107681800479     0.304815938877    -0.214460853199    15.994914619570
         N            0.168438199521     0.441695938877     0.091296146801    14.003074004430
         N           -0.914921800479    -1.631938061123     0.130434146801    14.003074004430
         C            1.391290199521    -0.154156061123     0.614203146801    12.000000000000
         C            2.385663199521    -0.533639061123    -0.480417853199    12.000000000000
         C            0.138951199521     1.888241938877    -0.043121853199    12.000000000000
         C           -1.019444800479    -0.242792061123    -0.024537853199    12.000000000000
         H            1.848332199521     0.575092938877     1.293767146801     1.007825032230
         H            1.126278199521    -1.023276061123     1.221534146801     1.007825032230
         H            1.964677199521    -1.288539061123    -1.150952853199     1.007825032230
         H            2.610481899521     0.343492238877    -1.092685353199     1.007825032230
         H            3.305225199521    -0.937418061123    -0.045116853199     1.007825032230
         H            1.003928199521     2.223455938877    -0.622983853199     1.007825032230
         H            0.158904199521     2.379330938877     0.937613146801     1.007825032230
         H           -0.777872800479     2.167631938877    -0.558613853199     1.007825032230
         H           -0.115393800479    -2.073368061123    -0.308609853199     1.007825032230
         H           -1.789866800479    -2.069043061123    -0.138446853199     1.007825032230

  Basis Set: AUG-CC-PVTZ
    Blend: AUG-CC-PVTZ
  Basis Set: (AUG-CC-PVTZ AUX)
    Blend: AUG-CC-PVTZ-JKFIT
	 Reference Energy          =    -341.2046465686818806 [Eh]
	 Singles Energy            =      -0.0000000000000000 [Eh]
	 Same-Spin Energy          =      -0.3489265919975481 [Eh]
	 Opposite-Spin Energy      =      -1.1396700706566891 [Eh]
	 Correlation Energy        =      -1.4885966626542373 [Eh]
	 Total Energy              =    -342.6932432313361119 [Eh]

	 ================> DF-SCS-MP2 Energies <==================
	-----------------------------------------------------------
	 SCS Same-Spin Scale       =       0.3333333333333333 [-]
	 SCS Opposite-Spin Scale   =       1.2000000000000000 [-]
	 SCS Same-Spin Energy      =      -0.1163088639991827 [Eh]
	 SCS Opposite-Spin Energy  =      -1.3676040847880269 [Eh]
	 SCS Correlation Energy    =      -1.4839129487872096 [Eh]
	 SCS Total Energy          =    -342.6885595174691161 [Eh]
	-----------------------------------------------------------

  Dipole Moment: [D]
     X:     3.8029      Y:    -1.1668      Z:    -0.1801     Total:     3.9820

*** Psi4 exiting successfully. Buy a developer a beer!
