                               Psi4 1.4a3.dev225

  ==> Input File <==

--------------------------------------------------------------------------
#psi4
#
memory 32 gb

molecule  {
0 1
  O       -2.1909590     0.3022110    -0.2104850
  N        0.0851610     0.4390910     0.0952720
  N       -0.9981990    -1.6345430     0.1344100
  C        1.3080130    -0.1567610     0.6181790
  C        2.2372562    -0.5113885    -0.4047461
  C        0.0556740     1.8856370    -0.0391460
  C       -1.1027220    -0.2453970    -0.0205620
  H        1.7650550     0.5724880     1.2977430
  H        1.0430010    -1.0258810     1.2255100
  H        1.8814000    -1.2911440    -1.1469770
  H        2.5641180     0.3366430    -1.0800470
  H        3.2219480    -0.9400230    -0.0411410
  H        0.9206510     2.2208510    -0.6190080
  H        0.0756270     2.3767260     0.9415890
  H       -0.8611500     2.1650270    -0.5546380
  H       -0.1986710    -2.0759730    -0.3046340
  H       -1.8731440    -2.0716480    -0.1344710
units angstrom
no_reorient  #important for SAPT in psi4, default
symmetry c1  #important for SAPT in psi4, default
}

set PROPERTIES_ORIGIN ["COM"]
properties('MP2/aug-cc-pvtz', properties = ['dipole'])
--------------------------------------------------------------------------

    Molecular point group: c1
  Charge       = 0
  Multiplicity = 1
  Basis Set: AUG-CC-PVTZ
    Blend: AUG-CC-PVTZ
  Basis Set: (AUG-CC-PVTZ AUX)
    Blend: AUG-CC-PVTZ-JKFIT

    Orbital Energies [Eh]
    ---------------------

    Doubly Occupied:

       1A    -20.505666     2A    -15.581590     3A    -15.577409
       4A    -11.372556     5A    -11.270012     6A    -11.252794
       7A    -11.239301     8A     -1.379627     9A     -1.251885
      10A     -1.190534    11A     -1.051642    12A     -0.944099
      13A     -0.867896    14A     -0.763452    15A     -0.729423
      16A     -0.686996    17A     -0.647233    18A     -0.636025
      19A     -0.603874    20A     -0.586827    21A     -0.570478
      22A     -0.556352    23A     -0.544891    24A     -0.510263
      25A     -0.489781    26A     -0.440892    27A     -0.417617
      28A     -0.376496

  @DF-RHF Final Energy:  -341.19332778151784

   => Energetics <=

    Nuclear Repulsion Energy =            327.8473131232969422
    One-Electron Energy =               -1113.9900623428927702
    Two-Electron Energy =                 444.9494214380779340
    Total Energy =                       -341.1933277815178371
  Basis Set: (AUG-CC-PVTZ AUX)
    Blend: AUG-CC-PVTZ-RI
    Molecular point group: c1

    Geometry (in Angstrom), charge = 0, multiplicity = 1:

       Center              X                  Y                   Z               Mass
    ------------   -----------------  -----------------  -----------------  -----------------
         O           -2.100389868052     0.301935938221    -0.222974635857    15.994914619570
         N            0.175730131948     0.438815938221     0.082782364143    14.003074004430
         N           -0.907629868052    -1.634818061779     0.121920364143    14.003074004430
         C            1.398582131948    -0.157036061779     0.605689364143    12.000000000000
         C            2.327825331948    -0.511663561779    -0.417235735857    12.000000000000
         C            0.146243131948     1.885361938221    -0.051635635857    12.000000000000
         C           -1.012152868052    -0.245672061779    -0.033051635857    12.000000000000
         H            1.855624131948     0.572212938221     1.285253364143     1.007825032230
         H            1.133570131948    -1.026156061779     1.213020364143     1.007825032230
         H            1.971969131948    -1.291419061779    -1.159466635857     1.007825032230
         H            2.654687131948     0.336367938221    -1.092536635857     1.007825032230
         H            3.312517131948    -0.940298061779    -0.053630635857     1.007825032230
         H            1.011220131948     2.220575938221    -0.631497635857     1.007825032230
         H            0.166196131948     2.376450938221     0.929099364143     1.007825032230
         H           -0.770580868052     2.164751938221    -0.567127635857     1.007825032230
         H           -0.108101868052    -2.076248061779    -0.317123635857     1.007825032230
         H           -1.782574868052    -2.071923061779    -0.146960635857     1.007825032230

  Basis Set: AUG-CC-PVTZ
    Blend: AUG-CC-PVTZ
  Basis Set: (AUG-CC-PVTZ AUX)
    Blend: AUG-CC-PVTZ-JKFIT
	 Reference Energy          =    -341.1933277815178371 [Eh]
	 Singles Energy            =      -0.0000000000000000 [Eh]
	 Same-Spin Energy          =      -0.3498563288885208 [Eh]
	 Opposite-Spin Energy      =      -1.1407009402747428 [Eh]
	 Correlation Energy        =      -1.4905572691632636 [Eh]
	 Total Energy              =    -342.6838850506811127 [Eh]

	 ================> DF-SCS-MP2 Energies <==================
	-----------------------------------------------------------
	 SCS Same-Spin Scale       =       0.3333333333333333 [-]
	 SCS Opposite-Spin Scale   =       1.2000000000000000 [-]
	 SCS Same-Spin Energy      =      -0.1166187762961736 [Eh]
	 SCS Opposite-Spin Energy  =      -1.3688411283296913 [Eh]
	 SCS Correlation Energy    =      -1.4854599046258650 [Eh]
	 SCS Total Energy          =    -342.6787876861437212 [Eh]
	-----------------------------------------------------------

  Dipole Moment: [D]
     X:     3.8462      Y:    -1.1731      Z:    -0.1886     Total:     4.0255

*** Psi4 exiting successfully. Buy a developer a beer!
