                               Psi4 1.4a3.dev225

  ==> Input File <==

--------------------------------------------------------------------------
#psi4
#
memory 32 gb

molecule  {
0 1
  O       -2.1909590     0.3022110    -0.2104850
  N        0.0851610     0.4390910     0.0952720
  N       -0.9981990    -1.6345430     0.1344100
  C        1.3080130    -0.1567610     0.6181790
  C        2.3023860    -0.5362440    -0.4764420
  C        0.0556740     1.8856370    -0.0391460
  C       -1.1101791    -0.1462902    -0.0316183
  H        1.7650550     0.5724880     1.2977430
  H        1.0430010    -1.0258810     1.2255100
  H        1.8814000    -1.2911440    -1.1469770
  H        2.5641180     0.3366430    -1.0800470
  H        3.2219480    -0.9400230    -0.0411410
  H        0.9206510     2.2208510    -0.6190080
  H        0.0756270     2.3767260     0.9415890
  H       -0.8611500     2.1650270    -0.5546380
  H       -0.1986710    -2.0759730    -0.3046340
  H       -1.8731440    -2.0716480    -0.1344710
units angstrom
no_reorient  #important for SAPT in psi4, default
symmetry c1  #important for SAPT in psi4, default
}

set PROPERTIES_ORIGIN ["COM"]
properties('MP2/aug-cc-pvtz', properties = ['dipole'])
--------------------------------------------------------------------------

    Molecular point group: c1
  Charge       = 0
  Multiplicity = 1
  Basis Set: AUG-CC-PVTZ
    Blend: AUG-CC-PVTZ
  Basis Set: (AUG-CC-PVTZ AUX)
    Blend: AUG-CC-PVTZ-JKFIT

    Orbital Energies [Eh]
    ---------------------

    Doubly Occupied:

       1A    -20.516400     2A    -15.587468     3A    -15.557494
       4A    -11.370541     5A    -11.278936     6A    -11.256976
       7A    -11.234595     8A     -1.409409     9A     -1.267551
      10A     -1.152995    11A     -1.040550    12A     -0.949564
      13A     -0.884770    14A     -0.749783    15A     -0.714301
      16A     -0.683238    17A     -0.649171    18A     -0.628065
      19A     -0.618913    20A     -0.586937    21A     -0.561392
      22A     -0.557428    23A     -0.541826    24A     -0.533288
      25A     -0.508748    26A     -0.448335    27A     -0.406145
      28A     -0.383122

  @DF-RHF Final Energy:  -341.19553338944951

   => Energetics <=

    Nuclear Repulsion Energy =            326.7576002306410032
    One-Electron Energy =               -1111.7503833234363810
    Two-Electron Energy =                 443.7972497033459263
    Total Energy =                       -341.1955333894495084
  Basis Set: (AUG-CC-PVTZ AUX)
    Blend: AUG-CC-PVTZ-RI
    Molecular point group: c1

    Geometry (in Angstrom), charge = 0, multiplicity = 1:

       Center              X                  Y                   Z               Mass
    ------------   -----------------  -----------------  -----------------  -----------------
         O           -2.107169619796     0.293207278376    -0.213246647186    15.994914619570
         N            0.168950380204     0.430087278376     0.092510352814    14.003074004430
         N           -0.914409619796    -1.643546721624     0.131648352814    14.003074004430
         C            1.391802380204    -0.165764721624     0.615417352814    12.000000000000
         C            2.386175380204    -0.545247721624    -0.479203647186    12.000000000000
         C            0.139463380204     1.876633278376    -0.041907647186    12.000000000000
         C           -1.026389719796    -0.155293921624    -0.034379947186    12.000000000000
         H            1.848844380204     0.563484278376     1.294981352814     1.007825032230
         H            1.126790380204    -1.034884721624     1.222748352814     1.007825032230
         H            1.965189380204    -1.300147721624    -1.149738647186     1.007825032230
         H            2.647907380204     0.327639278376    -1.082808647186     1.007825032230
         H            3.305737380204    -0.949026721624    -0.043902647186     1.007825032230
         H            1.004440380204     2.211847278376    -0.621769647186     1.007825032230
         H            0.159416380204     2.367722278376     0.938827352814     1.007825032230
         H           -0.777360619796     2.156023278376    -0.557399647186     1.007825032230
         H           -0.114881619796    -2.084976721624    -0.307395647186     1.007825032230
         H           -1.789354619796    -2.080651721624    -0.137232647186     1.007825032230

  Basis Set: AUG-CC-PVTZ
    Blend: AUG-CC-PVTZ
  Basis Set: (AUG-CC-PVTZ AUX)
    Blend: AUG-CC-PVTZ-JKFIT
	 Reference Energy          =    -341.1955333894495084 [Eh]
	 Singles Energy            =      -0.0000000000000000 [Eh]
	 Same-Spin Energy          =      -0.3482677790179650 [Eh]
	 Opposite-Spin Energy      =      -1.1390972719934296 [Eh]
	 Correlation Energy        =      -1.4873650510113945 [Eh]
	 Total Energy              =    -342.6828984404609173 [Eh]

	 ================> DF-SCS-MP2 Energies <==================
	-----------------------------------------------------------
	 SCS Same-Spin Scale       =       0.3333333333333333 [-]
	 SCS Opposite-Spin Scale   =       1.2000000000000000 [-]
	 SCS Same-Spin Energy      =      -0.1160892596726550 [Eh]
	 SCS Opposite-Spin Energy  =      -1.3669167263921154 [Eh]
	 SCS Correlation Energy    =      -1.4830059860647704 [Eh]
	 SCS Total Energy          =    -342.6785393755142763 [Eh]
	-----------------------------------------------------------

  Dipole Moment: [D]
     X:     3.8297      Y:    -0.3590      Z:    -0.2257     Total:     3.8531

*** Psi4 exiting successfully. Buy a developer a beer!
