                               Psi4 1.4a3.dev225

  ==> Input File <==

--------------------------------------------------------------------------
#psi4
#
memory 32 gb

molecule  {
0 1
  O       -2.1909590     0.3022110    -0.2104850
  N        0.0851610     0.4390910     0.0952720
  N       -0.9981990    -1.6345430     0.1344100
  C        1.3080130    -0.1567610     0.6181790
  C        2.3023860    -0.5362440    -0.4764420
  C        0.0556740     1.8856370    -0.0391460
  C       -1.1027220    -0.2453970    -0.0205620
  H        1.7650550     0.5724880     1.2977430
  H        1.0430010    -1.0258810     1.2255100
  H        1.8814000    -1.2911440    -1.1469770
  H        2.5641180     0.3366430    -1.0800470
  H        3.2219480    -0.9400230    -0.0411410
  H        0.9206510     2.2208510    -0.6190080
  H        0.0792647     2.4662591     1.1203922
  H       -0.8611500     2.1650270    -0.5546380
  H       -0.1986710    -2.0759730    -0.3046340
  H       -1.8731440    -2.0716480    -0.1344710
units angstrom
no_reorient  #important for SAPT in psi4, default
symmetry c1  #important for SAPT in psi4, default
}

set PROPERTIES_ORIGIN ["COM"]
properties('MP2/aug-cc-pvtz', properties = ['dipole'])
--------------------------------------------------------------------------

    Molecular point group: c1
  Charge       = 0
  Multiplicity = 1
  Basis Set: AUG-CC-PVTZ
    Blend: AUG-CC-PVTZ
  Basis Set: (AUG-CC-PVTZ AUX)
    Blend: AUG-CC-PVTZ-JKFIT

    Orbital Energies [Eh]
    ---------------------

    Doubly Occupied:

       1A    -20.507735     2A    -15.586206     3A    -15.579291
       4A    -11.374653     5A    -11.275925     6A    -11.275057
       7A    -11.234100     8A     -1.381529     9A     -1.251517
      10A     -1.191660    11A     -1.034269    12A     -0.934893
      13A     -0.877626    14A     -0.759940    15A     -0.728920
      16A     -0.686402    17A     -0.634311    18A     -0.634201
      19A     -0.604558    20A     -0.586965    21A     -0.562998
      22A     -0.545978    23A     -0.528289    24A     -0.524888
      25A     -0.502816    26A     -0.442518    27A     -0.419103
      28A     -0.371549

  @DF-RHF Final Energy:  -341.18526629329136

   => Energetics <=

    Nuclear Repulsion Energy =            325.4917206181113443
    One-Electron Energy =               -1109.2781744999881539
    Two-Electron Energy =                 442.6011875885854465
    Total Energy =                       -341.1852662932913631
  Basis Set: (AUG-CC-PVTZ AUX)
    Blend: AUG-CC-PVTZ-RI
    Molecular point group: c1

    Geometry (in Angstrom), charge = 0, multiplicity = 1:

       Center              X                  Y                   Z               Mass
    ------------   -----------------  -----------------  -----------------  -----------------
         O           -2.108082158904     0.303973885917    -0.216311694665    15.994914619570
         N            0.168037841096     0.440853885917     0.089445305335    14.003074004430
         N           -0.915322158904    -1.632780114083     0.128583305335    14.003074004430
         C            1.390889841096    -0.154998114083     0.612352305335    12.000000000000
         C            2.385262841096    -0.534481114083    -0.482268694665    12.000000000000
         C            0.138550841096     1.887399885917    -0.044972694665    12.000000000000
         C           -1.019845158904    -0.243634114083    -0.026388694665    12.000000000000
         H            1.847931841096     0.574250885917     1.291916305335     1.007825032230
         H            1.125877841096    -1.024118114083     1.219683305335     1.007825032230
         H            1.964276841096    -1.289381114083    -1.152803694665     1.007825032230
         H            2.646994841096     0.338405885917    -1.085873694665     1.007825032230
         H            3.304824841096    -0.938260114083    -0.046967694665     1.007825032230
         H            1.003527841096     2.222613885917    -0.624834694665     1.007825032230
         H            0.162141541096     2.468021985917     1.114565505335     1.007825032230
         H           -0.778273158904     2.166789885917    -0.560464694665     1.007825032230
         H           -0.115794158904    -2.074210114083    -0.310460694665     1.007825032230
         H           -1.790267158904    -2.069885114083    -0.140297694665     1.007825032230

  Basis Set: AUG-CC-PVTZ
    Blend: AUG-CC-PVTZ
  Basis Set: (AUG-CC-PVTZ AUX)
    Blend: AUG-CC-PVTZ-JKFIT
	 Reference Energy          =    -341.1852662932913631 [Eh]
	 Singles Energy            =      -0.0000000000000000 [Eh]
	 Same-Spin Energy          =      -0.3490011922866736 [Eh]
	 Opposite-Spin Energy      =      -1.1412013464480657 [Eh]
	 Correlation Energy        =      -1.4902025387347393 [Eh]
	 Total Energy              =    -342.6754688320261266 [Eh]

	 ================> DF-SCS-MP2 Energies <==================
	-----------------------------------------------------------
	 SCS Same-Spin Scale       =       0.3333333333333333 [-]
	 SCS Opposite-Spin Scale   =       1.2000000000000000 [-]
	 SCS Same-Spin Energy      =      -0.1163337307622245 [Eh]
	 SCS Opposite-Spin Energy  =      -1.3694416157376788 [Eh]
	 SCS Correlation Energy    =      -1.4857753464999033 [Eh]
	 SCS Total Energy          =    -342.6710416397912695 [Eh]
	-----------------------------------------------------------

  Dipole Moment: [D]
     X:     3.7805      Y:    -1.3535      Z:    -0.3201     Total:     4.0283

*** Psi4 exiting successfully. Buy a developer a beer!
