                               Psi4 1.4a3.dev225

  ==> Input File <==

--------------------------------------------------------------------------
#psi4
#
memory 32 gb

molecule  {
0 1
  O       -2.1909590     0.3022110    -0.2104850
  N        0.0851610     0.4390910     0.0952720
  N       -0.9981990    -1.6345430     0.1344100
  C        1.3080130    -0.1567610     0.6181790
  C        2.3023860    -0.5362440    -0.4764420
  C        0.0556740     1.8856370    -0.0391460
  C       -1.1027220    -0.2453970    -0.0205620
  H        1.7650550     0.5724880     1.2977430
  H        1.0551251    -0.9861193     1.1977250
  H        1.8814000    -1.2911440    -1.1469770
  H        2.5641180     0.3366430    -1.0800470
  H        3.2219480    -0.9400230    -0.0411410
  H        0.9206510     2.2208510    -0.6190080
  H        0.0756270     2.3767260     0.9415890
  H       -0.8611500     2.1650270    -0.5546380
  H       -0.1986710    -2.0759730    -0.3046340
  H       -1.8731440    -2.0716480    -0.1344710
units angstrom
no_reorient  #important for SAPT in psi4, default
symmetry c1  #important for SAPT in psi4, default
}

set PROPERTIES_ORIGIN ["COM"]
properties('MP2/aug-cc-pvtz', properties = ['dipole'])
--------------------------------------------------------------------------

    Molecular point group: c1
  Charge       = 0
  Multiplicity = 1
  Basis Set: AUG-CC-PVTZ
    Blend: AUG-CC-PVTZ
  Basis Set: (AUG-CC-PVTZ AUX)
    Blend: AUG-CC-PVTZ-JKFIT

    Orbital Energies [Eh]
    ---------------------

    Doubly Occupied:

       1A    -20.505537     2A    -15.581459     3A    -15.577678
       4A    -11.372342     5A    -11.268572     6A    -11.252483
       7A    -11.232677     8A     -1.379400     9A     -1.249593
      10A     -1.190117    11A     -1.035810    12A     -0.944222
      13A     -0.878707    14A     -0.763971    15A     -0.730152
      16A     -0.685048    17A     -0.639536    18A     -0.634915
      19A     -0.604128    20A     -0.589247    21A     -0.560452
      22A     -0.557148    23A     -0.537976    24A     -0.525302
      25A     -0.509255    26A     -0.440912    27A     -0.418150
      28A     -0.373177

  @DF-RHF Final Energy:  -341.20404916240574

   => Energetics <=

    Nuclear Repulsion Energy =            326.5500714608500061
    One-Electron Energy =               -1111.4323089669799174
    Two-Electron Energy =                 443.6781883437242300
    Total Energy =                       -341.2040491624057381
  Basis Set: (AUG-CC-PVTZ AUX)
    Blend: AUG-CC-PVTZ-RI
    Molecular point group: c1

    Geometry (in Angstrom), charge = 0, multiplicity = 1:

       Center              X                  Y                   Z               Mass
    ------------   -----------------  -----------------  -----------------  -----------------
         O           -2.108165944796     0.304465276987    -0.214272057511    15.994914619570
         N            0.167954055204     0.441345276987     0.091484942489    14.003074004430
         N           -0.915405944796    -1.632288723013     0.130622942489    14.003074004430
         C            1.390806055204    -0.154506723013     0.614391942489    12.000000000000
         C            2.385179055204    -0.533989723013    -0.480229057511    12.000000000000
         C            0.138467055204     1.887891276987    -0.042933057511    12.000000000000
         C           -1.019928944796    -0.243142723013    -0.024349057511    12.000000000000
         H            1.847848055204     0.574742276987     1.293955942489     1.007825032230
         H            1.137918155204    -0.983865023013     1.193937942489     1.007825032230
         H            1.964193055204    -1.288889723013    -1.150764057511     1.007825032230
         H            2.646911055204     0.338897276987    -1.083834057511     1.007825032230
         H            3.304741055204    -0.937768723013    -0.044928057511     1.007825032230
         H            1.003444055204     2.223105276987    -0.622795057511     1.007825032230
         H            0.158420055204     2.378980276987     0.937801942489     1.007825032230
         H           -0.778356944796     2.167281276987    -0.558425057511     1.007825032230
         H           -0.115877944796    -2.073718723013    -0.308421057511     1.007825032230
         H           -1.790350944796    -2.069393723013    -0.138258057511     1.007825032230

  Basis Set: AUG-CC-PVTZ
    Blend: AUG-CC-PVTZ
  Basis Set: (AUG-CC-PVTZ AUX)
    Blend: AUG-CC-PVTZ-JKFIT
	 Reference Energy          =    -341.2040491624057381 [Eh]
	 Singles Energy            =      -0.0000000000000000 [Eh]
	 Same-Spin Energy          =      -0.3487923935289788 [Eh]
	 Opposite-Spin Energy      =      -1.1392246768190748 [Eh]
	 Correlation Energy        =      -1.4880170703480537 [Eh]
	 Total Energy              =    -342.6920662327538025 [Eh]

	 ================> DF-SCS-MP2 Energies <==================
	-----------------------------------------------------------
	 SCS Same-Spin Scale       =       0.3333333333333333 [-]
	 SCS Opposite-Spin Scale   =       1.2000000000000000 [-]
	 SCS Same-Spin Energy      =      -0.1162641311763263 [Eh]
	 SCS Opposite-Spin Energy  =      -1.3670696121828898 [Eh]
	 SCS Correlation Energy    =      -1.4833337433592160 [Eh]
	 SCS Total Energy          =    -342.6873829057649345 [Eh]
	-----------------------------------------------------------

  Dipole Moment: [D]
     X:     3.8218      Y:    -1.1750      Z:    -0.1644     Total:     4.0017

*** Psi4 exiting successfully. Buy a developer a beer!
