                               Psi4 1.4a3.dev225

  ==> Input File <==

--------------------------------------------------------------------------
#psi4
#
memory 32 gb

molecule  {
0 1
  O       -2.1909590     0.3022110    -0.2104850
  N        0.0851610     0.4390910     0.0952720
  N       -0.9981990    -1.6345430     0.1344100
  C        1.3080130    -0.1567610     0.6181790
  C        2.3023860    -0.5362440    -0.4764420
  C        0.0556740     1.8856370    -0.0391460
  C       -1.1027220    -0.2453970    -0.0205620
  H        1.7650550     0.5724880     1.2977430
  H        1.0430010    -1.0258810     1.2255100
  H        1.8814000    -1.2911440    -1.1469770
  H        2.5641180     0.3366430    -1.0800470
  H        3.2219480    -0.9400230    -0.0411410
  H        0.9206510     2.2208510    -0.6190080
  H        0.0756270     2.3767260     0.9415890
  H       -0.8190274     2.1521907    -0.5309542
  H       -0.1986710    -2.0759730    -0.3046340
  H       -1.8731440    -2.0716480    -0.1344710
units angstrom
no_reorient  #important for SAPT in psi4, default
symmetry c1  #important for SAPT in psi4, default
}

set PROPERTIES_ORIGIN ["COM"]
properties('MP2/aug-cc-pvtz', properties = ['dipole'])
--------------------------------------------------------------------------

    Molecular point group: c1
  Charge       = 0
  Multiplicity = 1
  Basis Set: AUG-CC-PVTZ
    Blend: AUG-CC-PVTZ
  Basis Set: (AUG-CC-PVTZ AUX)
    Blend: AUG-CC-PVTZ-JKFIT

    Orbital Energies [Eh]
    ---------------------

    Doubly Occupied:

       1A    -20.505647     2A    -15.581630     3A    -15.577453
       4A    -11.372382     5A    -11.274029     6A    -11.247614
       7A    -11.232916     8A     -1.379463     9A     -1.249449
      10A     -1.190125    11A     -1.034289    12A     -0.948372
      13A     -0.876240    14A     -0.763540    15A     -0.729020
      16A     -0.684473    17A     -0.640112    18A     -0.633822
      19A     -0.604791    20A     -0.588703    21A     -0.562923
      22A     -0.557602    23A     -0.538691    24A     -0.528341
      25A     -0.506277    26A     -0.441262    27A     -0.417871
      28A     -0.373182

  @DF-RHF Final Energy:  -341.20394451408265

   => Energetics <=

    Nuclear Repulsion Energy =            326.5336588764895964
    One-Electron Energy =               -1111.3947693523684848
    Two-Electron Energy =                 443.6571659617961814
    Total Energy =                       -341.2039445140826501
  Basis Set: (AUG-CC-PVTZ AUX)
    Blend: AUG-CC-PVTZ-RI
    Molecular point group: c1

    Geometry (in Angstrom), charge = 0, multiplicity = 1:

       Center              X                  Y                   Z               Mass
    ------------   -----------------  -----------------  -----------------  -----------------
         O           -2.108462118804     0.304984574967    -0.214780206944    15.994914619570
         N            0.167657881196     0.441864574967     0.090976793056    14.003074004430
         N           -0.915702118804    -1.631769425033     0.130114793056    14.003074004430
         C            1.390509881196    -0.153987425033     0.613883793056    12.000000000000
         C            2.384882881196    -0.533470425033    -0.480737206944    12.000000000000
         C            0.138170881196     1.888410574967    -0.043441206944    12.000000000000
         C           -1.020225118804    -0.242623425033    -0.024857206944    12.000000000000
         H            1.847551881196     0.575261574967     1.293447793056     1.007825032230
         H            1.125497881196    -1.023107425033     1.221214793056     1.007825032230
         H            1.963896881196    -1.288370425033    -1.151272206944     1.007825032230
         H            2.646614881196     0.339416574967    -1.084342206944     1.007825032230
         H            3.304444881196    -0.937249425033    -0.045436206944     1.007825032230
         H            1.003147881196     2.223624574967    -0.623303206944     1.007825032230
         H            0.158123881196     2.379499574967     0.937293793056     1.007825032230
         H           -0.736530518804     2.154964274967    -0.535249406944     1.007825032230
         H           -0.116174118804    -2.073199425033    -0.308929206944     1.007825032230
         H           -1.790647118804    -2.068874425033    -0.138766206944     1.007825032230

  Basis Set: AUG-CC-PVTZ
    Blend: AUG-CC-PVTZ
  Basis Set: (AUG-CC-PVTZ AUX)
    Blend: AUG-CC-PVTZ-JKFIT
	 Reference Energy          =    -341.2039445140826501 [Eh]
	 Singles Energy            =      -0.0000000000000000 [Eh]
	 Same-Spin Energy          =      -0.3487862178686357 [Eh]
	 Opposite-Spin Energy      =      -1.1392194664149700 [Eh]
	 Correlation Energy        =      -1.4880056842836056 [Eh]
	 Total Energy              =    -342.6919501983662713 [Eh]

	 ================> DF-SCS-MP2 Energies <==================
	-----------------------------------------------------------
	 SCS Same-Spin Scale       =       0.3333333333333333 [-]
	 SCS Opposite-Spin Scale   =       1.2000000000000000 [-]
	 SCS Same-Spin Energy      =      -0.1162620726228786 [Eh]
	 SCS Opposite-Spin Energy  =      -1.3670633596979640 [Eh]
	 SCS Correlation Energy    =      -1.4833254323208425 [Eh]
	 SCS Total Energy          =    -342.6872699464034895 [Eh]
	-----------------------------------------------------------

  Dipole Moment: [D]
     X:     3.8216      Y:    -1.1495      Z:    -0.1817     Total:     3.9949

*** Psi4 exiting successfully. Buy a developer a beer!
