                               Psi4 1.4a3.dev225

  ==> Input File <==

--------------------------------------------------------------------------
#psi4
#
memory 32 gb

molecule  {
0 1
  O       -2.1909590     0.3022110    -0.2104850
  N        0.0851610     0.4390910     0.0952720
  N       -0.9981990    -1.6345430     0.1344100
  C        1.3080130    -0.1567610     0.6181790
  C        2.3023860    -0.5362440    -0.4764420
  C        0.0556740     1.8856370    -0.0391460
  C       -1.1027220    -0.2453970    -0.0205620
  H        1.7650550     0.5724880     1.2977430
  H        1.0430010    -1.0258810     1.2255100
  H        1.8814000    -1.2911440    -1.1469770
  H        2.5641180     0.3366430    -1.0800470
  H        3.2219480    -0.9400230    -0.0411410
  H        0.9206510     2.2208510    -0.6190080
  H        0.0738081     2.3319594     0.8521874
  H       -0.8611500     2.1650270    -0.5546380
  H       -0.1986710    -2.0759730    -0.3046340
  H       -1.8731440    -2.0716480    -0.1344710
units angstrom
no_reorient  #important for SAPT in psi4, default
symmetry c1  #important for SAPT in psi4, default
}

set PROPERTIES_ORIGIN ["COM"]
properties('MP2/aug-cc-pvtz', properties = ['dipole'])
--------------------------------------------------------------------------

    Molecular point group: c1
  Charge       = 0
  Multiplicity = 1
  Basis Set: AUG-CC-PVTZ
    Blend: AUG-CC-PVTZ
  Basis Set: (AUG-CC-PVTZ AUX)
    Blend: AUG-CC-PVTZ-JKFIT

    Orbital Energies [Eh]
    ---------------------

    Doubly Occupied:

       1A    -20.504894     2A    -15.580449     3A    -15.576928
       4A    -11.371660     5A    -11.274103     6A    -11.240301
       7A    -11.232674     8A     -1.378783     9A     -1.248982
      10A     -1.189697    11A     -1.034260    12A     -0.953171
      13A     -0.875838    14A     -0.765185    15A     -0.727712
      16A     -0.684002    17A     -0.645714    18A     -0.632414
      19A     -0.604804    20A     -0.591531    21A     -0.565037
      22A     -0.559100    23A     -0.537837    24A     -0.524907
      25A     -0.505782    26A     -0.440442    27A     -0.417439
      28A     -0.373883

  @DF-RHF Final Energy:  -341.19901286971310

   => Energetics <=

    Nuclear Repulsion Energy =            326.8056511520105119
    One-Electron Energy =               -1111.9342719210158066
    Two-Electron Energy =                 443.9296078992921366
    Total Energy =                       -341.1990128697131013
  Basis Set: (AUG-CC-PVTZ AUX)
    Blend: AUG-CC-PVTZ-RI
    Molecular point group: c1

    Geometry (in Angstrom), charge = 0, multiplicity = 1:

       Center              X                  Y                   Z               Mass
    ------------   -----------------  -----------------  -----------------  -----------------
         O           -2.108028286107     0.305299821560    -0.213663719248    15.994914619570
         N            0.168091713893     0.442179821560     0.092093280752    14.003074004430
         N           -0.915268286107    -1.631454178440     0.131231280752    14.003074004430
         C            1.390943713893    -0.153672178440     0.615000280752    12.000000000000
         C            2.385316713893    -0.533155178440    -0.479620719248    12.000000000000
         C            0.138604713893     1.888725821560    -0.042324719248    12.000000000000
         C           -1.019791286107    -0.242308178440    -0.023740719248    12.000000000000
         H            1.847985713893     0.575576821560     1.294564280752     1.007825032230
         H            1.125931713893    -1.022792178440     1.222331280752     1.007825032230
         H            1.964330713893    -1.288055178440    -1.150155719248     1.007825032230
         H            2.647048713893     0.339731821560    -1.083225719248     1.007825032230
         H            3.304878713893    -0.936934178440    -0.044319719248     1.007825032230
         H            1.003581713893     2.223939821560    -0.622186719248     1.007825032230
         H            0.156738813893     2.335048221560     0.849008680752     1.007825032230
         H           -0.778219286107     2.168115821560    -0.557816719248     1.007825032230
         H           -0.115740286107    -2.072884178440    -0.307812719248     1.007825032230
         H           -1.790213286107    -2.068559178440    -0.137649719248     1.007825032230

  Basis Set: AUG-CC-PVTZ
    Blend: AUG-CC-PVTZ
  Basis Set: (AUG-CC-PVTZ AUX)
    Blend: AUG-CC-PVTZ-JKFIT
	 Reference Energy          =    -341.1990128697131013 [Eh]
	 Singles Energy            =      -0.0000000000000000 [Eh]
	 Same-Spin Energy          =      -0.3488952369735298 [Eh]
	 Opposite-Spin Energy      =      -1.1391362326006114 [Eh]
	 Correlation Energy        =      -1.4880314695741412 [Eh]
	 Total Energy              =    -342.6870443392872403 [Eh]

	 ================> DF-SCS-MP2 Energies <==================
	-----------------------------------------------------------
	 SCS Same-Spin Scale       =       0.3333333333333333 [-]
	 SCS Opposite-Spin Scale   =       1.2000000000000000 [-]
	 SCS Same-Spin Energy      =      -0.1162984123245099 [Eh]
	 SCS Opposite-Spin Energy  =      -1.3669634791207337 [Eh]
	 SCS Correlation Energy    =      -1.4832618914452436 [Eh]
	 SCS Total Energy          =    -342.6822747611583395 [Eh]
	-----------------------------------------------------------

  Dipole Moment: [D]
     X:     3.8278      Y:    -1.1013      Z:    -0.1334     Total:     3.9853

*** Psi4 exiting successfully. Buy a developer a beer!
