                               Psi4 1.4a3.dev225

  ==> Input File <==

--------------------------------------------------------------------------
#psi4
#
memory 32 gb

molecule  {
0 1
  O       -2.1909590     0.3022110    -0.2104850
  N        0.0851610     0.4390910     0.0952720
  N       -0.9981990    -1.6345430     0.1344100
  C        1.3080130    -0.1567610     0.6181790
  C        2.3023860    -0.5362440    -0.4764420
  C        0.0556740     1.8856370    -0.0391460
  C       -1.1027220    -0.2453970    -0.0205620
  H        1.7650550     0.5724880     1.2977430
  H        1.0430010    -1.0258810     1.2255100
  H        1.8814000    -1.2911440    -1.1469770
  H        2.5641180     0.3366430    -1.0800470
  H        3.2219480    -0.9400230    -0.0411410
  H        0.9206510     2.2208510    -0.6190080
  H        0.0756270     2.3767260     0.9415890
  H       -0.8443010     2.1598925    -0.5451645
  H       -0.1986710    -2.0759730    -0.3046340
  H       -1.8731440    -2.0716480    -0.1344710
units angstrom
no_reorient  #important for SAPT in psi4, default
symmetry c1  #important for SAPT in psi4, default
}

set PROPERTIES_ORIGIN ["COM"]
properties('MP2/aug-cc-pvtz', properties = ['dipole'])
--------------------------------------------------------------------------

    Molecular point group: c1
  Charge       = 0
  Multiplicity = 1
  Basis Set: AUG-CC-PVTZ
    Blend: AUG-CC-PVTZ
  Basis Set: (AUG-CC-PVTZ AUX)
    Blend: AUG-CC-PVTZ-JKFIT

    Orbital Energies [Eh]
    ---------------------

    Doubly Occupied:

       1A    -20.505624     2A    -15.581792     3A    -15.577491
       4A    -11.372393     5A    -11.274181     6A    -11.250752
       7A    -11.232977     8A     -1.379456     9A     -1.249416
      10A     -1.190074    11A     -1.033952    12A     -0.945827
      13A     -0.876246    14A     -0.762768    15A     -0.728251
      16A     -0.684489    17A     -0.639872    18A     -0.633223
      19A     -0.604312    20A     -0.588760    21A     -0.561276
      22A     -0.557421    23A     -0.537550    24A     -0.526821
      25A     -0.505899    26A     -0.441098    27A     -0.417856
      28A     -0.373234

  @DF-RHF Final Energy:  -341.20490911689683

   => Energetics <=

    Nuclear Repulsion Energy =            326.4025766191517732
    One-Electron Energy =               -1111.1489471682853036
    Two-Electron Energy =                 443.5414614322367015
    Total Energy =                       -341.2049091168968289
  Basis Set: (AUG-CC-PVTZ AUX)
    Blend: AUG-CC-PVTZ-RI
    Molecular point group: c1

    Geometry (in Angstrom), charge = 0, multiplicity = 1:

       Center              X                  Y                   Z               Mass
    ------------   -----------------  -----------------  -----------------  -----------------
         O           -2.108212593548     0.304908535399    -0.214639909212    15.994914619570
         N            0.167907406452     0.441788535399     0.091117090788    14.003074004430
         N           -0.915452593548    -1.631845464601     0.130255090788    14.003074004430
         C            1.390759406452    -0.154063464601     0.614024090788    12.000000000000
         C            2.385132406452    -0.533546464601    -0.480596909212    12.000000000000
         C            0.138420406452     1.888334535399    -0.043300909212    12.000000000000
         C           -1.019975593548    -0.242699464601    -0.024716909212    12.000000000000
         H            1.847801406452     0.575185535399     1.293588090788     1.007825032230
         H            1.125747406452    -1.023183464601     1.221355090788     1.007825032230
         H            1.964146406452    -1.288446464601    -1.151131909212     1.007825032230
         H            2.646864406452     0.339340535399    -1.084201909212     1.007825032230
         H            3.304694406452    -0.937325464601    -0.045295909212     1.007825032230
         H            1.003397406452     2.223548535399    -0.623162909212     1.007825032230
         H            0.158373406452     2.379423535399     0.937434090788     1.007825032230
         H           -0.761554593548     2.162590035399    -0.549319409212     1.007825032230
         H           -0.115924593548    -2.073275464601    -0.308788909212     1.007825032230
         H           -1.790397593548    -2.068950464601    -0.138625909212     1.007825032230

  Basis Set: AUG-CC-PVTZ
    Blend: AUG-CC-PVTZ
  Basis Set: (AUG-CC-PVTZ AUX)
    Blend: AUG-CC-PVTZ-JKFIT
	 Reference Energy          =    -341.2049091168968289 [Eh]
	 Singles Energy            =      -0.0000000000000000 [Eh]
	 Same-Spin Energy          =      -0.3488531824678410 [Eh]
	 Opposite-Spin Energy      =      -1.1394519612060687 [Eh]
	 Correlation Energy        =      -1.4883051436739096 [Eh]
	 Total Energy              =    -342.6932142605707554 [Eh]

	 ================> DF-SCS-MP2 Energies <==================
	-----------------------------------------------------------
	 SCS Same-Spin Scale       =       0.3333333333333333 [-]
	 SCS Opposite-Spin Scale   =       1.2000000000000000 [-]
	 SCS Same-Spin Energy      =      -0.1162843941559470 [Eh]
	 SCS Opposite-Spin Energy  =      -1.3673423534472824 [Eh]
	 SCS Correlation Energy    =      -1.4836267476032294 [Eh]
	 SCS Total Energy          =    -342.6885358645000679 [Eh]
	-----------------------------------------------------------

  Dipole Moment: [D]
     X:     3.8175      Y:    -1.1582      Z:    -0.1800     Total:     3.9934

*** Psi4 exiting successfully. Buy a developer a beer!
