                               Psi4 1.4a3.dev225

  ==> Input File <==

--------------------------------------------------------------------------
#psi4
#
memory 32 gb

molecule  {
0 1
  O       -2.1909590     0.3022110    -0.2104850
  N        0.0851610     0.4390910     0.0952720
  N       -0.9981990    -1.6345430     0.1344100
  C        1.3080130    -0.1567610     0.6181790
  C        2.3023860    -0.5362440    -0.4764420
  C        0.0556740     1.8856370    -0.0391460
  C       -1.1027220    -0.2453970    -0.0205620
  H        1.7650550     0.5724880     1.2977430
  H        1.0430010    -1.0258810     1.2255100
  H        1.8814000    -1.2911440    -1.1469770
  H        2.5641180     0.3366430    -1.0800470
  H        3.2219480    -0.9400230    -0.0411410
  H        0.9206510     2.2208510    -0.6190080
  H        0.0756270     2.3767260     0.9415890
  H       -1.0296402     2.2163722    -0.6493730
  H       -0.1986710    -2.0759730    -0.3046340
  H       -1.8731440    -2.0716480    -0.1344710
units angstrom
no_reorient  #important for SAPT in psi4, default
symmetry c1  #important for SAPT in psi4, default
}

set PROPERTIES_ORIGIN ["COM"]
properties('MP2/aug-cc-pvtz', properties = ['dipole'])
--------------------------------------------------------------------------

    Molecular point group: c1
  Charge       = 0
  Multiplicity = 1
  Basis Set: AUG-CC-PVTZ
    Blend: AUG-CC-PVTZ
  Basis Set: (AUG-CC-PVTZ AUX)
    Blend: AUG-CC-PVTZ-JKFIT

    Orbital Energies [Eh]
    ---------------------

    Doubly Occupied:

       1A    -20.505513     2A    -15.583432     3A    -15.577905
       4A    -11.372654     5A    -11.275674     6A    -11.271495
       7A    -11.233633     8A     -1.379511     9A     -1.249821
      10A     -1.190112    11A     -1.033003    12A     -0.933735
      13A     -0.876576    14A     -0.759735    15A     -0.723971
      16A     -0.684895    17A     -0.639785    18A     -0.630519
      19A     -0.602268    20A     -0.589674    21A     -0.559280
      22A     -0.554202    23A     -0.534889    24A     -0.513423
      25A     -0.489919    26A     -0.438295    27A     -0.417420
      28A     -0.373880

  @DF-RHF Final Energy:  -341.18307850742480

   => Energetics <=

    Nuclear Repulsion Energy =            325.5673248740365580
    One-Electron Energy =               -1109.5103696024825695
    Two-Electron Energy =                 442.7599662210212159
    Total Energy =                       -341.1830785074247956
  Basis Set: (AUG-CC-PVTZ AUX)
    Blend: AUG-CC-PVTZ-RI
    Molecular point group: c1

    Geometry (in Angstrom), charge = 0, multiplicity = 1:

       Center              X                  Y                   Z               Mass
    ------------   -----------------  -----------------  -----------------  -----------------
         O           -2.106382746933     0.304350913548    -0.213611062800    15.994914619570
         N            0.169737253067     0.441230913548     0.092145937200    14.003074004430
         N           -0.913622746933    -1.632403086452     0.131283937200    14.003074004430
         C            1.392589253067    -0.154621086452     0.615052937200    12.000000000000
         C            2.386962253067    -0.534104086452    -0.479568062800    12.000000000000
         C            0.140250253067     1.887776913548    -0.042272062800    12.000000000000
         C           -1.018145746933    -0.243257086452    -0.023688062800    12.000000000000
         H            1.849631253067     0.574627913548     1.294616937200     1.007825032230
         H            1.127577253067    -1.023741086452     1.222383937200     1.007825032230
         H            1.965976253067    -1.289004086452    -1.150103062800     1.007825032230
         H            2.648694253067     0.338782913548    -1.083173062800     1.007825032230
         H            3.306524253067    -0.937883086452    -0.044267062800     1.007825032230
         H            1.005227253067     2.222990913548    -0.622134062800     1.007825032230
         H            0.160203253067     2.378865913548     0.938462937200     1.007825032230
         H           -0.945063946933     2.218512113548    -0.652499062800     1.007825032230
         H           -0.114094746933    -2.073833086452    -0.307760062800     1.007825032230
         H           -1.788567746933    -2.069508086452    -0.137597062800     1.007825032230

  Basis Set: AUG-CC-PVTZ
    Blend: AUG-CC-PVTZ
  Basis Set: (AUG-CC-PVTZ AUX)
    Blend: AUG-CC-PVTZ-JKFIT
	 Reference Energy          =    -341.1830785074247956 [Eh]
	 Singles Energy            =      -0.0000000000000000 [Eh]
	 Same-Spin Energy          =      -0.3494840735074460 [Eh]
	 Opposite-Spin Energy      =      -1.1418719936105060 [Eh]
	 Correlation Energy        =      -1.4913560671179520 [Eh]
	 Total Energy              =    -342.6744345745427722 [Eh]

	 ================> DF-SCS-MP2 Energies <==================
	-----------------------------------------------------------
	 SCS Same-Spin Scale       =       0.3333333333333333 [-]
	 SCS Opposite-Spin Scale   =       1.2000000000000000 [-]
	 SCS Same-Spin Energy      =      -0.1164946911691487 [Eh]
	 SCS Opposite-Spin Energy  =      -1.3702463923326071 [Eh]
	 SCS Correlation Energy    =      -1.4867410835017558 [Eh]
	 SCS Total Energy          =    -342.6698195909265792 [Eh]
	-----------------------------------------------------------

  Dipole Moment: [D]
     X:     3.7961      Y:    -1.2426      Z:    -0.1566     Total:     3.9974

*** Psi4 exiting successfully. Buy a developer a beer!
