                               Psi4 1.4a3.dev225

  ==> Input File <==

--------------------------------------------------------------------------
#psi4
#
memory 32 gb

molecule  {
0 1
  O       -2.1909590     0.3022110    -0.2104850
  N        0.0851610     0.4390910     0.0952720
  N       -0.9981990    -1.6345430     0.1344100
  C        1.3114933    -0.0567710     0.5814887
  C        2.3023860    -0.5362440    -0.4764420
  C        0.0556740     1.8856370    -0.0391460
  C       -1.1027220    -0.2453970    -0.0205620
  H        1.7650550     0.5724880     1.2977430
  H        1.0430010    -1.0258810     1.2255100
  H        1.8814000    -1.2911440    -1.1469770
  H        2.5641180     0.3366430    -1.0800470
  H        3.2219480    -0.9400230    -0.0411410
  H        0.9206510     2.2208510    -0.6190080
  H        0.0756270     2.3767260     0.9415890
  H       -0.8611500     2.1650270    -0.5546380
  H       -0.1986710    -2.0759730    -0.3046340
  H       -1.8731440    -2.0716480    -0.1344710
units angstrom
no_reorient  #important for SAPT in psi4, default
symmetry c1  #important for SAPT in psi4, default
}

set PROPERTIES_ORIGIN ["COM"]
properties('MP2/aug-cc-pvtz', properties = ['dipole'])
--------------------------------------------------------------------------

    Molecular point group: c1
  Charge       = 0
  Multiplicity = 1
  Basis Set: AUG-CC-PVTZ
    Blend: AUG-CC-PVTZ
  Basis Set: (AUG-CC-PVTZ AUX)
    Blend: AUG-CC-PVTZ-JKFIT

    Orbital Energies [Eh]
    ---------------------

    Doubly Occupied:

       1A    -20.508646     2A    -15.583860     3A    -15.578434
       4A    -11.376638     5A    -11.275700     6A    -11.253089
       7A    -11.232248     8A     -1.382779     9A     -1.259693
      10A     -1.192985    11A     -1.031811    12A     -0.946406
      13A     -0.882339    14A     -0.763741    15A     -0.726295
      16A     -0.692168    17A     -0.645383    18A     -0.633389
      19A     -0.606622    20A     -0.585996    21A     -0.562168
      22A     -0.558306    23A     -0.537151    24A     -0.533412
      25A     -0.482209    26A     -0.443634    27A     -0.418604
      28A     -0.373737

  @DF-RHF Final Energy:  -341.19200286986558

   => Energetics <=

    Nuclear Repulsion Energy =            326.9438127805511272
    One-Electron Energy =               -1112.1367442515918356
    Two-Electron Energy =                 444.0009286011751897
    Total Energy =                       -341.1920028698655756
  Basis Set: (AUG-CC-PVTZ AUX)
    Blend: AUG-CC-PVTZ-RI
    Molecular point group: c1

    Geometry (in Angstrom), charge = 0, multiplicity = 1:

       Center              X                  Y                   Z               Mass
    ------------   -----------------  -----------------  -----------------  -----------------
         O           -2.108455372964     0.293103453225    -0.210233225650    15.994914619570
         N            0.167664627036     0.429983453225     0.095523774350    14.003074004430
         N           -0.915695372964    -1.643650546775     0.134661774350    14.003074004430
         C            1.393996927036    -0.065878546775     0.581740474350    12.000000000000
         C            2.384889627036    -0.545351546775    -0.476190225650    12.000000000000
         C            0.138177627036     1.876529453225    -0.038894225650    12.000000000000
         C           -1.020218372964    -0.254504546775    -0.020310225650    12.000000000000
         H            1.847558627036     0.563380453225     1.297994774350     1.007825032230
         H            1.125504627036    -1.034988546775     1.225761774350     1.007825032230
         H            1.963903627036    -1.300251546775    -1.146725225650     1.007825032230
         H            2.646621627036     0.327535453225    -1.079795225650     1.007825032230
         H            3.304451627036    -0.949130546775    -0.040889225650     1.007825032230
         H            1.003154627036     2.211743453225    -0.618756225650     1.007825032230
         H            0.158130627036     2.367618453225     0.941840774350     1.007825032230
         H           -0.778646372964     2.155919453225    -0.554386225650     1.007825032230
         H           -0.116167372964    -2.085080546775    -0.304382225650     1.007825032230
         H           -1.790640372964    -2.080755546775    -0.134219225650     1.007825032230

  Basis Set: AUG-CC-PVTZ
    Blend: AUG-CC-PVTZ
  Basis Set: (AUG-CC-PVTZ AUX)
    Blend: AUG-CC-PVTZ-JKFIT
	 Reference Energy          =    -341.1920028698655756 [Eh]
	 Singles Energy            =      -0.0000000000000000 [Eh]
	 Same-Spin Energy          =      -0.3496672518483384 [Eh]
	 Opposite-Spin Energy      =      -1.1408195523011397 [Eh]
	 Correlation Energy        =      -1.4904868041494781 [Eh]
	 Total Energy              =    -342.6824896740150734 [Eh]

	 ================> DF-SCS-MP2 Energies <==================
	-----------------------------------------------------------
	 SCS Same-Spin Scale       =       0.3333333333333333 [-]
	 SCS Opposite-Spin Scale   =       1.2000000000000000 [-]
	 SCS Same-Spin Energy      =      -0.1165557506161128 [Eh]
	 SCS Opposite-Spin Energy  =      -1.3689834627613677 [Eh]
	 SCS Correlation Energy    =      -1.4855392133774805 [Eh]
	 SCS Total Energy          =    -342.6775420832430541 [Eh]
	-----------------------------------------------------------

  Dipole Moment: [D]
     X:     3.6899      Y:    -1.0987      Z:    -0.2345     Total:     3.8571

*** Psi4 exiting successfully. Buy a developer a beer!
