                               Psi4 1.4a3.dev225

  ==> Input File <==

--------------------------------------------------------------------------
#psi4
#
memory 32 gb

molecule  {
0 1
  O       -2.1909590     0.3022110    -0.2104850
  N        0.0851610     0.4390910     0.0952720
  N       -0.9981990    -1.6345430     0.1344100
  C        1.3080130    -0.1567610     0.6181790
  C        2.3023860    -0.5362440    -0.4764420
  C        0.0556740     1.8856370    -0.0391460
  C       -1.1027220    -0.2453970    -0.0205620
  H        1.7650550     0.5724880     1.2977430
  H        1.0430010    -1.0258810     1.2255100
  H        1.8814000    -1.2911440    -1.1469770
  H        2.5641180     0.3366430    -1.0800470
  H        3.2219480    -0.9400230    -0.0411410
  H        0.9206510     2.2208510    -0.6190080
  H        0.0756270     2.3767260     0.9415890
  H       -0.9453951     2.1906996    -0.6020055
  H       -0.1986710    -2.0759730    -0.3046340
  H       -1.8731440    -2.0716480    -0.1344710
units angstrom
no_reorient  #important for SAPT in psi4, default
symmetry c1  #important for SAPT in psi4, default
}

set PROPERTIES_ORIGIN ["COM"]
properties('MP2/aug-cc-pvtz', properties = ['dipole'])
--------------------------------------------------------------------------

    Molecular point group: c1
  Charge       = 0
  Multiplicity = 1
  Basis Set: AUG-CC-PVTZ
    Blend: AUG-CC-PVTZ
  Basis Set: (AUG-CC-PVTZ AUX)
    Blend: AUG-CC-PVTZ-JKFIT

    Orbital Energies [Eh]
    ---------------------

    Doubly Occupied:

       1A    -20.505547     2A    -15.582591     3A    -15.577687
       4A    -11.372496     5A    -11.274917     6A    -11.262609
       7A    -11.233290     8A     -1.379462     9A     -1.249509
      10A     -1.190013    11A     -1.033169    12A     -0.937963
      13A     -0.876360    14A     -0.760639    15A     -0.725594
      16A     -0.684645    17A     -0.639592    18A     -0.631366
      19A     -0.602916    20A     -0.589156    21A     -0.559033
      22A     -0.555435    23A     -0.535208    24A     -0.517528
      25A     -0.501225    26A     -0.440026    27A     -0.417720
      28A     -0.373531

  @DF-RHF Final Energy:  -341.19766983592837

   => Energetics <=

    Nuclear Repulsion Energy =            325.9228939397913223
    One-Electron Energy =               -1110.2226734115456566
    Two-Electron Energy =                 443.1021096358260252
    Total Energy =                       -341.1976698359283660
  Basis Set: (AUG-CC-PVTZ AUX)
    Blend: AUG-CC-PVTZ-RI
    Molecular point group: c1

    Geometry (in Angstrom), charge = 0, multiplicity = 1:

       Center              X                  Y                   Z               Mass
    ------------   -----------------  -----------------  -----------------  -----------------
         O           -2.107214495484     0.304604378116    -0.214078720260    15.994914619570
         N            0.168905504516     0.441484378116     0.091678279740    14.003074004430
         N           -0.914454495484    -1.632149621884     0.130816279740    14.003074004430
         C            1.391757504516    -0.154367621884     0.614585279740    12.000000000000
         C            2.386130504516    -0.533850621884    -0.480035720260    12.000000000000
         C            0.139418504516     1.888030378116    -0.042739720260    12.000000000000
         C           -1.018977495484    -0.243003621884    -0.024155720260    12.000000000000
         H            1.848799504516     0.574881378116     1.294149279740     1.007825032230
         H            1.126745504516    -1.023487621884     1.221916279740     1.007825032230
         H            1.965144504516    -1.288750621884    -1.150570720260     1.007825032230
         H            2.647862504516     0.339036378116    -1.083640720260     1.007825032230
         H            3.305692504516    -0.937629621884    -0.044734720260     1.007825032230
         H            1.004395504516     2.223244378116    -0.622601720260     1.007825032230
         H            0.159371504516     2.379119378116     0.937995279740     1.007825032230
         H           -0.861650595484     2.193092978116    -0.605599220260     1.007825032230
         H           -0.114926495484    -2.073579621884    -0.308227720260     1.007825032230
         H           -1.789399495484    -2.069254621884    -0.138064720260     1.007825032230

  Basis Set: AUG-CC-PVTZ
    Blend: AUG-CC-PVTZ
  Basis Set: (AUG-CC-PVTZ AUX)
    Blend: AUG-CC-PVTZ-JKFIT
	 Reference Energy          =    -341.1976698359283660 [Eh]
	 Singles Energy            =      -0.0000000000000000 [Eh]
	 Same-Spin Energy          =      -0.3491760737042447 [Eh]
	 Opposite-Spin Energy      =      -1.1406403583991607 [Eh]
	 Correlation Energy        =      -1.4898164321034053 [Eh]
	 Total Energy              =    -342.6874862680317619 [Eh]

	 ================> DF-SCS-MP2 Energies <==================
	-----------------------------------------------------------
	 SCS Same-Spin Scale       =       0.3333333333333333 [-]
	 SCS Opposite-Spin Scale   =       1.2000000000000000 [-]
	 SCS Same-Spin Energy      =      -0.1163920245680816 [Eh]
	 SCS Opposite-Spin Energy  =      -1.3687684300789928 [Eh]
	 SCS Correlation Energy    =      -1.4851604546470745 [Eh]
	 SCS Total Energy          =    -342.6828302905754526 [Eh]
	-----------------------------------------------------------

  Dipole Moment: [D]
     X:     3.8040      Y:    -1.2000      Z:    -0.1695     Total:     3.9923

*** Psi4 exiting successfully. Buy a developer a beer!
