                               Psi4 1.4a3.dev225

  ==> Input File <==

--------------------------------------------------------------------------
#psi4
#
memory 32 gb

molecule  {
0 1
  O       -2.1909590     0.3022110    -0.2104850
  N        0.0851610     0.4390910     0.0952720
  N       -0.9981990    -1.6345430     0.1344100
  C        1.3078997    -0.1820666     0.6265247
  C        2.3023860    -0.5362440    -0.4764420
  C        0.0556740     1.8856370    -0.0391460
  C       -1.1027220    -0.2453970    -0.0205620
  H        1.7650550     0.5724880     1.2977430
  H        1.0430010    -1.0258810     1.2255100
  H        1.8814000    -1.2911440    -1.1469770
  H        2.5641180     0.3366430    -1.0800470
  H        3.2219480    -0.9400230    -0.0411410
  H        0.9206510     2.2208510    -0.6190080
  H        0.0756270     2.3767260     0.9415890
  H       -0.8611500     2.1650270    -0.5546380
  H       -0.1986710    -2.0759730    -0.3046340
  H       -1.8731440    -2.0716480    -0.1344710
units angstrom
no_reorient  #important for SAPT in psi4, default
symmetry c1  #important for SAPT in psi4, default
}

set PROPERTIES_ORIGIN ["COM"]
properties('MP2/aug-cc-pvtz', properties = ['dipole'])
--------------------------------------------------------------------------

    Molecular point group: c1
  Charge       = 0
  Multiplicity = 1
  Basis Set: AUG-CC-PVTZ
    Blend: AUG-CC-PVTZ
  Basis Set: (AUG-CC-PVTZ AUX)
    Blend: AUG-CC-PVTZ-JKFIT

    Orbital Energies [Eh]
    ---------------------

    Doubly Occupied:

       1A    -20.504863     2A    -15.581479     3A    -15.577293
       4A    -11.371376     5A    -11.274524     6A    -11.252796
       7A    -11.233537     8A     -1.378642     9A     -1.246967
      10A     -1.189248    11A     -1.034552    12A     -0.943769
      13A     -0.875344    14A     -0.762292    15A     -0.728483
      16A     -0.683047    17A     -0.638490    18A     -0.632308
      19A     -0.603497    20A     -0.589486    21A     -0.560534
      22A     -0.557008    23A     -0.538687    24A     -0.522948
      25A     -0.508641    26A     -0.440273    27A     -0.417488
      28A     -0.372874

  @DF-RHF Final Energy:  -341.20411661441972

   => Energetics <=

    Nuclear Repulsion Energy =            326.1499795357542553
    One-Electron Energy =               -1110.6673018770625276
    Two-Electron Energy =                 443.3132057268885546
    Total Energy =                       -341.2041166144197177
  Basis Set: (AUG-CC-PVTZ AUX)
    Blend: AUG-CC-PVTZ-RI
    Molecular point group: c1

    Geometry (in Angstrom), charge = 0, multiplicity = 1:

       Center              X                  Y                   Z               Mass
    ------------   -----------------  -----------------  -----------------  -----------------
         O           -2.108032924980     0.307832658943    -0.215527461910    15.994914619570
         N            0.168087075020     0.444712658943     0.090229538090    14.003074004430
         N           -0.915272924980    -1.628921341057     0.129367538090    14.003074004430
         C            1.390825775020    -0.176444941057     0.621482238090    12.000000000000
         C            2.385312075020    -0.530622341057    -0.481484461910    12.000000000000
         C            0.138600075020     1.891258658943    -0.044188461910    12.000000000000
         C           -1.019795924980    -0.239775341057    -0.025604461910    12.000000000000
         H            1.847981075020     0.578109658943     1.292700538090     1.007825032230
         H            1.125927075020    -1.020259341057     1.220467538090     1.007825032230
         H            1.964326075020    -1.285522341057    -1.152019461910     1.007825032230
         H            2.647044075020     0.342264658943    -1.085089461910     1.007825032230
         H            3.304874075020    -0.934401341057    -0.046183461910     1.007825032230
         H            1.003577075020     2.226472658943    -0.624050461910     1.007825032230
         H            0.158553075020     2.382347658943     0.936546538090     1.007825032230
         H           -0.778223924980     2.170648658943    -0.559680461910     1.007825032230
         H           -0.115744924980    -2.070351341057    -0.309676461910     1.007825032230
         H           -1.790217924980    -2.066026341057    -0.139513461910     1.007825032230

  Basis Set: AUG-CC-PVTZ
    Blend: AUG-CC-PVTZ
  Basis Set: (AUG-CC-PVTZ AUX)
    Blend: AUG-CC-PVTZ-JKFIT
	 Reference Energy          =    -341.2041166144197177 [Eh]
	 Singles Energy            =      -0.0000000000000000 [Eh]
	 Same-Spin Energy          =      -0.3488070513700208 [Eh]
	 Opposite-Spin Energy      =      -1.1395807546664320 [Eh]
	 Correlation Energy        =      -1.4883878060364528 [Eh]
	 Total Energy              =    -342.6925044204561459 [Eh]

	 ================> DF-SCS-MP2 Energies <==================
	-----------------------------------------------------------
	 SCS Same-Spin Scale       =       0.3333333333333333 [-]
	 SCS Opposite-Spin Scale   =       1.2000000000000000 [-]
	 SCS Same-Spin Energy      =      -0.1162690171233403 [Eh]
	 SCS Opposite-Spin Energy  =      -1.3674969055997184 [Eh]
	 SCS Correlation Energy    =      -1.4837659227230586 [Eh]
	 SCS Total Energy          =    -342.6878825371427979 [Eh]
	-----------------------------------------------------------

  Dipole Moment: [D]
     X:     3.8467      Y:    -1.1790      Z:    -0.1712     Total:     4.0269

*** Psi4 exiting successfully. Buy a developer a beer!
