                               Psi4 1.4a3.dev225

  ==> Input File <==

--------------------------------------------------------------------------
#psi4
#
memory 32 gb

molecule  {
0 1
  O       -2.1909590     0.3022110    -0.2104850
  N        0.0851610     0.4390910     0.0952720
  N       -0.9981990    -1.6345430     0.1344100
  C        1.3080130    -0.1567610     0.6181790
  C        2.2698211    -0.5238162    -0.4405940
  C        0.0556740     1.8856370    -0.0391460
  C       -1.1027220    -0.2453970    -0.0205620
  H        1.7650550     0.5724880     1.2977430
  H        1.0430010    -1.0258810     1.2255100
  H        1.8814000    -1.2911440    -1.1469770
  H        2.5641180     0.3366430    -1.0800470
  H        3.2219480    -0.9400230    -0.0411410
  H        0.9206510     2.2208510    -0.6190080
  H        0.0756270     2.3767260     0.9415890
  H       -0.8611500     2.1650270    -0.5546380
  H       -0.1986710    -2.0759730    -0.3046340
  H       -1.8731440    -2.0716480    -0.1344710
units angstrom
no_reorient  #important for SAPT in psi4, default
symmetry c1  #important for SAPT in psi4, default
}

set PROPERTIES_ORIGIN ["COM"]
properties('MP2/aug-cc-pvtz', properties = ['dipole'])
--------------------------------------------------------------------------

    Molecular point group: c1
  Charge       = 0
  Multiplicity = 1
  Basis Set: AUG-CC-PVTZ
    Blend: AUG-CC-PVTZ
  Basis Set: (AUG-CC-PVTZ AUX)
    Blend: AUG-CC-PVTZ-JKFIT

    Orbital Energies [Eh]
    ---------------------

    Doubly Occupied:

       1A    -20.505617     2A    -15.581701     3A    -15.577453
       4A    -11.372458     5A    -11.272259     6A    -11.252784
       7A    -11.235843     8A     -1.379514     9A     -1.250487
      10A     -1.190250    11A     -1.042027    12A     -0.944140
      13A     -0.872294    14A     -0.762819    15A     -0.728511
      16A     -0.685632    17A     -0.642951    18A     -0.634199
      19A     -0.603742    20A     -0.587375    21A     -0.563395
      22A     -0.556454    23A     -0.543362    24A     -0.518674
      25A     -0.498425    26A     -0.440943    27A     -0.417740
      28A     -0.375027

  @DF-RHF Final Energy:  -341.20189264823057

   => Energetics <=

    Nuclear Repulsion Energy =            327.0681712223450290
    One-Electron Energy =               -1112.4679752869826643
    Two-Electron Energy =                 444.1979114164071234
    Total Energy =                       -341.2018926482305687
  Basis Set: (AUG-CC-PVTZ AUX)
    Blend: AUG-CC-PVTZ-RI
    Molecular point group: c1

    Geometry (in Angstrom), charge = 0, multiplicity = 1:

       Center              X                  Y                   Z               Mass
    ------------   -----------------  -----------------  -----------------  -----------------
         O           -2.104218056044     0.303396884574    -0.218760512667    15.994914619570
         N            0.171901943956     0.440276884574     0.086996487333    14.003074004430
         N           -0.911458056044    -1.633357115426     0.126134487333    14.003074004430
         C            1.394753943956    -0.155575115426     0.609903487333    12.000000000000
         C            2.356562043956    -0.522630315426    -0.448869512667    12.000000000000
         C            0.142414943956     1.886822884574    -0.047421512667    12.000000000000
         C           -1.015981056044    -0.244211115426    -0.028837512667    12.000000000000
         H            1.851795943956     0.573673884574     1.289467487333     1.007825032230
         H            1.129741943956    -1.024695115426     1.217234487333     1.007825032230
         H            1.968140943956    -1.289958115426    -1.155252512667     1.007825032230
         H            2.650858943956     0.337828884574    -1.088322512667     1.007825032230
         H            3.308688943956    -0.938837115426    -0.049416512667     1.007825032230
         H            1.007391943956     2.222036884574    -0.627283512667     1.007825032230
         H            0.162367943956     2.377911884574     0.933313487333     1.007825032230
         H           -0.774409056044     2.166212884574    -0.562913512667     1.007825032230
         H           -0.111930056044    -2.074787115426    -0.312909512667     1.007825032230
         H           -1.786403056044    -2.070462115426    -0.142746512667     1.007825032230

  Basis Set: AUG-CC-PVTZ
    Blend: AUG-CC-PVTZ
  Basis Set: (AUG-CC-PVTZ AUX)
    Blend: AUG-CC-PVTZ-JKFIT
	 Reference Energy          =    -341.2018926482305687 [Eh]
	 Singles Energy            =      -0.0000000000000000 [Eh]
	 Same-Spin Energy          =      -0.3492784569400370 [Eh]
	 Opposite-Spin Energy      =      -1.1399857986393969 [Eh]
	 Correlation Energy        =      -1.4892642555794338 [Eh]
	 Total Energy              =    -342.6911569038099969 [Eh]

	 ================> DF-SCS-MP2 Energies <==================
	-----------------------------------------------------------
	 SCS Same-Spin Scale       =       0.3333333333333333 [-]
	 SCS Opposite-Spin Scale   =       1.2000000000000000 [-]
	 SCS Same-Spin Energy      =      -0.1164261523133456 [Eh]
	 SCS Opposite-Spin Energy  =      -1.3679829583672762 [Eh]
	 SCS Correlation Energy    =      -1.4844091106806219 [Eh]
	 SCS Total Energy          =    -342.6863017589112133 [Eh]
	-----------------------------------------------------------

  Dipole Moment: [D]
     X:     3.8333      Y:    -1.1699      Z:    -0.1859     Total:     4.0122

*** Psi4 exiting successfully. Buy a developer a beer!
