                               Psi4 1.4a3.dev225

  ==> Input File <==

--------------------------------------------------------------------------
#psi4
#
memory 32 gb

molecule  {
0 1
  O       -2.1909590     0.3022110    -0.2104850
  N        0.0851610     0.4390910     0.0952720
  N       -0.9981990    -1.6345430     0.1344100
  C        1.3080130    -0.1567610     0.6181790
  C        2.3023860    -0.5362440    -0.4764420
  C        0.0566886     1.8358617    -0.0345207
  C       -1.1027220    -0.2453970    -0.0205620
  H        1.7650550     0.5724880     1.2977430
  H        1.0430010    -1.0258810     1.2255100
  H        1.8814000    -1.2911440    -1.1469770
  H        2.5641180     0.3366430    -1.0800470
  H        3.2219480    -0.9400230    -0.0411410
  H        0.9206510     2.2208510    -0.6190080
  H        0.0756270     2.3767260     0.9415890
  H       -0.8611500     2.1650270    -0.5546380
  H       -0.1986710    -2.0759730    -0.3046340
  H       -1.8731440    -2.0716480    -0.1344710
units angstrom
no_reorient  #important for SAPT in psi4, default
symmetry c1  #important for SAPT in psi4, default
}

set PROPERTIES_ORIGIN ["COM"]
properties('MP2/aug-cc-pvtz', properties = ['dipole'])
--------------------------------------------------------------------------

    Molecular point group: c1
  Charge       = 0
  Multiplicity = 1
  Basis Set: AUG-CC-PVTZ
    Blend: AUG-CC-PVTZ
  Basis Set: (AUG-CC-PVTZ AUX)
    Blend: AUG-CC-PVTZ-JKFIT

    Orbital Energies [Eh]
    ---------------------

    Doubly Occupied:

       1A    -20.507483     2A    -15.583168     3A    -15.578947
       4A    -11.374233     5A    -11.275604     6A    -11.252610
       7A    -11.233897     8A     -1.382462     9A     -1.258228
      10A     -1.193806    11A     -1.036811    12A     -0.942340
      13A     -0.878656    14A     -0.764174    15A     -0.730973
      16A     -0.687624    17A     -0.642180    18A     -0.635109
      19A     -0.605872    20A     -0.597277    21A     -0.558347
      22A     -0.552308    23A     -0.535746    24A     -0.520402
      25A     -0.505548    26A     -0.442281    27A     -0.419208
      28A     -0.372403

  @DF-RHF Final Energy:  -341.20207545564369

   => Energetics <=

    Nuclear Repulsion Energy =            327.2989879029718168
    One-Electron Energy =               -1112.8667349575559911
    Two-Electron Energy =                 444.3656715989404802
    Total Energy =                       -341.2020754556436941
  Basis Set: (AUG-CC-PVTZ AUX)
    Blend: AUG-CC-PVTZ-RI
    Molecular point group: c1

    Geometry (in Angstrom), charge = 0, multiplicity = 1:

       Center              X                  Y                   Z               Mass
    ------------   -----------------  -----------------  -----------------  -----------------
         O           -2.108165515998     0.310709210436    -0.215090107869    15.994914619570
         N            0.167954484002     0.447589210436     0.090666892131    14.003074004430
         N           -0.915405515998    -1.626044789564     0.129804892131    14.003074004430
         C            1.390806484002    -0.148262789564     0.613573892131    12.000000000000
         C            2.385179484002    -0.527745789564    -0.481047107869    12.000000000000
         C            0.139482084002     1.844359910436    -0.039125807869    12.000000000000
         C           -1.019928515998    -0.236898789564    -0.025167107869    12.000000000000
         H            1.847848484002     0.580986210436     1.293137892131     1.007825032230
         H            1.125794484002    -1.017382789564     1.220904892131     1.007825032230
         H            1.964193484002    -1.282645789564    -1.151582107869     1.007825032230
         H            2.646911484002     0.345141210436    -1.084652107869     1.007825032230
         H            3.304741484002    -0.931524789564    -0.045746107869     1.007825032230
         H            1.003444484002     2.229349210436    -0.623613107869     1.007825032230
         H            0.158420484002     2.385224210436     0.936983892131     1.007825032230
         H           -0.778356515998     2.173525210436    -0.559243107869     1.007825032230
         H           -0.115877515998    -2.067474789564    -0.309239107869     1.007825032230
         H           -1.790350515998    -2.063149789564    -0.139076107869     1.007825032230

  Basis Set: AUG-CC-PVTZ
    Blend: AUG-CC-PVTZ
  Basis Set: (AUG-CC-PVTZ AUX)
    Blend: AUG-CC-PVTZ-JKFIT
	 Reference Energy          =    -341.2020754556436941 [Eh]
	 Singles Energy            =      -0.0000000000000000 [Eh]
	 Same-Spin Energy          =      -0.3493457576557052 [Eh]
	 Opposite-Spin Energy      =      -1.1398848900799492 [Eh]
	 Correlation Energy        =      -1.4892306477356545 [Eh]
	 Total Energy              =    -342.6913061033793610 [Eh]

	 ================> DF-SCS-MP2 Energies <==================
	-----------------------------------------------------------
	 SCS Same-Spin Scale       =       0.3333333333333333 [-]
	 SCS Opposite-Spin Scale   =       1.2000000000000000 [-]
	 SCS Same-Spin Energy      =      -0.1164485858852351 [Eh]
	 SCS Opposite-Spin Energy  =      -1.3678618680959389 [Eh]
	 SCS Correlation Energy    =      -1.4843104539811740 [Eh]
	 SCS Total Energy          =    -342.6863859096248461 [Eh]
	-----------------------------------------------------------

  Dipole Moment: [D]
     X:     3.7828      Y:    -1.3155      Z:    -0.1901     Total:     4.0095

*** Psi4 exiting successfully. Buy a developer a beer!
