                               Psi4 1.4a3.dev225

  ==> Input File <==

--------------------------------------------------------------------------
#psi4
#
memory 32 gb

molecule  {
0 1
  O       -2.1909590     0.3022110    -0.2104850
  N        0.0851610     0.4390910     0.0952720
  N       -0.9981990    -1.6345430     0.1344100
  C        1.3080130    -0.1567610     0.6181790
  C        2.3023860    -0.5362440    -0.4764420
  C        0.0556740     1.8856370    -0.0391460
  C       -1.1027220    -0.2453970    -0.0205620
  H        1.7650550     0.5724880     1.2977430
  H        1.0430010    -1.0258810     1.2255100
  H        1.8814000    -1.2911440    -1.1469770
  H        2.5641180     0.3366430    -1.0800470
  H        3.2219480    -0.9400230    -0.0411410
  H        0.9206510     2.2208510    -0.6190080
  H        0.0756270     2.3767260     0.9415890
  H       -0.6926598     2.1136818    -0.4599030
  H       -0.1986710    -2.0759730    -0.3046340
  H       -1.8731440    -2.0716480    -0.1344710
units angstrom
no_reorient  #important for SAPT in psi4, default
symmetry c1  #important for SAPT in psi4, default
}

set PROPERTIES_ORIGIN ["COM"]
properties('MP2/aug-cc-pvtz', properties = ['dipole'])
--------------------------------------------------------------------------

    Molecular point group: c1
  Charge       = 0
  Multiplicity = 1
  Basis Set: AUG-CC-PVTZ
    Blend: AUG-CC-PVTZ
  Basis Set: (AUG-CC-PVTZ AUX)
    Blend: AUG-CC-PVTZ-JKFIT

    Orbital Energies [Eh]
    ---------------------

    Doubly Occupied:

       1A    -20.505772     2A    -15.581062     3A    -15.577321
       4A    -11.372393     5A    -11.273466     6A    -11.232717
       7A    -11.231699     8A     -1.379537     9A     -1.250014
      10A     -1.190641    11A     -1.037438    12A     -0.965031
      13A     -0.876321    14A     -0.769311    15A     -0.733141
      16A     -0.684526    17A     -0.643944    18A     -0.636483
      19A     -0.607977    20A     -0.588689    21A     -0.574370
      22A     -0.558034    23A     -0.543757    24A     -0.531103
      25A     -0.507073    26A     -0.441711    27A     -0.417883
      28A     -0.373059

  @DF-RHF Final Energy:  -341.16997207879200

   => Energetics <=

    Nuclear Repulsion Energy =            327.2780866994725102
    One-Electron Energy =               -1112.7271710835830163
    Two-Electron Energy =                 444.2791123053185061
    Total Energy =                       -341.1699720787920000
  Basis Set: (AUG-CC-PVTZ AUX)
    Blend: AUG-CC-PVTZ-RI
    Molecular point group: c1

    Geometry (in Angstrom), charge = 0, multiplicity = 1:

       Center              X                  Y                   Z               Mass
    ------------   -----------------  -----------------  -----------------  -----------------
         O           -2.109709741137     0.305364771819    -0.215481692640    15.994914619570
         N            0.166410258863     0.442244771819     0.090275307360    14.003074004430
         N           -0.916949741137    -1.631389228181     0.129413307360    14.003074004430
         C            1.389262258863    -0.153607228181     0.613182307360    12.000000000000
         C            2.383635258863    -0.533090228181    -0.481438692640    12.000000000000
         C            0.136923258863     1.888790771819    -0.044142692640    12.000000000000
         C           -1.021472741137    -0.242243228181    -0.025558692640    12.000000000000
         H            1.846304258863     0.575641771819     1.292746307360     1.007825032230
         H            1.124250258863    -1.022727228181     1.220513307360     1.007825032230
         H            1.962649258863    -1.287990228181    -1.151973692640     1.007825032230
         H            2.645367258863     0.339796771819    -1.085043692640     1.007825032230
         H            3.303197258863    -0.936869228181    -0.046137692640     1.007825032230
         H            1.001900258863     2.224004771819    -0.624004692640     1.007825032230
         H            0.156876258863     2.379879771819     0.936592307360     1.007825032230
         H           -0.611410541137     2.116835571819    -0.464899692640     1.007825032230
         H           -0.117421741137    -2.072819228181    -0.309630692640     1.007825032230
         H           -1.791894741137    -2.068494228181    -0.139467692640     1.007825032230

  Basis Set: AUG-CC-PVTZ
    Blend: AUG-CC-PVTZ
  Basis Set: (AUG-CC-PVTZ AUX)
    Blend: AUG-CC-PVTZ-JKFIT
	 Reference Energy          =    -341.1699720787920000 [Eh]
	 Singles Energy            =      -0.0000000000000000 [Eh]
	 Same-Spin Energy          =      -0.3485844903333135 [Eh]
	 Opposite-Spin Energy      =      -1.1385982393413685 [Eh]
	 Correlation Energy        =      -1.4871827296746820 [Eh]
	 Total Energy              =    -342.6571548084666574 [Eh]

	 ================> DF-SCS-MP2 Energies <==================
	-----------------------------------------------------------
	 SCS Same-Spin Scale       =       0.3333333333333333 [-]
	 SCS Opposite-Spin Scale   =       1.2000000000000000 [-]
	 SCS Same-Spin Energy      =      -0.1161948301111045 [Eh]
	 SCS Opposite-Spin Energy  =      -1.3663178872096422 [Eh]
	 SCS Correlation Energy    =      -1.4825127173207466 [Eh]
	 SCS Total Energy          =    -342.6524847961127307 [Eh]
	-----------------------------------------------------------

  Dipole Moment: [D]
     X:     3.8478      Y:    -1.1170      Z:    -0.1839     Total:     4.0108

*** Psi4 exiting successfully. Buy a developer a beer!
