                               Psi4 1.4a3.dev225

  ==> Input File <==

--------------------------------------------------------------------------
#psi4
#
memory 32 gb

molecule  {
0 1
  O       -2.1909590     0.3022110    -0.2104850
  N        0.0851610     0.4390910     0.0952720
  N       -0.9981990    -1.6345430     0.1344100
  C        1.3080130    -0.1567610     0.6181790
  C        2.3023860    -0.5362440    -0.4764420
  C       -0.0943688     1.8726096    -0.0603771
  C       -1.1027220    -0.2453970    -0.0205620
  H        1.7650550     0.5724880     1.2977430
  H        1.0430010    -1.0258810     1.2255100
  H        1.8814000    -1.2911440    -1.1469770
  H        2.5641180     0.3366430    -1.0800470
  H        3.2219480    -0.9400230    -0.0411410
  H        0.9206510     2.2208510    -0.6190080
  H        0.0756270     2.3767260     0.9415890
  H       -0.8611500     2.1650270    -0.5546380
  H       -0.1986710    -2.0759730    -0.3046340
  H       -1.8731440    -2.0716480    -0.1344710
units angstrom
no_reorient  #important for SAPT in psi4, default
symmetry c1  #important for SAPT in psi4, default
}

set PROPERTIES_ORIGIN ["COM"]
properties('MP2/aug-cc-pvtz', properties = ['dipole'])
--------------------------------------------------------------------------

    Molecular point group: c1
  Charge       = 0
  Multiplicity = 1
  Basis Set: AUG-CC-PVTZ
    Blend: AUG-CC-PVTZ
  Basis Set: (AUG-CC-PVTZ AUX)
    Blend: AUG-CC-PVTZ-JKFIT

    Orbital Energies [Eh]
    ---------------------

    Doubly Occupied:

       1A    -20.506328     2A    -15.583864     3A    -15.576841
       4A    -11.370816     5A    -11.278849     6A    -11.258112
       7A    -11.234017     8A     -1.381575     9A     -1.250086
      10A     -1.190302    11A     -1.038249    12A     -0.944114
      13A     -0.877486    14A     -0.765498    15A     -0.733359
      16A     -0.683900    17A     -0.645119    18A     -0.635947
      19A     -0.610838    20A     -0.590278    21A     -0.558700
      22A     -0.549044    23A     -0.536799    24A     -0.526501
      25A     -0.504338    26A     -0.442229    27A     -0.417793
      28A     -0.368430

  @DF-RHF Final Energy:  -341.17597066764273

   => Energetics <=

    Nuclear Repulsion Energy =            326.6653711979852801
    One-Electron Energy =               -1111.5638596696030618
    Two-Electron Energy =                 443.7225178039751086
    Total Energy =                       -341.1759706676427299
  Basis Set: (AUG-CC-PVTZ AUX)
    Blend: AUG-CC-PVTZ-RI
    Molecular point group: c1

    Geometry (in Angstrom), charge = 0, multiplicity = 1:

       Center              X                  Y                   Z               Mass
    ------------   -----------------  -----------------  -----------------  -----------------
         O           -2.090407865132     0.306389287160    -0.212050541957    15.994914619570
         N            0.185712134868     0.443269287160     0.093706458043    14.003074004430
         N           -0.897647865132    -1.630364712840     0.132844458043    14.003074004430
         C            1.408564134868    -0.152582712840     0.616613458043    12.000000000000
         C            2.402937134868    -0.532065712840    -0.478007541957    12.000000000000
         C            0.006182334868     1.876787887160    -0.061942641957    12.000000000000
         C           -1.002170865132    -0.241218712840    -0.022127541957    12.000000000000
         H            1.865606134868     0.576666287160     1.296177458043     1.007825032230
         H            1.143552134868    -1.021702712840     1.223944458043     1.007825032230
         H            1.981951134868    -1.286965712840    -1.148542541957     1.007825032230
         H            2.664669134868     0.340821287160    -1.081612541957     1.007825032230
         H            3.322499134868    -0.935844712840    -0.042706541957     1.007825032230
         H            1.021202134868     2.225029287160    -0.620573541957     1.007825032230
         H            0.176178134868     2.380904287160     0.940023458043     1.007825032230
         H           -0.760598865132     2.169205287160    -0.556203541957     1.007825032230
         H           -0.098119865132    -2.071794712840    -0.306199541957     1.007825032230
         H           -1.772592865132    -2.067469712840    -0.136036541957     1.007825032230

  Basis Set: AUG-CC-PVTZ
    Blend: AUG-CC-PVTZ
  Basis Set: (AUG-CC-PVTZ AUX)
    Blend: AUG-CC-PVTZ-JKFIT
	 Reference Energy          =    -341.1759706676427299 [Eh]
	 Singles Energy            =      -0.0000000000000000 [Eh]
	 Same-Spin Energy          =      -0.3491002506226755 [Eh]
	 Opposite-Spin Energy      =      -1.1405575592927297 [Eh]
	 Correlation Energy        =      -1.4896578099154052 [Eh]
	 Total Energy              =    -342.6656284775581298 [Eh]

	 ================> DF-SCS-MP2 Energies <==================
	-----------------------------------------------------------
	 SCS Same-Spin Scale       =       0.3333333333333333 [-]
	 SCS Opposite-Spin Scale   =       1.2000000000000000 [-]
	 SCS Same-Spin Energy      =      -0.1163667502075585 [Eh]
	 SCS Opposite-Spin Energy  =      -1.3686690711512757 [Eh]
	 SCS Correlation Energy    =      -1.4850358213588342 [Eh]
	 SCS Total Energy          =    -342.6610064890015792 [Eh]
	-----------------------------------------------------------

  Dipole Moment: [D]
     X:     3.7977      Y:    -1.2587      Z:    -0.1396     Total:     4.0033

*** Psi4 exiting successfully. Buy a developer a beer!
