                               Psi4 1.4a3.dev225

  ==> Input File <==

--------------------------------------------------------------------------
#psi4
#
memory 32 gb

molecule  {
0 1
  O       -2.1909590     0.3022110    -0.2104850
  N        0.0851610     0.4390910     0.0952720
  N       -0.9981990    -1.6345430     0.1344100
  C        1.3080130    -0.1567610     0.6181790
  C        2.3023860    -0.5362440    -0.4764420
  C        0.0556740     1.8856370    -0.0391460
  C       -1.1027220    -0.2453970    -0.0205620
  H        1.7650550     0.5724880     1.2977430
  H        1.0430010    -1.0258810     1.2255100
  H        1.8814000    -1.2911440    -1.1469770
  H        2.5641180     0.3366430    -1.0800470
  H        3.2639530    -0.9584674    -0.0212567
  H        0.9206510     2.2208510    -0.6190080
  H        0.0756270     2.3767260     0.9415890
  H       -0.8611500     2.1650270    -0.5546380
  H       -0.1986710    -2.0759730    -0.3046340
  H       -1.8731440    -2.0716480    -0.1344710
units angstrom
no_reorient  #important for SAPT in psi4, default
symmetry c1  #important for SAPT in psi4, default
}

set PROPERTIES_ORIGIN ["COM"]
properties('MP2/aug-cc-pvtz', properties = ['dipole'])
--------------------------------------------------------------------------

    Molecular point group: c1
  Charge       = 0
  Multiplicity = 1
  Basis Set: AUG-CC-PVTZ
    Blend: AUG-CC-PVTZ
  Basis Set: (AUG-CC-PVTZ AUX)
    Blend: AUG-CC-PVTZ-JKFIT

    Orbital Energies [Eh]
    ---------------------

    Doubly Occupied:

       1A    -20.505942     2A    -15.582408     3A    -15.577776
       4A    -11.372746     5A    -11.274763     6A    -11.253109
       7A    -11.239062     8A     -1.379784     9A     -1.249804
      10A     -1.190335    11A     -1.031970    12A     -0.944255
      13A     -0.873664    14A     -0.762603    15A     -0.728066
      16A     -0.684289    17A     -0.639371    18A     -0.632990
      19A     -0.604241    20A     -0.587373    21A     -0.558904
      22A     -0.555182    23A     -0.537410    24A     -0.522491
      25A     -0.505505    26A     -0.441217    27A     -0.418114
      28A     -0.373676

  @DF-RHF Final Energy:  -341.20274127829100

   => Energetics <=

    Nuclear Repulsion Energy =            326.1002958779279197
    One-Electron Energy =               -1110.5519756213609526
    Two-Electron Energy =                 443.2489384651420323
    Total Energy =                       -341.2027412782910005
  Basis Set: (AUG-CC-PVTZ AUX)
    Blend: AUG-CC-PVTZ-RI
    Molecular point group: c1

    Geometry (in Angstrom), charge = 0, multiplicity = 1:

       Center              X                  Y                   Z               Mass
    ------------   -----------------  -----------------  -----------------  -----------------
         O           -2.108460957744     0.305039943517    -0.214742694630    15.994914619570
         N            0.167659042256     0.441919943517     0.091014305370    14.003074004430
         N           -0.915700957744    -1.631714056483     0.130152305370    14.003074004430
         C            1.390511042256    -0.153932056483     0.613921305370    12.000000000000
         C            2.384884042256    -0.533415056483    -0.480699694630    12.000000000000
         C            0.138172042256     1.888465943517    -0.043403694630    12.000000000000
         C           -1.020223957744    -0.242568056483    -0.024819694630    12.000000000000
         H            1.847553042256     0.575316943517     1.293485305370     1.007825032230
         H            1.125499042256    -1.023052056483     1.221252305370     1.007825032230
         H            1.963898042256    -1.288315056483    -1.151234694630     1.007825032230
         H            2.646616042256     0.339471943517    -1.084304694630     1.007825032230
         H            3.346451042256    -0.955638456483    -0.025514394630     1.007825032230
         H            1.003149042256     2.223679943517    -0.623265694630     1.007825032230
         H            0.158125042256     2.379554943517     0.937331305370     1.007825032230
         H           -0.778651957744     2.167855943517    -0.558895694630     1.007825032230
         H           -0.116172957744    -2.073144056483    -0.308891694630     1.007825032230
         H           -1.790645957744    -2.068819056483    -0.138728694630     1.007825032230

  Basis Set: AUG-CC-PVTZ
    Blend: AUG-CC-PVTZ
  Basis Set: (AUG-CC-PVTZ AUX)
    Blend: AUG-CC-PVTZ-JKFIT
	 Reference Energy          =    -341.2027412782910005 [Eh]
	 Singles Energy            =      -0.0000000000000000 [Eh]
	 Same-Spin Energy          =      -0.3488844512501255 [Eh]
	 Opposite-Spin Energy      =      -1.1399439120692139 [Eh]
	 Correlation Energy        =      -1.4888283633193393 [Eh]
	 Total Energy              =    -342.6915696416103287 [Eh]

	 ================> DF-SCS-MP2 Energies <==================
	-----------------------------------------------------------
	 SCS Same-Spin Scale       =       0.3333333333333333 [-]
	 SCS Opposite-Spin Scale   =       1.2000000000000000 [-]
	 SCS Same-Spin Energy      =      -0.1162948170833752 [Eh]
	 SCS Opposite-Spin Energy  =      -1.3679326944830565 [Eh]
	 SCS Correlation Energy    =      -1.4842275115664316 [Eh]
	 SCS Total Energy          =    -342.6869687898574171 [Eh]
	-----------------------------------------------------------

  Dipole Moment: [D]
     X:     3.7777      Y:    -1.1508      Z:    -0.1852     Total:     3.9534

*** Psi4 exiting successfully. Buy a developer a beer!
