                               Psi4 1.4a3.dev225

  ==> Input File <==

--------------------------------------------------------------------------
#psi4
#
memory 32 gb

molecule  {
0 1
  O       -2.1909590     0.3022110    -0.2104850
  N        0.0851610     0.4390910     0.0952720
  N       -0.9981990    -1.6345430     0.1344100
  C        1.3499679    -0.1772041     0.6361195
  C        2.3023860    -0.5362440    -0.4764420
  C        0.0556740     1.8856370    -0.0391460
  C       -1.1027220    -0.2453970    -0.0205620
  H        1.7650550     0.5724880     1.2977430
  H        1.0430010    -1.0258810     1.2255100
  H        1.8814000    -1.2911440    -1.1469770
  H        2.5641180     0.3366430    -1.0800470
  H        3.2219480    -0.9400230    -0.0411410
  H        0.9206510     2.2208510    -0.6190080
  H        0.0756270     2.3767260     0.9415890
  H       -0.8611500     2.1650270    -0.5546380
  H       -0.1986710    -2.0759730    -0.3046340
  H       -1.8731440    -2.0716480    -0.1344710
units angstrom
no_reorient  #important for SAPT in psi4, default
symmetry c1  #important for SAPT in psi4, default
}

set PROPERTIES_ORIGIN ["COM"]
properties('MP2/aug-cc-pvtz', properties = ['dipole'])
--------------------------------------------------------------------------

    Molecular point group: c1
  Charge       = 0
  Multiplicity = 1
  Basis Set: AUG-CC-PVTZ
    Blend: AUG-CC-PVTZ
  Basis Set: (AUG-CC-PVTZ AUX)
    Blend: AUG-CC-PVTZ-JKFIT

    Orbital Energies [Eh]
    ---------------------

    Doubly Occupied:

       1A    -20.503516     2A    -15.579567     3A    -15.576292
       4A    -11.370083     5A    -11.275766     6A    -11.251117
       7A    -11.234497     8A     -1.376674     9A     -1.240387
      10A     -1.187116    11A     -1.039645    12A     -0.940869
      13A     -0.874849    14A     -0.760417    15A     -0.724793
      16A     -0.680713    17A     -0.636781    18A     -0.635244
      19A     -0.603913    20A     -0.588611    21A     -0.559828
      22A     -0.555761    23A     -0.545190    24A     -0.521113
      25A     -0.506853    26A     -0.438855    27A     -0.416797
      28A     -0.372554

  @DF-RHF Final Energy:  -341.20264368615301

   => Energetics <=

    Nuclear Repulsion Energy =            325.5944657716915458
    One-Electron Energy =               -1109.5986107172175252
    Two-Electron Energy =                 442.8015012593729125
    Total Energy =                       -341.2026436861530101
  Basis Set: (AUG-CC-PVTZ AUX)
    Blend: AUG-CC-PVTZ-RI
    Molecular point group: c1

    Geometry (in Angstrom), charge = 0, multiplicity = 1:

       Center              X                  Y                   Z               Mass
    ------------   -----------------  -----------------  -----------------  -----------------
         O           -2.112978279581     0.307261044595    -0.216655384862    15.994914619570
         N            0.163141720419     0.444141044595     0.089101615138    14.003074004430
         N           -0.920218279581    -1.629492955405     0.128239615138    14.003074004430
         C            1.427948620419    -0.172154055405     0.629949115138    12.000000000000
         C            2.380366720419    -0.531193955405    -0.482612384862    12.000000000000
         C            0.133654720419     1.890687044595    -0.045316384862    12.000000000000
         C           -1.024741279581    -0.240346955405    -0.026732384862    12.000000000000
         H            1.843035720419     0.577538044595     1.291572615138     1.007825032230
         H            1.120981720419    -1.020830955405     1.219339615138     1.007825032230
         H            1.959380720419    -1.286093955405    -1.153147384862     1.007825032230
         H            2.642098720419     0.341693044595    -1.086217384862     1.007825032230
         H            3.299928720419    -0.934972955405    -0.047311384862     1.007825032230
         H            0.998631720419     2.225901044595    -0.625178384862     1.007825032230
         H            0.153607720419     2.381776044595     0.935418615138     1.007825032230
         H           -0.783169279581     2.170077044595    -0.560808384862     1.007825032230
         H           -0.120690279581    -2.070922955405    -0.310804384862     1.007825032230
         H           -1.795163279581    -2.066597955405    -0.140641384862     1.007825032230

  Basis Set: AUG-CC-PVTZ
    Blend: AUG-CC-PVTZ
  Basis Set: (AUG-CC-PVTZ AUX)
    Blend: AUG-CC-PVTZ-JKFIT
	 Reference Energy          =    -341.2026436861530101 [Eh]
	 Singles Energy            =      -0.0000000000000000 [Eh]
	 Same-Spin Energy          =      -0.3487699392590138 [Eh]
	 Opposite-Spin Energy      =      -1.1397329743606850 [Eh]
	 Correlation Energy        =      -1.4885029136196988 [Eh]
	 Total Energy              =    -342.6911465997727078 [Eh]

	 ================> DF-SCS-MP2 Energies <==================
	-----------------------------------------------------------
	 SCS Same-Spin Scale       =       0.3333333333333333 [-]
	 SCS Opposite-Spin Scale   =       1.2000000000000000 [-]
	 SCS Same-Spin Energy      =      -0.1162566464196713 [Eh]
	 SCS Opposite-Spin Energy  =      -1.3676795692328219 [Eh]
	 SCS Correlation Energy    =      -1.4839362156524931 [Eh]
	 SCS Total Energy          =    -342.6865799018054872 [Eh]
	-----------------------------------------------------------

  Dipole Moment: [D]
     X:     3.9714      Y:    -1.2053      Z:    -0.1551     Total:     4.1532

*** Psi4 exiting successfully. Buy a developer a beer!
