                               Psi4 1.4a3.dev225

  ==> Input File <==

--------------------------------------------------------------------------
#psi4
#
memory 32 gb

molecule  {
0 1
  O       -2.1909590     0.3022110    -0.2104850
  N        0.0851610     0.4390910     0.0952720
  N       -0.9981990    -1.6345430     0.1344100
  C        1.3080130    -0.1567610     0.6181790
  C        2.3023860    -0.5362440    -0.4764420
  C        0.0577033     1.7860865    -0.0298954
  C       -1.1027220    -0.2453970    -0.0205620
  H        1.7650550     0.5724880     1.2977430
  H        1.0430010    -1.0258810     1.2255100
  H        1.8814000    -1.2911440    -1.1469770
  H        2.5641180     0.3366430    -1.0800470
  H        3.2219480    -0.9400230    -0.0411410
  H        0.9206510     2.2208510    -0.6190080
  H        0.0756270     2.3767260     0.9415890
  H       -0.8611500     2.1650270    -0.5546380
  H       -0.1986710    -2.0759730    -0.3046340
  H       -1.8731440    -2.0716480    -0.1344710
units angstrom
no_reorient  #important for SAPT in psi4, default
symmetry c1  #important for SAPT in psi4, default
}

set PROPERTIES_ORIGIN ["COM"]
properties('MP2/aug-cc-pvtz', properties = ['dipole'])
--------------------------------------------------------------------------

    Molecular point group: c1
  Charge       = 0
  Multiplicity = 1
  Basis Set: AUG-CC-PVTZ
    Blend: AUG-CC-PVTZ
  Basis Set: (AUG-CC-PVTZ AUX)
    Blend: AUG-CC-PVTZ-JKFIT

    Orbital Energies [Eh]
    ---------------------

    Doubly Occupied:

       1A    -20.509578     2A    -15.584184     3A    -15.580492
       4A    -11.376195     5A    -11.277001     6A    -11.253231
       7A    -11.234843     8A     -1.386063     9A     -1.268831
      10A     -1.197490    11A     -1.040173    12A     -0.941232
      13A     -0.881326    14A     -0.765780    15A     -0.734365
      16A     -0.691179    17A     -0.645532    18A     -0.638049
      19A     -0.610110    20A     -0.603321    21A     -0.559223
      22A     -0.547379    23A     -0.534977    24A     -0.515206
      25A     -0.501285    26A     -0.443688    27A     -0.420612
      28A     -0.370341

  @DF-RHF Final Energy:  -341.19354079282414

   => Energetics <=

    Nuclear Repulsion Energy =            328.3216011964884729
    One-Electron Energy =               -1114.8069097047462037
    Two-Electron Energy =                 445.2917677154335934
    Total Energy =                       -341.1935407928241375
  Basis Set: (AUG-CC-PVTZ AUX)
    Blend: AUG-CC-PVTZ-RI
    Molecular point group: c1

    Geometry (in Angstrom), charge = 0, multiplicity = 1:

       Center              X                  Y                   Z               Mass
    ------------   -----------------  -----------------  -----------------  -----------------
         O           -2.108284799716     0.316560566433    -0.215633838018    15.994914619570
         N            0.167835200284     0.453440566433     0.090123161982    14.003074004430
         N           -0.915524799716    -1.620193433567     0.129261161982    14.003074004430
         C            1.390687200284    -0.142411433567     0.613030161982    12.000000000000
         C            2.385060200284    -0.521894433567    -0.481590838018    12.000000000000
         C            0.140377500284     1.800436066433    -0.035044238018    12.000000000000
         C           -1.020047799716    -0.231047433567    -0.025710838018    12.000000000000
         H            1.847729200284     0.586837566433     1.292594161982     1.007825032230
         H            1.125675200284    -1.011531433567     1.220361161982     1.007825032230
         H            1.964074200284    -1.276794433567    -1.152125838018     1.007825032230
         H            2.646792200284     0.350992566433    -1.085195838018     1.007825032230
         H            3.304622200284    -0.925673433567    -0.046289838018     1.007825032230
         H            1.003325200284     2.235200566433    -0.624156838018     1.007825032230
         H            0.158301200284     2.391075566433     0.936440161982     1.007825032230
         H           -0.778475799716     2.179376566433    -0.559786838018     1.007825032230
         H           -0.115996799716    -2.061623433567    -0.309782838018     1.007825032230
         H           -1.790469799716    -2.057298433567    -0.139619838018     1.007825032230

  Basis Set: AUG-CC-PVTZ
    Blend: AUG-CC-PVTZ
  Basis Set: (AUG-CC-PVTZ AUX)
    Blend: AUG-CC-PVTZ-JKFIT
	 Reference Energy          =    -341.1935407928241375 [Eh]
	 Singles Energy            =      -0.0000000000000000 [Eh]
	 Same-Spin Energy          =      -0.3499891708916678 [Eh]
	 Opposite-Spin Energy      =      -1.1404863452845349 [Eh]
	 Correlation Energy        =      -1.4904755161762027 [Eh]
	 Total Energy              =    -342.6840163090003557 [Eh]

	 ================> DF-SCS-MP2 Energies <==================
	-----------------------------------------------------------
	 SCS Same-Spin Scale       =       0.3333333333333333 [-]
	 SCS Opposite-Spin Scale   =       1.2000000000000000 [-]
	 SCS Same-Spin Energy      =      -0.1166630569638892 [Eh]
	 SCS Opposite-Spin Energy  =      -1.3685836143414418 [Eh]
	 SCS Correlation Energy    =      -1.4852466713053312 [Eh]
	 SCS Total Energy          =    -342.6787874641294707 [Eh]
	-----------------------------------------------------------

  Dipole Moment: [D]
     X:     3.7458      Y:    -1.4828      Z:    -0.2048     Total:     4.0338

*** Psi4 exiting successfully. Buy a developer a beer!
