                               Psi4 1.4a3.dev225

  ==> Input File <==

--------------------------------------------------------------------------
#psi4
#
memory 32 gb

molecule  {
0 1
  O       -2.1909590     0.3022110    -0.2104850
  N        0.0851610     0.4390910     0.0952720
  N       -0.9981990    -1.6345430     0.1344100
  C        1.3080130    -0.1567610     0.6181790
  C        2.3023860    -0.5362440    -0.4764420
  C        0.0556740     1.8856370    -0.0391460
  C       -1.1027220    -0.2453970    -0.0205620
  H        1.7650550     0.5724880     1.2977430
  H        1.0430010    -1.0258810     1.2255100
  H        1.8814000    -1.2911440    -1.1469770
  H        2.5641180     0.3366430    -1.0800470
  H        3.2219480    -0.9400230    -0.0411410
  H        0.9206510     2.2208510    -0.6190080
  H        0.0747176     2.3543427     0.8968882
  H       -0.8611500     2.1650270    -0.5546380
  H       -0.1986710    -2.0759730    -0.3046340
  H       -1.8731440    -2.0716480    -0.1344710
units angstrom
no_reorient  #important for SAPT in psi4, default
symmetry c1  #important for SAPT in psi4, default
}

set PROPERTIES_ORIGIN ["COM"]
properties('MP2/aug-cc-pvtz', properties = ['dipole'])
--------------------------------------------------------------------------

    Molecular point group: c1
  Charge       = 0
  Multiplicity = 1
  Basis Set: AUG-CC-PVTZ
    Blend: AUG-CC-PVTZ
  Basis Set: (AUG-CC-PVTZ AUX)
    Blend: AUG-CC-PVTZ-JKFIT

    Orbital Energies [Eh]
    ---------------------

    Doubly Occupied:

       1A    -20.505224     2A    -15.581123     3A    -15.577200
       4A    -11.372001     5A    -11.274183     6A    -11.246602
       7A    -11.232833     8A     -1.379089     9A     -1.249140
      10A     -1.189833    11A     -1.033929    12A     -0.948309
      13A     -0.876027    14A     -0.763588    15A     -0.727693
      16A     -0.684213    17A     -0.642431    18A     -0.632610
      19A     -0.604301    20A     -0.590067    21A     -0.561933
      22A     -0.559247    23A     -0.537510    24A     -0.525183
      25A     -0.505691    26A     -0.440684    27A     -0.417622
      28A     -0.373585

  @DF-RHF Final Energy:  -341.20390540228635

   => Energetics <=

    Nuclear Repulsion Energy =            326.5542415065871182
    One-Electron Energy =               -1111.4525987562094542
    Two-Electron Energy =                 443.6944518473359835
    Total Energy =                       -341.2039054022863525
  Basis Set: (AUG-CC-PVTZ AUX)
    Blend: AUG-CC-PVTZ-RI
    Molecular point group: c1

    Geometry (in Angstrom), charge = 0, multiplicity = 1:

       Center              X                  Y                   Z               Mass
    ------------   -----------------  -----------------  -----------------  -----------------
         O           -2.108037265565     0.305078832122    -0.214105048484    15.994914619570
         N            0.168082734435     0.441958832122     0.091651951516    14.003074004430
         N           -0.915277265565    -1.631675167878     0.130789951516    14.003074004430
         C            1.390934734435    -0.153893167878     0.614558951516    12.000000000000
         C            2.385307734435    -0.533376167878    -0.480062048484    12.000000000000
         C            0.138595734435     1.888504832122    -0.042766048484    12.000000000000
         C           -1.019800265565    -0.242529167878    -0.024182048484    12.000000000000
         H            1.847976734435     0.575355832122     1.294122951516     1.007825032230
         H            1.125922734435    -1.023013167878     1.221889951516     1.007825032230
         H            1.964321734435    -1.288276167878    -1.150597048484     1.007825032230
         H            2.647039734435     0.339510832122    -1.083667048484     1.007825032230
         H            3.304869734435    -0.937155167878    -0.044761048484     1.007825032230
         H            1.003572734435     2.223718832122    -0.622628048484     1.007825032230
         H            0.157639334435     2.357210532122     0.893268151516     1.007825032230
         H           -0.778228265565     2.167894832122    -0.558258048484     1.007825032230
         H           -0.115749265565    -2.073105167878    -0.308254048484     1.007825032230
         H           -1.790222265565    -2.068780167878    -0.138091048484     1.007825032230

  Basis Set: AUG-CC-PVTZ
    Blend: AUG-CC-PVTZ
  Basis Set: (AUG-CC-PVTZ AUX)
    Blend: AUG-CC-PVTZ-JKFIT
	 Reference Energy          =    -341.2039054022863525 [Eh]
	 Singles Energy            =      -0.0000000000000000 [Eh]
	 Same-Spin Energy          =      -0.3488916442455461 [Eh]
	 Opposite-Spin Energy      =      -1.1393446570065293 [Eh]
	 Correlation Energy        =      -1.4882363012520754 [Eh]
	 Total Energy              =    -342.6921417035384252 [Eh]

	 ================> DF-SCS-MP2 Energies <==================
	-----------------------------------------------------------
	 SCS Same-Spin Scale       =       0.3333333333333333 [-]
	 SCS Opposite-Spin Scale   =       1.2000000000000000 [-]
	 SCS Same-Spin Energy      =      -0.1162972147485154 [Eh]
	 SCS Opposite-Spin Energy  =      -1.3672135884078351 [Eh]
	 SCS Correlation Energy    =      -1.4835108031563504 [Eh]
	 SCS Total Energy          =    -342.6874162054427302 [Eh]
	-----------------------------------------------------------

  Dipole Moment: [D]
     X:     3.8217      Y:    -1.1303      Z:    -0.1539     Total:     3.9883

*** Psi4 exiting successfully. Buy a developer a beer!
