                               Psi4 1.4a3.dev225

  ==> Input File <==

--------------------------------------------------------------------------
#psi4
#
memory 32 gb

molecule  {
0 1
  O       -2.1909590     0.3022110    -0.2104850
  N        0.0851610     0.4390910     0.0952720
  N       -0.9981990    -1.6345430     0.1344100
  C        1.3080130    -0.1567610     0.6181790
  C        2.1721263    -0.4865329    -0.3330501
  C        0.0556740     1.8856370    -0.0391460
  C       -1.1027220    -0.2453970    -0.0205620
  H        1.7650550     0.5724880     1.2977430
  H        1.0430010    -1.0258810     1.2255100
  H        1.8814000    -1.2911440    -1.1469770
  H        2.5641180     0.3366430    -1.0800470
  H        3.2219480    -0.9400230    -0.0411410
  H        0.9206510     2.2208510    -0.6190080
  H        0.0756270     2.3767260     0.9415890
  H       -0.8611500     2.1650270    -0.5546380
  H       -0.1986710    -2.0759730    -0.3046340
  H       -1.8731440    -2.0716480    -0.1344710
units angstrom
no_reorient  #important for SAPT in psi4, default
symmetry c1  #important for SAPT in psi4, default
}

set PROPERTIES_ORIGIN ["COM"]
properties('MP2/aug-cc-pvtz', properties = ['dipole'])
--------------------------------------------------------------------------

    Molecular point group: c1
  Charge       = 0
  Multiplicity = 1
  Basis Set: AUG-CC-PVTZ
    Blend: AUG-CC-PVTZ
  Basis Set: (AUG-CC-PVTZ AUX)
    Blend: AUG-CC-PVTZ-JKFIT

    Orbital Energies [Eh]
    ---------------------

    Doubly Occupied:

       1A    -20.505919     2A    -15.581717     3A    -15.577408
       4A    -11.372926     5A    -11.264990     6A    -11.252955
       7A    -11.247701     8A     -1.380057     9A     -1.256031
      10A     -1.191446    11A     -1.075099    12A     -0.944313
      13A     -0.857859    14A     -0.765162    15A     -0.731821
      16A     -0.690610    17A     -0.659240    18A     -0.641417
      19A     -0.605276    20A     -0.589841    21A     -0.582944
      22A     -0.556387    23A     -0.544759    24A     -0.490053
      25A     -0.469054    26A     -0.440600    27A     -0.417173
      28A     -0.378841

  @DF-RHF Final Energy:  -341.15506030599369

   => Energetics <=

    Nuclear Repulsion Energy =            329.5137020656608797
    One-Electron Energy =               -1117.1943231486195600
    Two-Electron Energy =                 446.5255607769649373
    Total Energy =                       -341.1550603059936861
  Basis Set: (AUG-CC-PVTZ AUX)
    Blend: AUG-CC-PVTZ-RI
    Molecular point group: c1

    Geometry (in Angstrom), charge = 0, multiplicity = 1:

       Center              X                  Y                   Z               Mass
    ------------   -----------------  -----------------  -----------------  -----------------
         O           -2.092733480314     0.299014022003    -0.231402905750    15.994914619570
         N            0.183386519686     0.435894022003     0.074354094250    14.003074004430
         N           -0.899973480314    -1.637739977997     0.113492094250    14.003074004430
         C            1.406238519686    -0.159957977997     0.597261094250    12.000000000000
         C            2.270351819686    -0.489729877997    -0.353968005750    12.000000000000
         C            0.153899519686     1.882440022003    -0.060063905750    12.000000000000
         C           -1.004496480314    -0.248593977997    -0.041479905750    12.000000000000
         H            1.863280519686     0.569291022003     1.276825094250     1.007825032230
         H            1.141226519686    -1.029077977997     1.204592094250     1.007825032230
         H            1.979625519686    -1.294340977997    -1.167894905750     1.007825032230
         H            2.662343519686     0.333446022003    -1.100964905750     1.007825032230
         H            3.320173519686    -0.943219977997    -0.062058905750     1.007825032230
         H            1.018876519686     2.217654022003    -0.639925905750     1.007825032230
         H            0.173852519686     2.373529022003     0.920671094250     1.007825032230
         H           -0.762924480314     2.161830022003    -0.575555905750     1.007825032230
         H           -0.100445480314    -2.079169977997    -0.325551905750     1.007825032230
         H           -1.774918480314    -2.074844977997    -0.155388905750     1.007825032230

  Basis Set: AUG-CC-PVTZ
    Blend: AUG-CC-PVTZ
  Basis Set: (AUG-CC-PVTZ AUX)
    Blend: AUG-CC-PVTZ-JKFIT
	 Reference Energy          =    -341.1550603059936861 [Eh]
	 Singles Energy            =      -0.0000000000000000 [Eh]
	 Same-Spin Energy          =      -0.3516909976680317 [Eh]
	 Opposite-Spin Energy      =      -1.1433130057040670 [Eh]
	 Correlation Energy        =      -1.4950040033720988 [Eh]
	 Total Energy              =    -342.6500643093658027 [Eh]

	 ================> DF-SCS-MP2 Energies <==================
	-----------------------------------------------------------
	 SCS Same-Spin Scale       =       0.3333333333333333 [-]
	 SCS Opposite-Spin Scale   =       1.2000000000000000 [-]
	 SCS Same-Spin Energy      =      -0.1172303325560106 [Eh]
	 SCS Opposite-Spin Energy  =      -1.3719756068448803 [Eh]
	 SCS Correlation Energy    =      -1.4892059394008910 [Eh]
	 SCS Total Energy          =    -342.6442662453945900 [Eh]
	-----------------------------------------------------------

  Dipole Moment: [D]
     X:     3.8532      Y:    -1.1722      Z:    -0.1765     Total:     4.0314

*** Psi4 exiting successfully. Buy a developer a beer!
