                               Psi4 1.4a3.dev225

  ==> Input File <==

--------------------------------------------------------------------------
#psi4
#
memory 32 gb

molecule  {
0 1
  O       -2.1909590     0.3022110    -0.2104850
  N        0.0851610     0.4390910     0.0952720
  N       -0.9981990    -1.6345430     0.1344100
  C        1.3080130    -0.1567610     0.6181790
  C        2.3023860    -0.5362440    -0.4764420
  C        0.0556740     1.8856370    -0.0391460
  C       -1.1027220    -0.2453970    -0.0205620
  H        1.7650550     0.5724880     1.2977430
  H        1.0430010    -1.0258810     1.2255100
  H        1.8814000    -1.2911440    -1.1469770
  H        2.5401731     0.2567856    -1.0248253
  H        3.2219480    -0.9400230    -0.0411410
  H        0.9206510     2.2208510    -0.6190080
  H        0.0756270     2.3767260     0.9415890
  H       -0.8611500     2.1650270    -0.5546380
  H       -0.1986710    -2.0759730    -0.3046340
  H       -1.8731440    -2.0716480    -0.1344710
units angstrom
no_reorient  #important for SAPT in psi4, default
symmetry c1  #important for SAPT in psi4, default
}

set PROPERTIES_ORIGIN ["COM"]
properties('MP2/aug-cc-pvtz', properties = ['dipole'])
--------------------------------------------------------------------------

    Molecular point group: c1
  Charge       = 0
  Multiplicity = 1
  Basis Set: AUG-CC-PVTZ
    Blend: AUG-CC-PVTZ
  Basis Set: (AUG-CC-PVTZ AUX)
    Blend: AUG-CC-PVTZ-JKFIT

    Orbital Energies [Eh]
    ---------------------

    Doubly Occupied:

       1A    -20.505471     2A    -15.581756     3A    -15.577248
       4A    -11.372237     5A    -11.273274     6A    -11.252995
       7A    -11.220544     8A     -1.379311     9A     -1.249313
      10A     -1.189845    11A     -1.038752    12A     -0.945250
      13A     -0.882758    14A     -0.762587    15A     -0.728674
      16A     -0.684346    17A     -0.640104    18A     -0.635259
      19A     -0.605383    20A     -0.594976    21A     -0.560293
      22A     -0.558175    23A     -0.539702    24A     -0.525009
      25A     -0.510190    26A     -0.440810    27A     -0.417654
      28A     -0.373026

  @DF-RHF Final Energy:  -341.19866295763291

   => Energetics <=

    Nuclear Repulsion Energy =            326.7520723223442474
    One-Electron Energy =               -1111.8115869031796592
    Two-Electron Energy =                 443.8608516232025067
    Total Energy =                       -341.1986629576329051
  Basis Set: (AUG-CC-PVTZ AUX)
    Blend: AUG-CC-PVTZ-RI
    Molecular point group: c1

    Geometry (in Angstrom), charge = 0, multiplicity = 1:

       Center              X                  Y                   Z               Mass
    ------------   -----------------  -----------------  -----------------  -----------------
         O           -2.107809836981     0.305646271645    -0.215091579387    15.994914619570
         N            0.168310163019     0.442526271645     0.090665420613    14.003074004430
         N           -0.915049836981    -1.631107728355     0.129803420613    14.003074004430
         C            1.391162163019    -0.153325728355     0.613572420613    12.000000000000
         C            2.385535163019    -0.532808728355    -0.481048579387    12.000000000000
         C            0.138823163019     1.889072271645    -0.043752579387    12.000000000000
         C           -1.019572836981    -0.241961728355    -0.025168579387    12.000000000000
         H            1.848204163019     0.575923271645     1.293136420613     1.007825032230
         H            1.126150163019    -1.022445728355     1.220903420613     1.007825032230
         H            1.964549163019    -1.287708728355    -1.151583579387     1.007825032230
         H            2.623322263019     0.260220871645    -1.029431879387     1.007825032230
         H            3.305097163019    -0.936587728355    -0.045747579387     1.007825032230
         H            1.003800163019     2.224286271645    -0.623614579387     1.007825032230
         H            0.158776163019     2.380161271645     0.936982420613     1.007825032230
         H           -0.778000836981     2.168462271645    -0.559244579387     1.007825032230
         H           -0.115521836981    -2.072537728355    -0.309240579387     1.007825032230
         H           -1.789994836981    -2.068212728355    -0.139077579387     1.007825032230

  Basis Set: AUG-CC-PVTZ
    Blend: AUG-CC-PVTZ
  Basis Set: (AUG-CC-PVTZ AUX)
    Blend: AUG-CC-PVTZ-JKFIT
	 Reference Energy          =    -341.1986629576329051 [Eh]
	 Singles Energy            =      -0.0000000000000000 [Eh]
	 Same-Spin Energy          =      -0.3489327748167639 [Eh]
	 Opposite-Spin Energy      =      -1.1391610518007680 [Eh]
	 Correlation Energy        =      -1.4880938266175319 [Eh]
	 Total Energy              =    -342.6867567842504627 [Eh]

	 ================> DF-SCS-MP2 Energies <==================
	-----------------------------------------------------------
	 SCS Same-Spin Scale       =       0.3333333333333333 [-]
	 SCS Opposite-Spin Scale   =       1.2000000000000000 [-]
	 SCS Same-Spin Energy      =      -0.1163109249389213 [Eh]
	 SCS Opposite-Spin Energy  =      -1.3669932621609215 [Eh]
	 SCS Correlation Energy    =      -1.4833041870998429 [Eh]
	 SCS Total Energy          =    -342.6819671447327664 [Eh]
	-----------------------------------------------------------

  Dipole Moment: [D]
     X:     3.8361      Y:    -1.1361      Z:    -0.2080     Total:     4.0062

*** Psi4 exiting successfully. Buy a developer a beer!
