                               Psi4 1.4a3.dev225

  ==> Input File <==

--------------------------------------------------------------------------
#psi4
#
memory 32 gb

molecule  {
0 1
  O       -2.1909590     0.3022110    -0.2104850
  N        0.0851610     0.4390910     0.0952720
  N       -0.9981990    -1.6345430     0.1344100
  C        1.3080130    -0.1567610     0.6181790
  C        2.3023860    -0.5362440    -0.4764420
  C        0.0556740     1.8856370    -0.0391460
  C       -1.1027220    -0.2453970    -0.0205620
  H        1.7650550     0.5724880     1.2977430
  H        1.0430010    -1.0258810     1.2255100
  H        1.8814000    -1.2911440    -1.1469770
  H        2.5641180     0.3366430    -1.0800470
  H        3.2219480    -0.9400230    -0.0411410
  H        0.9206510     2.2208510    -0.6190080
  H        0.0719893     2.2871929     0.7627858
  H       -0.8611500     2.1650270    -0.5546380
  H       -0.1986710    -2.0759730    -0.3046340
  H       -1.8731440    -2.0716480    -0.1344710
units angstrom
no_reorient  #important for SAPT in psi4, default
symmetry c1  #important for SAPT in psi4, default
}

set PROPERTIES_ORIGIN ["COM"]
properties('MP2/aug-cc-pvtz', properties = ['dipole'])
--------------------------------------------------------------------------

    Molecular point group: c1
  Charge       = 0
  Multiplicity = 1
  Basis Set: AUG-CC-PVTZ
    Blend: AUG-CC-PVTZ
  Basis Set: (AUG-CC-PVTZ AUX)
    Blend: AUG-CC-PVTZ-JKFIT

    Orbital Energies [Eh]
    ---------------------

    Doubly Occupied:

       1A    -20.504388     2A    -15.579429     3A    -15.576519
       4A    -11.371149     5A    -11.274015     6A    -11.232437
       7A    -11.227863     8A     -1.378337     9A     -1.249016
      10A     -1.189677    11A     -1.035641    12A     -0.965485
      13A     -0.875567    14A     -0.769388    15A     -0.727983
      16A     -0.683844    17A     -0.653864    18A     -0.632137
      19A     -0.606487    20A     -0.594298    21A     -0.569450
      22A     -0.558680    23A     -0.538155    24A     -0.524538
      25A     -0.505917    26A     -0.440080    27A     -0.417184
      28A     -0.374476

  @DF-RHF Final Energy:  -341.17176880737117

   => Energetics <=

    Nuclear Repulsion Energy =            327.3627133898792181
    One-Electron Energy =               -1112.9569544680343824
    Two-Electron Energy =                 444.4224722707839987
    Total Energy =                       -341.1717688073711656
  Basis Set: (AUG-CC-PVTZ AUX)
    Blend: AUG-CC-PVTZ-RI
    Molecular point group: c1

    Geometry (in Angstrom), charge = 0, multiplicity = 1:

       Center              X                  Y                   Z               Mass
    ------------   -----------------  -----------------  -----------------  -----------------
         O           -2.108010329166     0.305741799450    -0.212781060776    15.994914619570
         N            0.168109670834     0.442621799450     0.092975939224    14.003074004430
         N           -0.915250329166    -1.631012200550     0.132113939224    14.003074004430
         C            1.390961670834    -0.153230200550     0.615882939224    12.000000000000
         C            2.385334670834    -0.532713200550    -0.478738060776    12.000000000000
         C            0.138622670834     1.889167799450    -0.041442060776    12.000000000000
         C           -1.019773329166    -0.241866200550    -0.022858060776    12.000000000000
         H            1.848003670834     0.576018799450     1.295446939224     1.007825032230
         H            1.125949670834    -1.022350200550     1.223213939224     1.007825032230
         H            1.964348670834    -1.287613200550    -1.149273060776     1.007825032230
         H            2.647066670834     0.340173799450    -1.082343060776     1.007825032230
         H            3.304896670834    -0.936492200550    -0.043437060776     1.007825032230
         H            1.003599670834     2.224381799450    -0.621304060776     1.007825032230
         H            0.154937970834     2.290723699450     0.760489739224     1.007825032230
         H           -0.778201329166     2.168557799450    -0.556934060776     1.007825032230
         H           -0.115722329166    -2.072442200550    -0.306930060776     1.007825032230
         H           -1.790195329166    -2.068117200550    -0.136767060776     1.007825032230

  Basis Set: AUG-CC-PVTZ
    Blend: AUG-CC-PVTZ
  Basis Set: (AUG-CC-PVTZ AUX)
    Blend: AUG-CC-PVTZ-JKFIT
	 Reference Energy          =    -341.1717688073711656 [Eh]
	 Singles Energy            =      -0.0000000000000000 [Eh]
	 Same-Spin Energy          =      -0.3489578525718177 [Eh]
	 Opposite-Spin Energy      =      -1.1389822381235182 [Eh]
	 Correlation Energy        =      -1.4879400906953357 [Eh]
	 Total Energy              =    -342.6597088980665262 [Eh]

	 ================> DF-SCS-MP2 Energies <==================
	-----------------------------------------------------------
	 SCS Same-Spin Scale       =       0.3333333333333333 [-]
	 SCS Opposite-Spin Scale   =       1.2000000000000000 [-]
	 SCS Same-Spin Energy      =      -0.1163192841906059 [Eh]
	 SCS Opposite-Spin Energy  =      -1.3667786857482218 [Eh]
	 SCS Correlation Energy    =      -1.4830979699388276 [Eh]
	 SCS Total Energy          =    -342.6548667773100192 [Eh]
	-----------------------------------------------------------

  Dipole Moment: [D]
     X:     3.8379      Y:    -1.0579      Z:    -0.1048     Total:     3.9824

*** Psi4 exiting successfully. Buy a developer a beer!
