                               Psi4 1.4a3.dev225

  ==> Input File <==

--------------------------------------------------------------------------
#psi4
#
memory 32 gb

molecule  {
0 1
  O       -2.1909590     0.3022110    -0.2104850
  N        0.0851610     0.4390910     0.0952720
  N       -0.9981990    -1.6345430     0.1344100
  C        1.3080130    -0.1567610     0.6181790
  C        2.3154120    -0.5412151    -0.4907812
  C        0.0556740     1.8856370    -0.0391460
  C       -1.1027220    -0.2453970    -0.0205620
  H        1.7650550     0.5724880     1.2977430
  H        1.0430010    -1.0258810     1.2255100
  H        1.8814000    -1.2911440    -1.1469770
  H        2.5641180     0.3366430    -1.0800470
  H        3.2219480    -0.9400230    -0.0411410
  H        0.9206510     2.2208510    -0.6190080
  H        0.0756270     2.3767260     0.9415890
  H       -0.8611500     2.1650270    -0.5546380
  H       -0.1986710    -2.0759730    -0.3046340
  H       -1.8731440    -2.0716480    -0.1344710
units angstrom
no_reorient  #important for SAPT in psi4, default
symmetry c1  #important for SAPT in psi4, default
}

set PROPERTIES_ORIGIN ["COM"]
properties('MP2/aug-cc-pvtz', properties = ['dipole'])
--------------------------------------------------------------------------

    Molecular point group: c1
  Charge       = 0
  Multiplicity = 1
  Basis Set: AUG-CC-PVTZ
    Blend: AUG-CC-PVTZ
  Basis Set: (AUG-CC-PVTZ AUX)
    Blend: AUG-CC-PVTZ-JKFIT

    Orbital Energies [Eh]
    ---------------------

    Doubly Occupied:

       1A    -20.505617     2A    -15.582017     3A    -15.577550
       4A    -11.372394     5A    -11.275043     6A    -11.252832
       7A    -11.232090     8A     -1.379443     9A     -1.249050
      10A     -1.189988    11A     -1.030811    12A     -0.944342
      13A     -0.877720    14A     -0.762142    15A     -0.727498
      16A     -0.684112    17A     -0.638753    18A     -0.632430
      19A     -0.604257    20A     -0.589622    21A     -0.560617
      22A     -0.557630    23A     -0.533052    24A     -0.527709
      25A     -0.507917    26A     -0.440977    27A     -0.417883
      28A     -0.372475

  @DF-RHF Final Energy:  -341.20462226539212

   => Energetics <=

    Nuclear Repulsion Energy =            326.0247363913676395
    One-Electron Energy =               -1110.4067779954691559
    Two-Electron Energy =                 443.1774193387093419
    Total Energy =                       -341.2046222653921177
  Basis Set: (AUG-CC-PVTZ AUX)
    Blend: AUG-CC-PVTZ-RI
    Molecular point group: c1

    Geometry (in Angstrom), charge = 0, multiplicity = 1:

       Center              X                  Y                   Z               Mass
    ------------   -----------------  -----------------  -----------------  -----------------
         O           -2.109577523934     0.305442223576    -0.212860723742    15.994914619570
         N            0.166542476066     0.442322223576     0.092896276258    14.003074004430
         N           -0.916817523934    -1.631311776424     0.132034276258    14.003074004430
         C            1.389394476066    -0.153529776424     0.615803276258    12.000000000000
         C            2.396793476066    -0.537983876424    -0.493156923742    12.000000000000
         C            0.137055476066     1.888868223576    -0.041521723742    12.000000000000
         C           -1.021340523934    -0.242165776424    -0.022937723742    12.000000000000
         H            1.846436476066     0.575719223576     1.295367276258     1.007825032230
         H            1.124382476066    -1.022649776424     1.223134276258     1.007825032230
         H            1.962781476066    -1.287912776424    -1.149352723742     1.007825032230
         H            2.645499476066     0.339874223576    -1.082422723742     1.007825032230
         H            3.303329476066    -0.936791776424    -0.043516723742     1.007825032230
         H            1.002032476066     2.224082223576    -0.621383723742     1.007825032230
         H            0.157008476066     2.379957223576     0.939213276258     1.007825032230
         H           -0.779768523934     2.168258223576    -0.557013723742     1.007825032230
         H           -0.117289523934    -2.072741776424    -0.307009723742     1.007825032230
         H           -1.791762523934    -2.068416776424    -0.136846723742     1.007825032230

  Basis Set: AUG-CC-PVTZ
    Blend: AUG-CC-PVTZ
  Basis Set: (AUG-CC-PVTZ AUX)
    Blend: AUG-CC-PVTZ-JKFIT
	 Reference Energy          =    -341.2046222653921177 [Eh]
	 Singles Energy            =      -0.0000000000000000 [Eh]
	 Same-Spin Energy          =      -0.3488032667375454 [Eh]
	 Opposite-Spin Energy      =      -1.1395709101939904 [Eh]
	 Correlation Energy        =      -1.4883741769315357 [Eh]
	 Total Energy              =    -342.6929964423236470 [Eh]

	 ================> DF-SCS-MP2 Energies <==================
	-----------------------------------------------------------
	 SCS Same-Spin Scale       =       0.3333333333333333 [-]
	 SCS Opposite-Spin Scale   =       1.2000000000000000 [-]
	 SCS Same-Spin Energy      =      -0.1162677555791818 [Eh]
	 SCS Opposite-Spin Energy  =      -1.3674850922327884 [Eh]
	 SCS Correlation Energy    =      -1.4837528478119701 [Eh]
	 SCS Total Energy          =    -342.6883751132040743 [Eh]
	-----------------------------------------------------------

  Dipole Moment: [D]
     X:     3.8059      Y:    -1.1616      Z:    -0.1746     Total:     3.9830

*** Psi4 exiting successfully. Buy a developer a beer!
