                               Psi4 1.4a3.dev225

  ==> Input File <==

--------------------------------------------------------------------------
#psi4
#
memory 32 gb

molecule  {
0 1
  O       -2.1909590     0.3022110    -0.2104850
  N        0.0851610     0.4390910     0.0952720
  N       -0.9981990    -1.6345430     0.1344100
  C        1.3080130    -0.1567610     0.6181790
  C        2.3023860    -0.5362440    -0.4764420
  C        0.0556740     1.8856370    -0.0391460
  C       -1.1027220    -0.2453970    -0.0205620
  H        1.7650550     0.5724880     1.2977430
  H        1.0430010    -1.0258810     1.2255100
  H        1.8814000    -1.2911440    -1.1469770
  H        2.5521455     0.2967143    -1.0524361
  H        3.2219480    -0.9400230    -0.0411410
  H        0.9206510     2.2208510    -0.6190080
  H        0.0756270     2.3767260     0.9415890
  H       -0.8611500     2.1650270    -0.5546380
  H       -0.1986710    -2.0759730    -0.3046340
  H       -1.8731440    -2.0716480    -0.1344710
units angstrom
no_reorient  #important for SAPT in psi4, default
symmetry c1  #important for SAPT in psi4, default
}

set PROPERTIES_ORIGIN ["COM"]
properties('MP2/aug-cc-pvtz', properties = ['dipole'])
--------------------------------------------------------------------------

    Molecular point group: c1
  Charge       = 0
  Multiplicity = 1
  Basis Set: AUG-CC-PVTZ
    Blend: AUG-CC-PVTZ
  Basis Set: (AUG-CC-PVTZ AUX)
    Blend: AUG-CC-PVTZ-JKFIT

    Orbital Energies [Eh]
    ---------------------

    Doubly Occupied:

       1A    -20.505532     2A    -15.581821     3A    -15.577371
       4A    -11.372312     5A    -11.273746     6A    -11.252908
       7A    -11.226827     8A     -1.379374     9A     -1.249346
      10A     -1.189934    11A     -1.035947    12A     -0.944711
      13A     -0.879282    14A     -0.762424    15A     -0.728173
      16A     -0.684403    17A     -0.639801    18A     -0.633918
      19A     -0.604466    20A     -0.592006    21A     -0.560328
      22A     -0.557703    23A     -0.538332    24A     -0.525248
      25A     -0.508218    26A     -0.440882    27A     -0.417740
      28A     -0.373138

  @DF-RHF Final Energy:  -341.20379093970865

   => Energetics <=

    Nuclear Repulsion Energy =            326.5277425041541051
    One-Electron Energy =               -1111.3912884185876919
    Two-Electron Energy =                 443.6597549747249900
    Total Energy =                       -341.2037909397086537
  Basis Set: (AUG-CC-PVTZ AUX)
    Blend: AUG-CC-PVTZ-RI
    Molecular point group: c1

    Geometry (in Angstrom), charge = 0, multiplicity = 1:

       Center              X                  Y                   Z               Mass
    ------------   -----------------  -----------------  -----------------  -----------------
         O           -2.107928040015     0.305252057164    -0.214818979047    15.994914619570
         N            0.168191959985     0.442132057164     0.090938020953    14.003074004430
         N           -0.915168040015    -1.631501942836     0.130076020953    14.003074004430
         C            1.391043959985    -0.153719942836     0.613845020953    12.000000000000
         C            2.385416959985    -0.533202942836    -0.480775979047    12.000000000000
         C            0.138704959985     1.888678057164    -0.043479979047    12.000000000000
         C           -1.019691040015    -0.242355942836    -0.024895979047    12.000000000000
         H            1.848085959985     0.575529057164     1.293409020953     1.007825032230
         H            1.126031959985    -1.022839942836     1.221176020953     1.007825032230
         H            1.964430959985    -1.288102942836    -1.151310979047     1.007825032230
         H            2.635176459985     0.299755357164    -1.056770079047     1.007825032230
         H            3.304978959985    -0.936981942836    -0.045474979047     1.007825032230
         H            1.003681959985     2.223892057164    -0.623341979047     1.007825032230
         H            0.158657959985     2.379767057164     0.937255020953     1.007825032230
         H           -0.778119040015     2.168068057164    -0.558971979047     1.007825032230
         H           -0.115640040015    -2.072931942836    -0.308967979047     1.007825032230
         H           -1.790113040015    -2.068606942836    -0.138804979047     1.007825032230

  Basis Set: AUG-CC-PVTZ
    Blend: AUG-CC-PVTZ
  Basis Set: (AUG-CC-PVTZ AUX)
    Blend: AUG-CC-PVTZ-JKFIT
	 Reference Energy          =    -341.2037909397086537 [Eh]
	 Singles Energy            =      -0.0000000000000000 [Eh]
	 Same-Spin Energy          =      -0.3489114226559465 [Eh]
	 Opposite-Spin Energy      =      -1.1393541384197614 [Eh]
	 Correlation Energy        =      -1.4882655610757078 [Eh]
	 Total Energy              =    -342.6920565007843607 [Eh]

	 ================> DF-SCS-MP2 Energies <==================
	-----------------------------------------------------------
	 SCS Same-Spin Scale       =       0.3333333333333333 [-]
	 SCS Opposite-Spin Scale   =       1.2000000000000000 [-]
	 SCS Same-Spin Energy      =      -0.1163038075519822 [Eh]
	 SCS Opposite-Spin Energy  =      -1.3672249661037137 [Eh]
	 SCS Correlation Energy    =      -1.4835287736556959 [Eh]
	 SCS Total Energy          =    -342.6873197133643316 [Eh]
	-----------------------------------------------------------

  Dipole Moment: [D]
     X:     3.8263      Y:    -1.1490      Z:    -0.1945     Total:     3.9998

*** Psi4 exiting successfully. Buy a developer a beer!
