                               Psi4 1.4a3.dev225

  ==> Input File <==

--------------------------------------------------------------------------
#psi4
#
memory 32 gb

molecule  {
0 1
  O       -2.1909590     0.3022110    -0.2104850
  N        0.0851610     0.4390910     0.0952720
  N       -0.9981990    -1.6345430     0.1344100
  C        1.3080130    -0.1567610     0.6181790
  C        2.3023860    -0.5362440    -0.4764420
  C        0.0556740     1.8856370    -0.0391460
  C       -1.1027220    -0.2453970    -0.0205620
  H        1.7650550     0.5724880     1.2977430
  H        1.0430010    -1.0258810     1.2255100
  H        1.8814000    -1.2911440    -1.1469770
  H        2.4900174     0.3440630    -1.0966261
  H        3.2219480    -0.9400230    -0.0411410
  H        0.9206510     2.2208510    -0.6190080
  H        0.0756270     2.3767260     0.9415890
  H       -0.8611500     2.1650270    -0.5546380
  H       -0.1986710    -2.0759730    -0.3046340
  H       -1.8731440    -2.0716480    -0.1344710
units angstrom
no_reorient  #important for SAPT in psi4, default
symmetry c1  #important for SAPT in psi4, default
}

set PROPERTIES_ORIGIN ["COM"]
properties('MP2/aug-cc-pvtz', properties = ['dipole'])
--------------------------------------------------------------------------

    Molecular point group: c1
  Charge       = 0
  Multiplicity = 1
  Basis Set: AUG-CC-PVTZ
    Blend: AUG-CC-PVTZ
  Basis Set: (AUG-CC-PVTZ AUX)
    Blend: AUG-CC-PVTZ-JKFIT

    Orbital Energies [Eh]
    ---------------------

    Doubly Occupied:

       1A    -20.505688     2A    -15.582066     3A    -15.577453
       4A    -11.372472     5A    -11.273785     6A    -11.253053
       7A    -11.233107     8A     -1.379526     9A     -1.249543
      10A     -1.190046    11A     -1.034092    12A     -0.944451
      13A     -0.875626    14A     -0.762407    15A     -0.727891
      16A     -0.684894    17A     -0.639733    18A     -0.631621
      19A     -0.603483    20A     -0.591350    21A     -0.561419
      22A     -0.557889    23A     -0.536222    24A     -0.525139
      25A     -0.504521    26A     -0.441032    27A     -0.417814
      28A     -0.373304

  @DF-RHF Final Energy:  -341.20419552227708

   => Energetics <=

    Nuclear Repulsion Energy =            326.4323541635206425
    One-Electron Energy =               -1111.2138407227312200
    Two-Electron Energy =                 443.5772910369335591
    Total Energy =                       -341.2041955222770753
  Basis Set: (AUG-CC-PVTZ AUX)
    Blend: AUG-CC-PVTZ-RI
    Molecular point group: c1

    Geometry (in Angstrom), charge = 0, multiplicity = 1:

       Center              X                  Y                   Z               Mass
    ------------   -----------------  -----------------  -----------------  -----------------
         O           -2.107314651733     0.304784585316    -0.214382692920    15.994914619570
         N            0.168805348267     0.441664585316     0.091374307080    14.003074004430
         N           -0.914554651733    -1.631969414684     0.130512307080    14.003074004430
         C            1.391657348267    -0.154187414684     0.614281307080    12.000000000000
         C            2.386030348267    -0.533670414684    -0.480339692920    12.000000000000
         C            0.139318348267     1.888210585316    -0.043043692920    12.000000000000
         C           -1.019077651733    -0.242823414684    -0.024459692920    12.000000000000
         H            1.848699348267     0.575061585316     1.293845307080     1.007825032230
         H            1.126645348267    -1.023307414684     1.221612307080     1.007825032230
         H            1.965044348267    -1.288570414684    -1.150874692920     1.007825032230
         H            2.573661748267     0.346636585316    -1.100523792920     1.007825032230
         H            3.305592348267    -0.937449414684    -0.045038692920     1.007825032230
         H            1.004295348267     2.223424585316    -0.622905692920     1.007825032230
         H            0.159271348267     2.379299585316     0.937691307080     1.007825032230
         H           -0.777505651733     2.167600585316    -0.558535692920     1.007825032230
         H           -0.115026651733    -2.073399414684    -0.308531692920     1.007825032230
         H           -1.789499651733    -2.069074414684    -0.138368692920     1.007825032230

  Basis Set: AUG-CC-PVTZ
    Blend: AUG-CC-PVTZ
  Basis Set: (AUG-CC-PVTZ AUX)
    Blend: AUG-CC-PVTZ-JKFIT
	 Reference Energy          =    -341.2041955222770753 [Eh]
	 Singles Energy            =      -0.0000000000000000 [Eh]
	 Same-Spin Energy          =      -0.3489654614399790 [Eh]
	 Opposite-Spin Energy      =      -1.1397356425743401 [Eh]
	 Correlation Energy        =      -1.4887011040143192 [Eh]
	 Total Energy              =    -342.6928966262913718 [Eh]

	 ================> DF-SCS-MP2 Energies <==================
	-----------------------------------------------------------
	 SCS Same-Spin Scale       =       0.3333333333333333 [-]
	 SCS Opposite-Spin Scale   =       1.2000000000000000 [-]
	 SCS Same-Spin Energy      =      -0.1163218204799930 [Eh]
	 SCS Opposite-Spin Energy  =      -1.3676827710892081 [Eh]
	 SCS Correlation Energy    =      -1.4840045915692011 [Eh]
	 SCS Total Energy          =    -342.6882001138462783 [Eh]
	-----------------------------------------------------------

  Dipole Moment: [D]
     X:     3.7912      Y:    -1.1695      Z:    -0.1810     Total:     3.9716

*** Psi4 exiting successfully. Buy a developer a beer!
