                               Psi4 1.4a3.dev225

  ==> Input File <==

--------------------------------------------------------------------------
#psi4
#
memory 32 gb

molecule  {
0 1
  O       -2.1909590     0.3022110    -0.2104850
  N        0.0851610     0.4390910     0.0952720
  N       -0.9981990    -1.6345430     0.1344100
  C        1.3080130    -0.1567610     0.6181790
  C        2.3675158    -0.5610995    -0.5481379
  C        0.0556740     1.8856370    -0.0391460
  C       -1.1027220    -0.2453970    -0.0205620
  H        1.7650550     0.5724880     1.2977430
  H        1.0430010    -1.0258810     1.2255100
  H        1.8814000    -1.2911440    -1.1469770
  H        2.5641180     0.3366430    -1.0800470
  H        3.2219480    -0.9400230    -0.0411410
  H        0.9206510     2.2208510    -0.6190080
  H        0.0756270     2.3767260     0.9415890
  H       -0.8611500     2.1650270    -0.5546380
  H       -0.1986710    -2.0759730    -0.3046340
  H       -1.8731440    -2.0716480    -0.1344710
units angstrom
no_reorient  #important for SAPT in psi4, default
symmetry c1  #important for SAPT in psi4, default
}

set PROPERTIES_ORIGIN ["COM"]
properties('MP2/aug-cc-pvtz', properties = ['dipole'])
--------------------------------------------------------------------------

    Molecular point group: c1
  Charge       = 0
  Multiplicity = 1
  Basis Set: AUG-CC-PVTZ
    Blend: AUG-CC-PVTZ
  Basis Set: (AUG-CC-PVTZ AUX)
    Blend: AUG-CC-PVTZ-JKFIT

    Orbital Energies [Eh]
    ---------------------

    Doubly Occupied:

       1A    -20.505716     2A    -15.582600     3A    -15.577712
       4A    -11.372426     5A    -11.277756     6A    -11.252973
       7A    -11.229584     8A     -1.379480     9A     -1.247978
      10A     -1.189851    11A     -1.020778    12A     -0.944761
      13A     -0.882945    14A     -0.761632    15A     -0.726669
      16A     -0.682840    17A     -0.635932    18A     -0.631387
      19A     -0.605875    20A     -0.594190    21A     -0.565761
      22A     -0.558226    23A     -0.535224    24A     -0.517696
      25A     -0.510982    26A     -0.440994    27A     -0.418054
      28A     -0.368603

  @DF-RHF Final Energy:  -341.19739972605890

   => Energetics <=

    Nuclear Repulsion Energy =            324.8843223728537737
    One-Electron Energy =               -1108.1261940543811306
    Two-Electron Energy =                 442.0444719554683957
    Total Energy =                       -341.1973997260589044
  Basis Set: (AUG-CC-PVTZ AUX)
    Blend: AUG-CC-PVTZ-RI
    Molecular point group: c1

    Geometry (in Angstrom), charge = 0, multiplicity = 1:

       Center              X                  Y                   Z               Mass
    ------------   -----------------  -----------------  -----------------  -----------------
         O           -2.115702620018     0.307779747145    -0.206118119583    15.994914619570
         N            0.160417379982     0.444659747145     0.099638880417    14.003074004430
         N           -0.922942620018    -1.628974252855     0.138776880417    14.003074004430
         C            1.383269379982    -0.151192252855     0.622545880417    12.000000000000
         C            2.442772179982    -0.555530752855    -0.543771019583    12.000000000000
         C            0.130930379982     1.891205747145    -0.034779119583    12.000000000000
         C           -1.027465620018    -0.239828252855    -0.016195119583    12.000000000000
         H            1.840311379982     0.578056747145     1.302109880417     1.007825032230
         H            1.118257379982    -1.020312252855     1.229876880417     1.007825032230
         H            1.956656379982    -1.285575252855    -1.142610119583     1.007825032230
         H            2.639374379982     0.342211747145    -1.075680119583     1.007825032230
         H            3.297204379982    -0.934454252855    -0.036774119583     1.007825032230
         H            0.995907379982     2.226419747145    -0.614641119583     1.007825032230
         H            0.150883379982     2.382294747145     0.945955880417     1.007825032230
         H           -0.785893620018     2.170595747145    -0.550271119583     1.007825032230
         H           -0.123414620018    -2.070404252855    -0.300267119583     1.007825032230
         H           -1.797887620018    -2.066079252855    -0.130104119583     1.007825032230

  Basis Set: AUG-CC-PVTZ
    Blend: AUG-CC-PVTZ
  Basis Set: (AUG-CC-PVTZ AUX)
    Blend: AUG-CC-PVTZ-JKFIT
	 Reference Energy          =    -341.1973997260589044 [Eh]
	 Singles Energy            =      -0.0000000000000000 [Eh]
	 Same-Spin Energy          =      -0.3486860266609536 [Eh]
	 Opposite-Spin Energy      =      -1.1398582329761631 [Eh]
	 Correlation Energy        =      -1.4885442596371168 [Eh]
	 Total Energy              =    -342.6859439856960421 [Eh]

	 ================> DF-SCS-MP2 Energies <==================
	-----------------------------------------------------------
	 SCS Same-Spin Scale       =       0.3333333333333333 [-]
	 SCS Opposite-Spin Scale   =       1.2000000000000000 [-]
	 SCS Same-Spin Energy      =      -0.1162286755536512 [Eh]
	 SCS Opposite-Spin Energy  =      -1.3678298795713957 [Eh]
	 SCS Correlation Energy    =      -1.4840585551250469 [Eh]
	 SCS Total Energy          =    -342.6814582811839500 [Eh]
	-----------------------------------------------------------

  Dipole Moment: [D]
     X:     3.7591      Y:    -1.1462      Z:    -0.1511     Total:     3.9329

*** Psi4 exiting successfully. Buy a developer a beer!
