                               Psi4 1.4a3.dev225

  ==> Input File <==

--------------------------------------------------------------------------
#psi4
#
memory 32 gb

molecule  {
0 1
  O       -2.1909590     0.3022110    -0.2104850
  N        0.0851610     0.4390910     0.0952720
  N       -0.9981990    -1.6345430     0.1344100
  C        1.3080130    -0.1567610     0.6181790
  C        2.3023860    -0.5362440    -0.4764420
  C        0.0556740     1.8856370    -0.0391460
  C       -1.1027220    -0.2453970    -0.0205620
  H        1.7650550     0.5724880     1.2977430
  H        1.0478507    -1.0099763     1.2143960
  H        1.8814000    -1.2911440    -1.1469770
  H        2.5641180     0.3366430    -1.0800470
  H        3.2219480    -0.9400230    -0.0411410
  H        0.9206510     2.2208510    -0.6190080
  H        0.0756270     2.3767260     0.9415890
  H       -0.8611500     2.1650270    -0.5546380
  H       -0.1986710    -2.0759730    -0.3046340
  H       -1.8731440    -2.0716480    -0.1344710
units angstrom
no_reorient  #important for SAPT in psi4, default
symmetry c1  #important for SAPT in psi4, default
}

set PROPERTIES_ORIGIN ["COM"]
properties('MP2/aug-cc-pvtz', properties = ['dipole'])
--------------------------------------------------------------------------

    Molecular point group: c1
  Charge       = 0
  Multiplicity = 1
  Basis Set: AUG-CC-PVTZ
    Blend: AUG-CC-PVTZ
  Basis Set: (AUG-CC-PVTZ AUX)
    Blend: AUG-CC-PVTZ-JKFIT

    Orbital Energies [Eh]
    ---------------------

    Doubly Occupied:

       1A    -20.505578     2A    -15.581721     3A    -15.577583
       4A    -11.372377     5A    -11.272022     6A    -11.252675
       7A    -11.232877     8A     -1.379429     9A     -1.249469
      10A     -1.190074    11A     -1.034525    12A     -0.944242
      13A     -0.877175    14A     -0.762929    15A     -0.728708
      16A     -0.684712    17A     -0.639667    18A     -0.633660
      19A     -0.604063    20A     -0.588984    21A     -0.560434
      22A     -0.557193    23A     -0.537302    24A     -0.525425
      25A     -0.507116    26A     -0.440945    27A     -0.417972
      28A     -0.373233

  @DF-RHF Final Energy:  -341.20493411849435

   => Energetics <=

    Nuclear Repulsion Energy =            326.4091382711137044
    One-Electron Energy =               -1111.1639679035927202
    Two-Electron Energy =                 443.5498955139846089
    Total Energy =                       -341.2049341184943501
  Basis Set: (AUG-CC-PVTZ AUX)
    Blend: AUG-CC-PVTZ-RI
    Molecular point group: c1

    Geometry (in Angstrom), charge = 0, multiplicity = 1:

       Center              X                  Y                   Z               Mass
    ------------   -----------------  -----------------  -----------------  -----------------
         O           -2.108094124932     0.304700816207    -0.214436649637    15.994914619570
         N            0.168025875068     0.441580816207     0.091320350363    14.003074004430
         N           -0.915334124932    -1.632053183793     0.130458350363    14.003074004430
         C            1.390877875068    -0.154271183793     0.614227350363    12.000000000000
         C            2.385250875068    -0.533754183793    -0.480393649637    12.000000000000
         C            0.138538875068     1.888126816207    -0.043097649637    12.000000000000
         C           -1.019857124932    -0.242907183793    -0.024513649637    12.000000000000
         H            1.847919875068     0.574977816207     1.293791350363     1.007825032230
         H            1.130715575068    -1.007486483793     1.210444350363     1.007825032230
         H            1.964264875068    -1.288654183793    -1.150928649637     1.007825032230
         H            2.646982875068     0.339132816207    -1.083998649637     1.007825032230
         H            3.304812875068    -0.937533183793    -0.045092649637     1.007825032230
         H            1.003515875068     2.223340816207    -0.622959649637     1.007825032230
         H            0.158491875068     2.379215816207     0.937637350363     1.007825032230
         H           -0.778285124932     2.167516816207    -0.558589649637     1.007825032230
         H           -0.115806124932    -2.073483183793    -0.308585649637     1.007825032230
         H           -1.790279124932    -2.069158183793    -0.138422649637     1.007825032230

  Basis Set: AUG-CC-PVTZ
    Blend: AUG-CC-PVTZ
  Basis Set: (AUG-CC-PVTZ AUX)
    Blend: AUG-CC-PVTZ-JKFIT
	 Reference Energy          =    -341.2049341184943501 [Eh]
	 Singles Energy            =      -0.0000000000000000 [Eh]
	 Same-Spin Energy          =      -0.3488559948831829 [Eh]
	 Opposite-Spin Energy      =      -1.1394544327450258 [Eh]
	 Correlation Energy        =      -1.4883104276282086 [Eh]
	 Total Energy              =    -342.6932445461225711 [Eh]

	 ================> DF-SCS-MP2 Energies <==================
	-----------------------------------------------------------
	 SCS Same-Spin Scale       =       0.3333333333333333 [-]
	 SCS Opposite-Spin Scale   =       1.2000000000000000 [-]
	 SCS Same-Spin Energy      =      -0.1162853316277276 [Eh]
	 SCS Opposite-Spin Energy  =      -1.3673453192940308 [Eh]
	 SCS Correlation Energy    =      -1.4836306509217585 [Eh]
	 SCS Total Energy          =    -342.6885647694161321 [Eh]
	-----------------------------------------------------------

  Dipole Moment: [D]
     X:     3.8177      Y:    -1.1689      Z:    -0.1726     Total:     3.9964

*** Psi4 exiting successfully. Buy a developer a beer!
