                               Psi4 1.4a3.dev225

  ==> Input File <==

--------------------------------------------------------------------------
#psi4
#
memory 32 gb

molecule  {
0 1
  O       -2.1909590     0.3022110    -0.2104850
  N        0.0851610     0.4390910     0.0952720
  N       -0.9981990    -1.6345430     0.1344100
  C        1.3080130    -0.1567610     0.6181790
  C        2.3023860    -0.5362440    -0.4764420
  C        0.0556740     1.8856370    -0.0391460
  C       -1.0952649    -0.3445038    -0.0095057
  H        1.7650550     0.5724880     1.2977430
  H        1.0430010    -1.0258810     1.2255100
  H        1.8814000    -1.2911440    -1.1469770
  H        2.5641180     0.3366430    -1.0800470
  H        3.2219480    -0.9400230    -0.0411410
  H        0.9206510     2.2208510    -0.6190080
  H        0.0756270     2.3767260     0.9415890
  H       -0.8611500     2.1650270    -0.5546380
  H       -0.1986710    -2.0759730    -0.3046340
  H       -1.8731440    -2.0716480    -0.1344710
units angstrom
no_reorient  #important for SAPT in psi4, default
symmetry c1  #important for SAPT in psi4, default
}

set PROPERTIES_ORIGIN ["COM"]
properties('MP2/aug-cc-pvtz', properties = ['dipole'])
--------------------------------------------------------------------------

    Molecular point group: c1
  Charge       = 0
  Multiplicity = 1
  Basis Set: AUG-CC-PVTZ
    Blend: AUG-CC-PVTZ
  Basis Set: (AUG-CC-PVTZ AUX)
    Blend: AUG-CC-PVTZ-JKFIT

    Orbital Energies [Eh]
    ---------------------

    Doubly Occupied:

       1A    -20.494952     2A    -15.596067     3A    -15.576483
       4A    -11.375211     5A    -11.269784     6A    -11.248871
       7A    -11.231441     8A     -1.361379     9A     -1.238045
      10A     -1.217343    11A     -1.027554    12A     -0.938578
      13A     -0.868546    14A     -0.788846    15A     -0.742490
      16A     -0.685807    17A     -0.636050    18A     -0.633958
      19A     -0.591345    20A     -0.586620    21A     -0.561381
      22A     -0.558593    23A     -0.534728    24A     -0.514229
      25A     -0.502031    26A     -0.428044    27A     -0.417626
      28A     -0.363249

  @DF-RHF Final Energy:  -341.18681032885110

   => Energetics <=

    Nuclear Repulsion Energy =            325.9860309556007678
    One-Electron Energy =               -1110.3671782501548932
    Two-Electron Energy =                 443.1943369657030303
    Total Energy =                       -341.1868103288510952
  Basis Set: (AUG-CC-PVTZ AUX)
    Blend: AUG-CC-PVTZ-RI
    Molecular point group: c1

    Geometry (in Angstrom), charge = 0, multiplicity = 1:

       Center              X                  Y                   Z               Mass
    ------------   -----------------  -----------------  -----------------  -----------------
         O           -2.108922868274     0.316508406991    -0.215846108255    15.994914619570
         N            0.167197131726     0.453388406991     0.089910891745    14.003074004430
         N           -0.916162868274    -1.620245593009     0.129048891745    14.003074004430
         C            1.390049131726    -0.142463593009     0.612817891745    12.000000000000
         C            2.384422131726    -0.521946593009    -0.481803108255    12.000000000000
         C            0.137710131726     1.899934406991    -0.044507108255    12.000000000000
         C           -1.013228768274    -0.330206393009    -0.014866808255    12.000000000000
         H            1.847091131726     0.586785406991     1.292381891745     1.007825032230
         H            1.125037131726    -1.011583593009     1.220148891745     1.007825032230
         H            1.963436131726    -1.276846593009    -1.152338108255     1.007825032230
         H            2.646154131726     0.350940406991    -1.085408108255     1.007825032230
         H            3.303984131726    -0.925725593009    -0.046502108255     1.007825032230
         H            1.002687131726     2.235148406991    -0.624369108255     1.007825032230
         H            0.157663131726     2.391023406991     0.936227891745     1.007825032230
         H           -0.779113868274     2.179324406991    -0.559999108255     1.007825032230
         H           -0.116634868274    -2.061675593009    -0.309995108255     1.007825032230
         H           -1.791107868274    -2.057350593009    -0.139832108255     1.007825032230

  Basis Set: AUG-CC-PVTZ
    Blend: AUG-CC-PVTZ
  Basis Set: (AUG-CC-PVTZ AUX)
    Blend: AUG-CC-PVTZ-JKFIT
	 Reference Energy          =    -341.1868103288510952 [Eh]
	 Singles Energy            =      -0.0000000000000000 [Eh]
	 Same-Spin Energy          =      -0.3502243771907876 [Eh]
	 Opposite-Spin Energy      =      -1.1415128739928200 [Eh]
	 Correlation Energy        =      -1.4917372511836076 [Eh]
	 Total Energy              =    -342.6785475800347172 [Eh]

	 ================> DF-SCS-MP2 Energies <==================
	-----------------------------------------------------------
	 SCS Same-Spin Scale       =       0.3333333333333333 [-]
	 SCS Opposite-Spin Scale   =       1.2000000000000000 [-]
	 SCS Same-Spin Energy      =      -0.1167414590635959 [Eh]
	 SCS Opposite-Spin Energy  =      -1.3698154487913838 [Eh]
	 SCS Correlation Energy    =      -1.4865569078549796 [Eh]
	 SCS Total Energy          =    -342.6733672367060990 [Eh]
	-----------------------------------------------------------

  Dipole Moment: [D]
     X:     3.7947      Y:    -1.9521      Z:    -0.1295     Total:     4.2694

*** Psi4 exiting successfully. Buy a developer a beer!
