                               Psi4 1.4a3.dev225

  ==> Input File <==

--------------------------------------------------------------------------
#psi4
#
memory 32 gb

molecule  {
0 1
  O       -2.1909590     0.3022110    -0.2104850
  N        0.0851610     0.4390910     0.0952720
  N       -0.9981990    -1.6345430     0.1344100
  C        1.3919229    -0.1976473     0.6540599
  C        2.3023860    -0.5362440    -0.4764420
  C        0.0556740     1.8856370    -0.0391460
  C       -1.1027220    -0.2453970    -0.0205620
  H        1.7650550     0.5724880     1.2977430
  H        1.0430010    -1.0258810     1.2255100
  H        1.8814000    -1.2911440    -1.1469770
  H        2.5641180     0.3366430    -1.0800470
  H        3.2219480    -0.9400230    -0.0411410
  H        0.9206510     2.2208510    -0.6190080
  H        0.0756270     2.3767260     0.9415890
  H       -0.8611500     2.1650270    -0.5546380
  H       -0.1986710    -2.0759730    -0.3046340
  H       -1.8731440    -2.0716480    -0.1344710
units angstrom
no_reorient  #important for SAPT in psi4, default
symmetry c1  #important for SAPT in psi4, default
}

set PROPERTIES_ORIGIN ["COM"]
properties('MP2/aug-cc-pvtz', properties = ['dipole'])
--------------------------------------------------------------------------

    Molecular point group: c1
  Charge       = 0
  Multiplicity = 1
  Basis Set: AUG-CC-PVTZ
    Blend: AUG-CC-PVTZ
  Basis Set: (AUG-CC-PVTZ AUX)
    Blend: AUG-CC-PVTZ-JKFIT

    Orbital Energies [Eh]
    ---------------------

    Doubly Occupied:

       1A    -20.501438     2A    -15.576717     3A    -15.575072
       4A    -11.367716     5A    -11.278079     6A    -11.249411
       7A    -11.236099     8A     -1.374058     9A     -1.232681
      10A     -1.184036    11A     -1.045632    12A     -0.937622
      13A     -0.874407    14A     -0.758440    15A     -0.722056
      16A     -0.676951    17A     -0.640117    18A     -0.633002
      19A     -0.603308    20A     -0.588289    21A     -0.561137
      22A     -0.554444    23A     -0.551853    24A     -0.522080
      25A     -0.500711    26A     -0.436594    27A     -0.415509
      28A     -0.371025

  @DF-RHF Final Energy:  -341.19655984028435

   => Energetics <=

    Nuclear Repulsion Energy =            324.8942429040951083
    One-Electron Energy =               -1108.2446420047588163
    Two-Electron Energy =                 442.1538392603793568
    Total Energy =                       -341.1965598402843511
  Basis Set: (AUG-CC-PVTZ AUX)
    Blend: AUG-CC-PVTZ-RI
    Molecular point group: c1

    Geometry (in Angstrom), charge = 0, multiplicity = 1:

       Center              X                  Y                   Z               Mass
    ------------   -----------------  -----------------  -----------------  -----------------
         O           -2.117910326883     0.309664258262    -0.218764380248    15.994914619570
         N            0.158209673117     0.446544258262     0.086992619752    14.003074004430
         N           -0.925150326883    -1.627089741738     0.126130619752    14.003074004430
         C            1.464971573117    -0.190194041738     0.645780519752    12.000000000000
         C            2.375434673117    -0.528790741738    -0.484721380248    12.000000000000
         C            0.128722673117     1.893090258262    -0.047425380248    12.000000000000
         C           -1.029673326883    -0.237943741738    -0.028841380248    12.000000000000
         H            1.838103673117     0.579941258262     1.289463619752     1.007825032230
         H            1.116049673117    -1.018427741738     1.217230619752     1.007825032230
         H            1.954448673117    -1.283690741738    -1.155256380248     1.007825032230
         H            2.637166673117     0.344096258262    -1.088326380248     1.007825032230
         H            3.294996673117    -0.932569741738    -0.049420380248     1.007825032230
         H            0.993699673117     2.228304258262    -0.627287380248     1.007825032230
         H            0.148675673117     2.384179258262     0.933309619752     1.007825032230
         H           -0.788101326883     2.172480258262    -0.562917380248     1.007825032230
         H           -0.125622326883    -2.068519741738    -0.312913380248     1.007825032230
         H           -1.800095326883    -2.064194741738    -0.142750380248     1.007825032230

  Basis Set: AUG-CC-PVTZ
    Blend: AUG-CC-PVTZ
  Basis Set: (AUG-CC-PVTZ AUX)
    Blend: AUG-CC-PVTZ-JKFIT
	 Reference Energy          =    -341.1965598402843511 [Eh]
	 Singles Energy            =      -0.0000000000000000 [Eh]
	 Same-Spin Energy          =      -0.3488324092541180 [Eh]
	 Opposite-Spin Energy      =      -1.1401601921752866 [Eh]
	 Correlation Energy        =      -1.4889926014294046 [Eh]
	 Total Energy              =    -342.6855524417137531 [Eh]

	 ================> DF-SCS-MP2 Energies <==================
	-----------------------------------------------------------
	 SCS Same-Spin Scale       =       0.3333333333333333 [-]
	 SCS Opposite-Spin Scale   =       1.2000000000000000 [-]
	 SCS Same-Spin Energy      =      -0.1162774697513727 [Eh]
	 SCS Opposite-Spin Energy  =      -1.3681922306103440 [Eh]
	 SCS Correlation Energy    =      -1.4844697003617167 [Eh]
	 SCS Total Energy          =    -342.6810295406460796 [Eh]
	-----------------------------------------------------------

  Dipole Moment: [D]
     X:     4.1208      Y:    -1.2452      Z:    -0.1341     Total:     4.3069

*** Psi4 exiting successfully. Buy a developer a beer!
