                               Psi4 1.4a3.dev225

  ==> Input File <==

--------------------------------------------------------------------------
#psi4
#
memory 32 gb

molecule  {
0 1
  O       -2.1909590     0.3022110    -0.2104850
  N        0.0851610     0.4390910     0.0952720
  N       -0.9981990    -1.6345430     0.1344100
  C        1.3080130    -0.1567610     0.6181790
  C        2.3023860    -0.5362440    -0.4764420
  C        0.0556740     1.8856370    -0.0391460
  C       -1.1027220    -0.2453970    -0.0205620
  H        1.7650550     0.5724880     1.2977430
  H        1.0430010    -1.0258810     1.2255100
  H        1.8814000    -1.2911440    -1.1469770
  H        2.5456984     0.3388985    -1.0844709
  H        3.2219480    -0.9400230    -0.0411410
  H        0.9206510     2.2208510    -0.6190080
  H        0.0756270     2.3767260     0.9415890
  H       -0.8611500     2.1650270    -0.5546380
  H       -0.1986710    -2.0759730    -0.3046340
  H       -1.8731440    -2.0716480    -0.1344710
units angstrom
no_reorient  #important for SAPT in psi4, default
symmetry c1  #important for SAPT in psi4, default
}

set PROPERTIES_ORIGIN ["COM"]
properties('MP2/aug-cc-pvtz', properties = ['dipole'])
--------------------------------------------------------------------------

    Molecular point group: c1
  Charge       = 0
  Multiplicity = 1
  Basis Set: AUG-CC-PVTZ
    Blend: AUG-CC-PVTZ
  Basis Set: (AUG-CC-PVTZ AUX)
    Blend: AUG-CC-PVTZ-JKFIT

    Orbital Energies [Eh]
    ---------------------

    Doubly Occupied:

       1A    -20.505627     2A    -15.581946     3A    -15.577502
       4A    -11.372419     5A    -11.274161     6A    -11.252871
       7A    -11.233042     8A     -1.379470     9A     -1.249438
      10A     -1.190047    11A     -1.033835    12A     -0.944311
      13A     -0.876088    14A     -0.762334    15A     -0.727789
      16A     -0.684592    17A     -0.639728    18A     -0.632544
      19A     -0.603884    20A     -0.589418    21A     -0.560612
      22A     -0.557456    23A     -0.536726    24A     -0.525413
      25A     -0.505425    26A     -0.440984    27A     -0.417836
      28A     -0.373278

  @DF-RHF Final Energy:  -341.20476796244014

   => Energetics <=

    Nuclear Repulsion Energy =            326.3457780268230408
    One-Electron Energy =               -1111.0435412154906771
    Two-Electron Energy =                 443.4929952262274924
    Total Energy =                       -341.2047679624401439
  Basis Set: (AUG-CC-PVTZ AUX)
    Blend: AUG-CC-PVTZ-RI
    Molecular point group: c1

    Geometry (in Angstrom), charge = 0, multiplicity = 1:

       Center              X                  Y                   Z               Mass
    ------------   -----------------  -----------------  -----------------  -----------------
         O           -2.107864388050     0.304835574221    -0.214502700730    15.994914619570
         N            0.168255611950     0.441715574221     0.091254299270    14.003074004430
         N           -0.915104388050    -1.631918425779     0.130392299270    14.003074004430
         C            1.391107611950    -0.154136425779     0.614161299270    12.000000000000
         C            2.385480611950    -0.533619425779    -0.480459700730    12.000000000000
         C            0.138768611950     1.888261574221    -0.043163700730    12.000000000000
         C           -1.019627388050    -0.242772425779    -0.024579700730    12.000000000000
         H            1.848149611950     0.575112574221     1.293725299270     1.007825032230
         H            1.126095611950    -1.023256425779     1.221492299270     1.007825032230
         H            1.964494611950    -1.288519425779    -1.150994700730     1.007825032230
         H            2.628793011950     0.341523074221    -1.088488600730     1.007825032230
         H            3.305042611950    -0.937398425779    -0.045158700730     1.007825032230
         H            1.003745611950     2.223475574221    -0.623025700730     1.007825032230
         H            0.158721611950     2.379350574221     0.937571299270     1.007825032230
         H           -0.778055388050     2.167651574221    -0.558655700730     1.007825032230
         H           -0.115576388050    -2.073348425779    -0.308651700730     1.007825032230
         H           -1.790049388050    -2.069023425779    -0.138488700730     1.007825032230

  Basis Set: AUG-CC-PVTZ
    Blend: AUG-CC-PVTZ
  Basis Set: (AUG-CC-PVTZ AUX)
    Blend: AUG-CC-PVTZ-JKFIT
	 Reference Energy          =    -341.2047679624401439 [Eh]
	 Singles Energy            =      -0.0000000000000000 [Eh]
	 Same-Spin Energy          =      -0.3489123343685108 [Eh]
	 Opposite-Spin Energy      =      -1.1396442723869935 [Eh]
	 Correlation Energy        =      -1.4885566067555043 [Eh]
	 Total Energy              =    -342.6933245691956245 [Eh]

	 ================> DF-SCS-MP2 Energies <==================
	-----------------------------------------------------------
	 SCS Same-Spin Scale       =       0.3333333333333333 [-]
	 SCS Opposite-Spin Scale   =       1.2000000000000000 [-]
	 SCS Same-Spin Energy      =      -0.1163041114561703 [Eh]
	 SCS Opposite-Spin Energy  =      -1.3675731268643923 [Eh]
	 SCS Correlation Energy    =      -1.4838772383205625 [Eh]
	 SCS Total Energy          =    -342.6886452007607318 [Eh]
	-----------------------------------------------------------

  Dipole Moment: [D]
     X:     3.8089      Y:    -1.1655      Z:    -0.1795     Total:     3.9872

*** Psi4 exiting successfully. Buy a developer a beer!
