                               Psi4 1.4a3.dev225

  ==> Input File <==

--------------------------------------------------------------------------
#psi4
#
memory 32 gb

molecule  {
0 1
  O       -2.1909590     0.3022110    -0.2104850
  N        0.0851610     0.4390910     0.0952720
  N       -0.9981990    -1.6345430     0.1344100
  C        1.3080130    -0.1567610     0.6181790
  C        2.3023860    -0.5362440    -0.4764420
  C        0.0556740     1.8856370    -0.0391460
  C       -1.1027220    -0.2453970    -0.0205620
  H        1.7650550     0.5724880     1.2977430
  H        1.0430010    -1.0258810     1.2255100
  H        1.8814000    -1.2911440    -1.1469770
  H        2.5593290     0.3206715    -1.0690027
  H        3.2219480    -0.9400230    -0.0411410
  H        0.9206510     2.2208510    -0.6190080
  H        0.0756270     2.3767260     0.9415890
  H       -0.8611500     2.1650270    -0.5546380
  H       -0.1986710    -2.0759730    -0.3046340
  H       -1.8731440    -2.0716480    -0.1344710
units angstrom
no_reorient  #important for SAPT in psi4, default
symmetry c1  #important for SAPT in psi4, default
}

set PROPERTIES_ORIGIN ["COM"]
properties('MP2/aug-cc-pvtz', properties = ['dipole'])
--------------------------------------------------------------------------

    Molecular point group: c1
  Charge       = 0
  Multiplicity = 1
  Basis Set: AUG-CC-PVTZ
    Blend: AUG-CC-PVTZ
  Basis Set: (AUG-CC-PVTZ AUX)
    Blend: AUG-CC-PVTZ-JKFIT

    Orbital Energies [Eh]
    ---------------------

    Doubly Occupied:

       1A    -20.505576     2A    -15.581871     3A    -15.577457
       4A    -11.372365     5A    -11.274064     6A    -11.252851
       7A    -11.230559     8A     -1.379420     9A     -1.249379
      10A     -1.190000    11A     -1.034568    12A     -0.944435
      13A     -0.877411    14A     -0.762351    15A     -0.727914
      16A     -0.684458    17A     -0.639758    18A     -0.633239
      19A     -0.604157    20A     -0.590084    21A     -0.560385
      22A     -0.557414    23A     -0.537474    24A     -0.525406
      25A     -0.506712    26A     -0.440932    27A     -0.417800
      28A     -0.373216

  @DF-RHF Final Energy:  -341.20483032921652

   => Energetics <=

    Nuclear Repulsion Energy =            326.4002180464611911
    One-Electron Energy =               -1111.1475846442911006
    Two-Electron Energy =                 443.5425362686133894
    Total Energy =                       -341.2048303292165201
  Basis Set: (AUG-CC-PVTZ AUX)
    Blend: AUG-CC-PVTZ-RI
    Molecular point group: c1

    Geometry (in Angstrom), charge = 0, multiplicity = 1:

       Center              X                  Y                   Z               Mass
    ------------   -----------------  -----------------  -----------------  -----------------
         O           -2.107998962427     0.305015528673    -0.214655417659    15.994914619570
         N            0.168121037573     0.441895528673     0.091101582341    14.003074004430
         N           -0.915238962427    -1.631738471327     0.130239582341    14.003074004430
         C            1.390973037573    -0.153956471327     0.614008582341    12.000000000000
         C            2.385346037573    -0.533439471327    -0.480612417659    12.000000000000
         C            0.138634037573     1.888441528673    -0.043316417659    12.000000000000
         C           -1.019761962427    -0.242592471327    -0.024732417659    12.000000000000
         H            1.848015037573     0.575292528673     1.293572582341     1.007825032230
         H            1.125961037573    -1.023076471327     1.221339582341     1.007825032230
         H            1.964360037573    -1.288339471327    -1.151147417659     1.007825032230
         H            2.642289037573     0.323476028673    -1.073173117659     1.007825032230
         H            3.304908037573    -0.937218471327    -0.045311417659     1.007825032230
         H            1.003611037573     2.223655528673    -0.623178417659     1.007825032230
         H            0.158587037573     2.379530528673     0.937418582341     1.007825032230
         H           -0.778189962427     2.167831528673    -0.558808417659     1.007825032230
         H           -0.115710962427    -2.073168471327    -0.308804417659     1.007825032230
         H           -1.790183962427    -2.068843471327    -0.138641417659     1.007825032230

  Basis Set: AUG-CC-PVTZ
    Blend: AUG-CC-PVTZ
  Basis Set: (AUG-CC-PVTZ AUX)
    Blend: AUG-CC-PVTZ-JKFIT
	 Reference Energy          =    -341.2048303292165201 [Eh]
	 Singles Energy            =      -0.0000000000000000 [Eh]
	 Same-Spin Energy          =      -0.3489044162183340 [Eh]
	 Opposite-Spin Energy      =      -1.1395074659855289 [Eh]
	 Correlation Energy        =      -1.4884118822038630 [Eh]
	 Total Energy              =    -342.6932422114203973 [Eh]

	 ================> DF-SCS-MP2 Energies <==================
	-----------------------------------------------------------
	 SCS Same-Spin Scale       =       0.3333333333333333 [-]
	 SCS Opposite-Spin Scale   =       1.2000000000000000 [-]
	 SCS Same-Spin Energy      =      -0.1163014720727780 [Eh]
	 SCS Opposite-Spin Energy  =      -1.3674089591826346 [Eh]
	 SCS Correlation Energy    =      -1.4837104312554126 [Eh]
	 SCS Total Energy          =    -342.6885407604719376 [Eh]
	-----------------------------------------------------------

  Dipole Moment: [D]
     X:     3.8196      Y:    -1.1580      Z:    -0.1853     Total:     3.9956

*** Psi4 exiting successfully. Buy a developer a beer!
