                               Psi4 1.4a3.dev225

  ==> Input File <==

--------------------------------------------------------------------------
#psi4
#
memory 32 gb

molecule  {
0 1
  O       -2.1909590     0.3022110    -0.2104850
  N        0.0851610     0.4390910     0.0952720
  N       -0.9981990    -1.6345430     0.1344100
  C        1.3080130    -0.1567610     0.6181790
  C        2.3023860    -0.5362440    -0.4764420
  C        0.0055424     1.8830520    -0.0463985
  C       -1.1027220    -0.2453970    -0.0205620
  H        1.7650550     0.5724880     1.2977430
  H        1.0430010    -1.0258810     1.2255100
  H        1.8814000    -1.2911440    -1.1469770
  H        2.5641180     0.3366430    -1.0800470
  H        3.2219480    -0.9400230    -0.0411410
  H        0.9206510     2.2208510    -0.6190080
  H        0.0756270     2.3767260     0.9415890
  H       -0.8611500     2.1650270    -0.5546380
  H       -0.1986710    -2.0759730    -0.3046340
  H       -1.8731440    -2.0716480    -0.1344710
units angstrom
no_reorient  #important for SAPT in psi4, default
symmetry c1  #important for SAPT in psi4, default
}

set PROPERTIES_ORIGIN ["COM"]
properties('MP2/aug-cc-pvtz', properties = ['dipole'])
--------------------------------------------------------------------------

    Molecular point group: c1
  Charge       = 0
  Multiplicity = 1
  Basis Set: AUG-CC-PVTZ
    Blend: AUG-CC-PVTZ
  Basis Set: (AUG-CC-PVTZ AUX)
    Blend: AUG-CC-PVTZ-JKFIT

    Orbital Energies [Eh]
    ---------------------

    Doubly Occupied:

       1A    -20.505640     2A    -15.582194     3A    -15.577170
       4A    -11.371671     5A    -11.275638     6A    -11.253721
       7A    -11.233273     8A     -1.379901     9A     -1.249383
      10A     -1.189961    11A     -1.035080    12A     -0.943348
      13A     -0.876632    14A     -0.762361    15A     -0.729202
      16A     -0.683970    17A     -0.639151    18A     -0.634413
      19A     -0.605843    20A     -0.588397    21A     -0.559317
      22A     -0.549594    23A     -0.540805    24A     -0.529118
      25A     -0.507548    26A     -0.441253    27A     -0.417720
      28A     -0.371913

  @DF-RHF Final Energy:  -341.20195390023838

   => Energetics <=

    Nuclear Repulsion Energy =            326.4084067790466293
    One-Electron Energy =               -1111.1522880532597810
    Two-Electron Energy =                 443.5419273739748292
    Total Energy =                       -341.2019539002383794
  Basis Set: (AUG-CC-PVTZ AUX)
    Blend: AUG-CC-PVTZ-RI
    Molecular point group: c1

    Geometry (in Angstrom), charge = 0, multiplicity = 1:

       Center              X                  Y                   Z               Mass
    ------------   -----------------  -----------------  -----------------  -----------------
         O           -2.102152991204     0.305161724039    -0.213693805368    15.994914619570
         N            0.173967008796     0.442041724039     0.092063194632    14.003074004430
         N           -0.909392991204    -1.631592275961     0.131201194632    14.003074004430
         C            1.396819008796    -0.153810275961     0.614970194632    12.000000000000
         C            2.391192008796    -0.533293275961    -0.479650805368    12.000000000000
         C            0.094348408796     1.886002724039    -0.049607305368    12.000000000000
         C           -1.013915991204    -0.242446275961    -0.023770805368    12.000000000000
         H            1.853861008796     0.575438724039     1.294534194632     1.007825032230
         H            1.131807008796    -1.022930275961     1.222301194632     1.007825032230
         H            1.970206008796    -1.288193275961    -1.150185805368     1.007825032230
         H            2.652924008796     0.339593724039    -1.083255805368     1.007825032230
         H            3.310754008796    -0.937072275961    -0.044349805368     1.007825032230
         H            1.009457008796     2.223801724039    -0.622216805368     1.007825032230
         H            0.164433008796     2.379676724039     0.938380194632     1.007825032230
         H           -0.772343991204     2.167977724039    -0.557846805368     1.007825032230
         H           -0.109864991204    -2.073022275961    -0.307842805368     1.007825032230
         H           -1.784337991204    -2.068697275961    -0.137679805368     1.007825032230

  Basis Set: AUG-CC-PVTZ
    Blend: AUG-CC-PVTZ
  Basis Set: (AUG-CC-PVTZ AUX)
    Blend: AUG-CC-PVTZ-JKFIT
	 Reference Energy          =    -341.2019539002383794 [Eh]
	 Singles Energy            =      -0.0000000000000000 [Eh]
	 Same-Spin Energy          =      -0.3488344741496541 [Eh]
	 Opposite-Spin Energy      =      -1.1395809819389391 [Eh]
	 Correlation Energy        =      -1.4884154560885932 [Eh]
	 Total Energy              =    -342.6903693563269826 [Eh]

	 ================> DF-SCS-MP2 Energies <==================
	-----------------------------------------------------------
	 SCS Same-Spin Scale       =       0.3333333333333333 [-]
	 SCS Opposite-Spin Scale   =       1.2000000000000000 [-]
	 SCS Same-Spin Energy      =      -0.1162781580498847 [Eh]
	 SCS Opposite-Spin Energy  =      -1.3674971783267269 [Eh]
	 SCS Correlation Energy    =      -1.4837753363766115 [Eh]
	 SCS Total Energy          =    -342.6857292366149750 [Eh]
	-----------------------------------------------------------

  Dipole Moment: [D]
     X:     3.8119      Y:    -1.1816      Z:    -0.1698     Total:     3.9944

*** Psi4 exiting successfully. Buy a developer a beer!
