                               Psi4 1.4a3.dev225

  ==> Input File <==

--------------------------------------------------------------------------
#psi4
#
memory 32 gb

molecule  {
0 1
  O       -2.1909590     0.3022110    -0.2104850
  N        0.0851610     0.4390910     0.0952720
  N       -0.9981990    -1.6345430     0.1344100
  C        1.3080130    -0.1567610     0.6181790
  C        2.3023860    -0.5362440    -0.4764420
  C        0.0556740     1.8856370    -0.0391460
  C       -1.1027220    -0.2453970    -0.0205620
  H        1.7650550     0.5724880     1.2977430
  H        1.0672493    -0.9463575     1.1699399
  H        1.8814000    -1.2911440    -1.1469770
  H        2.5641180     0.3366430    -1.0800470
  H        3.2219480    -0.9400230    -0.0411410
  H        0.9206510     2.2208510    -0.6190080
  H        0.0756270     2.3767260     0.9415890
  H       -0.8611500     2.1650270    -0.5546380
  H       -0.1986710    -2.0759730    -0.3046340
  H       -1.8731440    -2.0716480    -0.1344710
units angstrom
no_reorient  #important for SAPT in psi4, default
symmetry c1  #important for SAPT in psi4, default
}

set PROPERTIES_ORIGIN ["COM"]
properties('MP2/aug-cc-pvtz', properties = ['dipole'])
--------------------------------------------------------------------------

    Molecular point group: c1
  Charge       = 0
  Multiplicity = 1
  Basis Set: AUG-CC-PVTZ
    Blend: AUG-CC-PVTZ
  Basis Set: (AUG-CC-PVTZ AUX)
    Blend: AUG-CC-PVTZ-JKFIT

    Orbital Energies [Eh]
    ---------------------

    Doubly Occupied:

       1A    -20.505481     2A    -15.581073     3A    -15.577826
       4A    -11.372303     5A    -11.262728     6A    -11.252198
       7A    -11.232393     8A     -1.379366     9A     -1.249894
      10A     -1.190201    11A     -1.038376    12A     -0.944244
      13A     -0.881688    14A     -0.766057    15A     -0.732552
      16A     -0.685662    17A     -0.639359    18A     -0.637065
      19A     -0.604247    20A     -0.589681    21A     -0.560540
      22A     -0.557080    23A     -0.539277    24A     -0.525135
      25A     -0.512281    26A     -0.440863    27A     -0.418412
      28A     -0.373103

  @DF-RHF Final Energy:  -341.19917360887916

   => Energetics <=

    Nuclear Repulsion Energy =            326.7968314836691661
    One-Electron Energy =               -1111.8938454460999310
    Two-Electron Energy =                 443.8978403535516009
    Total Energy =                       -341.1991736088791640
  Basis Set: (AUG-CC-PVTZ AUX)
    Blend: AUG-CC-PVTZ-RI
    Molecular point group: c1

    Geometry (in Angstrom), charge = 0, multiplicity = 1:

       Center              X                  Y                   Z               Mass
    ------------   -----------------  -----------------  -----------------  -----------------
         O           -2.108285646545     0.304072710303    -0.213997736314    15.994914619570
         N            0.167834353455     0.440952710303     0.091759263686    14.003074004430
         N           -0.915525646545    -1.632681289697     0.130897263686    14.003074004430
         C            1.390686353455    -0.154899289697     0.614666263686    12.000000000000
         C            2.385059353455    -0.534382289697    -0.479954736314    12.000000000000
         C            0.138347353455     1.887498710303    -0.042658736314    12.000000000000
         C           -1.020048646545    -0.243535289697    -0.024074736314    12.000000000000
         H            1.847728353455     0.574349710303     1.294230263686     1.007825032230
         H            1.149922653455    -0.944495789697     1.166427163686     1.007825032230
         H            1.964073353455    -1.289282289697    -1.150489736314     1.007825032230
         H            2.646791353455     0.338504710303    -1.083559736314     1.007825032230
         H            3.304621353455    -0.938161289697    -0.044653736314     1.007825032230
         H            1.003324353455     2.222712710303    -0.622520736314     1.007825032230
         H            0.158300353455     2.378587710303     0.938076263686     1.007825032230
         H           -0.778476646545     2.166888710303    -0.558150736314     1.007825032230
         H           -0.115997646545    -2.074111289697    -0.308146736314     1.007825032230
         H           -1.790470646545    -2.069786289697    -0.137983736314     1.007825032230

  Basis Set: AUG-CC-PVTZ
    Blend: AUG-CC-PVTZ
  Basis Set: (AUG-CC-PVTZ AUX)
    Blend: AUG-CC-PVTZ-JKFIT
	 Reference Energy          =    -341.1991736088791640 [Eh]
	 Singles Energy            =      -0.0000000000000000 [Eh]
	 Same-Spin Energy          =      -0.3487013340815615 [Eh]
	 Opposite-Spin Energy      =      -1.1389129295255569 [Eh]
	 Correlation Energy        =      -1.4876142636071183 [Eh]
	 Total Energy              =    -342.6867878724862635 [Eh]

	 ================> DF-SCS-MP2 Energies <==================
	-----------------------------------------------------------
	 SCS Same-Spin Scale       =       0.3333333333333333 [-]
	 SCS Opposite-Spin Scale   =       1.2000000000000000 [-]
	 SCS Same-Spin Energy      =      -0.1162337780271872 [Eh]
	 SCS Opposite-Spin Energy  =      -1.3666955154306681 [Eh]
	 SCS Correlation Energy    =      -1.4829292934578553 [Eh]
	 SCS Total Energy          =    -342.6821029023370215 [Eh]
	-----------------------------------------------------------

  Dipole Moment: [D]
     X:     3.8282      Y:    -1.1830      Z:    -0.1528     Total:     4.0098

*** Psi4 exiting successfully. Buy a developer a beer!
