                               Psi4 1.4a3.dev225

  ==> Input File <==

--------------------------------------------------------------------------
#psi4
#
memory 32 gb

molecule  {
0 1
  O       -2.1909590     0.3022110    -0.2104850
  N        0.0851610     0.4390910     0.0952720
  N       -0.9981990    -1.6345430     0.1344100
  C        1.3080130    -0.1567610     0.6181790
  C        2.3023860    -0.5362440    -0.4764420
  C        0.0556740     1.8856370    -0.0391460
  C       -1.1027220    -0.2453970    -0.0205620
  H        1.7650550     0.5724880     1.2977430
  H        1.0430010    -1.0258810     1.2255100
  H        1.8814000    -1.2911440    -1.1469770
  H        2.5641180     0.3366430    -1.0800470
  H        3.2051460    -0.9326453    -0.0490947
  H        0.9206510     2.2208510    -0.6190080
  H        0.0756270     2.3767260     0.9415890
  H       -0.8611500     2.1650270    -0.5546380
  H       -0.1986710    -2.0759730    -0.3046340
  H       -1.8731440    -2.0716480    -0.1344710
units angstrom
no_reorient  #important for SAPT in psi4, default
symmetry c1  #important for SAPT in psi4, default
}

set PROPERTIES_ORIGIN ["COM"]
properties('MP2/aug-cc-pvtz', properties = ['dipole'])
--------------------------------------------------------------------------

    Molecular point group: c1
  Charge       = 0
  Multiplicity = 1
  Basis Set: AUG-CC-PVTZ
    Blend: AUG-CC-PVTZ
  Basis Set: (AUG-CC-PVTZ AUX)
    Blend: AUG-CC-PVTZ-JKFIT

    Orbital Energies [Eh]
    ---------------------

    Doubly Occupied:

       1A    -20.505486     2A    -15.581725     3A    -15.577425
       4A    -11.372278     5A    -11.274118     6A    -11.252702
       7A    -11.230561     8A     -1.379332     9A     -1.249263
      10A     -1.189944    11A     -1.034628    12A     -0.944305
      13A     -0.877417    14A     -0.762207    15A     -0.727647
      16A     -0.684629    17A     -0.640012    18A     -0.632809
      19A     -0.603980    20A     -0.589572    21A     -0.561744
      22A     -0.557400    23A     -0.536720    24A     -0.526471
      25A     -0.505517    26A     -0.440878    27A     -0.417744
      28A     -0.373124

  @DF-RHF Final Energy:  -341.20484107920782

   => Energetics <=

    Nuclear Repulsion Energy =            326.4087359047953782
    One-Electron Energy =               -1111.1678793738294644
    Two-Electron Energy =                 443.5543023898263186
    Total Energy =                       -341.2048410792078244
  Basis Set: (AUG-CC-PVTZ AUX)
    Blend: AUG-CC-PVTZ-RI
    Molecular point group: c1

    Geometry (in Angstrom), charge = 0, multiplicity = 1:

       Center              X                  Y                   Z               Mass
    ------------   -----------------  -----------------  -----------------  -----------------
         O           -2.107880358551     0.304785002942    -0.214467851154    15.994914619570
         N            0.168239641449     0.441665002942     0.091289148846    14.003074004430
         N           -0.915120358551    -1.631968997058     0.130427148846    14.003074004430
         C            1.391091641449    -0.154186997058     0.614196148846    12.000000000000
         C            2.385464641449    -0.533669997058    -0.480424851154    12.000000000000
         C            0.138752641449     1.888211002942    -0.043128851154    12.000000000000
         C           -1.019643358551    -0.242822997058    -0.024544851154    12.000000000000
         H            1.848133641449     0.575062002942     1.293760148846     1.007825032230
         H            1.126079641449    -1.023306997058     1.221527148846     1.007825032230
         H            1.964478641449    -1.288569997058    -1.150959851154     1.007825032230
         H            2.647196641449     0.339217002942    -1.084029851154     1.007825032230
         H            3.288224641449    -0.930071297058    -0.053077551154     1.007825032230
         H            1.003729641449     2.223425002942    -0.622990851154     1.007825032230
         H            0.158705641449     2.379300002942     0.937606148846     1.007825032230
         H           -0.778071358551     2.167601002942    -0.558620851154     1.007825032230
         H           -0.115592358551    -2.073398997058    -0.308616851154     1.007825032230
         H           -1.790065358551    -2.069073997058    -0.138453851154     1.007825032230

  Basis Set: AUG-CC-PVTZ
    Blend: AUG-CC-PVTZ
  Basis Set: (AUG-CC-PVTZ AUX)
    Blend: AUG-CC-PVTZ-JKFIT
	 Reference Energy          =    -341.2048410792078244 [Eh]
	 Singles Energy            =      -0.0000000000000000 [Eh]
	 Same-Spin Energy          =      -0.3489095882042431 [Eh]
	 Opposite-Spin Energy      =      -1.1395097343496068 [Eh]
	 Correlation Energy        =      -1.4884193225538498 [Eh]
	 Total Energy              =    -342.6932604017616768 [Eh]

	 ================> DF-SCS-MP2 Energies <==================
	-----------------------------------------------------------
	 SCS Same-Spin Scale       =       0.3333333333333333 [-]
	 SCS Opposite-Spin Scale   =       1.2000000000000000 [-]
	 SCS Same-Spin Energy      =      -0.1163031960680810 [Eh]
	 SCS Opposite-Spin Energy  =      -1.3674116812195281 [Eh]
	 SCS Correlation Energy    =      -1.4837148772876090 [Eh]
	 SCS Total Energy          =    -342.6885559564954065 [Eh]
	-----------------------------------------------------------

  Dipole Moment: [D]
     X:     3.8286      Y:    -1.1694      Z:    -0.1763     Total:     4.0071

*** Psi4 exiting successfully. Buy a developer a beer!
