                               Psi4 1.4a3.dev225

  ==> Input File <==

--------------------------------------------------------------------------
#psi4
#
memory 32 gb

molecule  {
0 1
  O       -2.1909590     0.3022110    -0.2104850
  N        0.0851610     0.4390910     0.0952720
  N       -0.9981990    -1.6345430     0.1344100
  C        1.3080130    -0.1567610     0.6181790
  C        2.3023860    -0.5362440    -0.4764420
  C        0.0556740     1.8856370    -0.0391460
  C       -1.1027220    -0.2453970    -0.0205620
  H        1.7650550     0.5724880     1.2977430
  H        1.0430010    -1.0258810     1.2255100
  H        1.8814000    -1.2911440    -1.1469770
  H        2.5641180     0.3366430    -1.0800470
  H        3.2219480    -0.9400230    -0.0411410
  H        0.9206510     2.2208510    -0.6190080
  H        0.0759908     2.3856793     0.9594693
  H       -0.8611500     2.1650270    -0.5546380
  H       -0.1986710    -2.0759730    -0.3046340
  H       -1.8731440    -2.0716480    -0.1344710
units angstrom
no_reorient  #important for SAPT in psi4, default
symmetry c1  #important for SAPT in psi4, default
}

set PROPERTIES_ORIGIN ["COM"]
properties('MP2/aug-cc-pvtz', properties = ['dipole'])
--------------------------------------------------------------------------

    Molecular point group: c1
  Charge       = 0
  Multiplicity = 1
  Basis Set: AUG-CC-PVTZ
    Blend: AUG-CC-PVTZ
  Basis Set: (AUG-CC-PVTZ AUX)
    Blend: AUG-CC-PVTZ-JKFIT

    Orbital Energies [Eh]
    ---------------------

    Doubly Occupied:

       1A    -20.505779     2A    -15.582255     3A    -15.577660
       4A    -11.372583     5A    -11.274341     6A    -11.255256
       7A    -11.233106     8A     -1.379616     9A     -1.249545
      10A     -1.190156    11A     -1.033737    12A     -0.942867
      13A     -0.876358    14A     -0.761888    15A     -0.727810
      16A     -0.684642    17A     -0.638863    18A     -0.632956
      19A     -0.603969    20A     -0.588391    21A     -0.560533
      22A     -0.555650    23A     -0.536524    24A     -0.525664
      25A     -0.505471    26A     -0.441096    27A     -0.417943
      28A     -0.373141

  @DF-RHF Final Energy:  -341.20430033921122

   => Energetics <=

    Nuclear Repulsion Energy =            326.2271617332822871
    One-Electron Energy =               -1110.8073236890309090
    Two-Electron Energy =                 443.3758616165374065
    Total Energy =                       -341.2043003392112155
  Basis Set: (AUG-CC-PVTZ AUX)
    Blend: AUG-CC-PVTZ-RI
    Molecular point group: c1

    Geometry (in Angstrom), charge = 0, multiplicity = 1:

       Center              X                  Y                   Z               Mass
    ------------   -----------------  -----------------  -----------------  -----------------
         O           -2.108049835818     0.304769447105    -0.214722909217    15.994914619570
         N            0.168070164182     0.441649447105     0.091034090783    14.003074004430
         N           -0.915289835818    -1.631984552895     0.130172090783    14.003074004430
         C            1.390922164182    -0.154202552895     0.613941090783    12.000000000000
         C            2.385295164182    -0.533685552895    -0.480679909217    12.000000000000
         C            0.138583164182     1.888195447105    -0.043383909217    12.000000000000
         C           -1.019812835818    -0.242838552895    -0.024799909217    12.000000000000
         H            1.847964164182     0.575046447105     1.293505090783     1.007825032230
         H            1.125910164182    -1.023322552895     1.221272090783     1.007825032230
         H            1.964309164182    -1.288585552895    -1.151214909217     1.007825032230
         H            2.647027164182     0.339201447105    -1.084284909217     1.007825032230
         H            3.304857164182    -0.937464552895    -0.045378909217     1.007825032230
         H            1.003560164182     2.223409447105    -0.623245909217     1.007825032230
         H            0.158899964182     2.388237747105     0.955231390783     1.007825032230
         H           -0.778240835818     2.167585447105    -0.558875909217     1.007825032230
         H           -0.115761835818    -2.073414552895    -0.308871909217     1.007825032230
         H           -1.790234835818    -2.069089552895    -0.138708909217     1.007825032230

  Basis Set: AUG-CC-PVTZ
    Blend: AUG-CC-PVTZ
  Basis Set: (AUG-CC-PVTZ AUX)
    Blend: AUG-CC-PVTZ-JKFIT
	 Reference Energy          =    -341.2043003392112155 [Eh]
	 Singles Energy            =      -0.0000000000000000 [Eh]
	 Same-Spin Energy          =      -0.3489082975975006 [Eh]
	 Opposite-Spin Energy      =      -1.1397510033631502 [Eh]
	 Correlation Energy        =      -1.4886593009606508 [Eh]
	 Total Energy              =    -342.6929596401718641 [Eh]

	 ================> DF-SCS-MP2 Energies <==================
	-----------------------------------------------------------
	 SCS Same-Spin Scale       =       0.3333333333333333 [-]
	 SCS Opposite-Spin Scale   =       1.2000000000000000 [-]
	 SCS Same-Spin Energy      =      -0.1163027658658335 [Eh]
	 SCS Opposite-Spin Energy  =      -1.3677012040357801 [Eh]
	 SCS Correlation Energy    =      -1.4840039699016137 [Eh]
	 SCS Total Energy          =    -342.6883043091128229 [Eh]
	-----------------------------------------------------------

  Dipole Moment: [D]
     X:     3.8119      Y:    -1.1795      Z:    -0.1898     Total:     3.9948

*** Psi4 exiting successfully. Buy a developer a beer!
