                               Psi4 1.4a3.dev225

  ==> Input File <==

--------------------------------------------------------------------------
#psi4
#
memory 32 gb

molecule  {
0 1
  O       -2.1909590     0.3022110    -0.2104850
  N        0.0851610     0.4390910     0.0952720
  N       -0.9981990    -1.6345430     0.1344100
  C        1.2241031    -0.1158747     0.5822981
  C        2.3023860    -0.5362440    -0.4764420
  C        0.0556740     1.8856370    -0.0391460
  C       -1.1027220    -0.2453970    -0.0205620
  H        1.7650550     0.5724880     1.2977430
  H        1.0430010    -1.0258810     1.2255100
  H        1.8814000    -1.2911440    -1.1469770
  H        2.5641180     0.3366430    -1.0800470
  H        3.2219480    -0.9400230    -0.0411410
  H        0.9206510     2.2208510    -0.6190080
  H        0.0756270     2.3767260     0.9415890
  H       -0.8611500     2.1650270    -0.5546380
  H       -0.1986710    -2.0759730    -0.3046340
  H       -1.8731440    -2.0716480    -0.1344710
units angstrom
no_reorient  #important for SAPT in psi4, default
symmetry c1  #important for SAPT in psi4, default
}

set PROPERTIES_ORIGIN ["COM"]
properties('MP2/aug-cc-pvtz', properties = ['dipole'])
--------------------------------------------------------------------------

    Molecular point group: c1
  Charge       = 0
  Multiplicity = 1
  Basis Set: AUG-CC-PVTZ
    Blend: AUG-CC-PVTZ
  Basis Set: (AUG-CC-PVTZ AUX)
    Blend: AUG-CC-PVTZ-JKFIT

    Orbital Energies [Eh]
    ---------------------

    Doubly Occupied:

       1A    -20.510089     2A    -15.585361     3A    -15.580134
       4A    -11.377145     5A    -11.273622     6A    -11.256372
       7A    -11.230076     8A     -1.386065     9A     -1.272219
      10A     -1.195592    11A     -1.022632    12A     -0.951672
      13A     -0.882689    14A     -0.765522    15A     -0.733927
      16A     -0.692027    17A     -0.647932    18A     -0.632516
      19A     -0.604699    20A     -0.586481    21A     -0.561973
      22A     -0.560336    23A     -0.539941    24A     -0.519842
      25A     -0.493642    26A     -0.444879    27A     -0.419132
      28A     -0.371336

  @DF-RHF Final Energy:  -341.19393763448812

   => Energetics <=

    Nuclear Repulsion Energy =            327.8593203671598530
    One-Electron Energy =               -1113.9108111228240432
    Two-Electron Energy =                 444.8575531211760676
    Total Energy =                       -341.1939376344881225
  Basis Set: (AUG-CC-PVTZ AUX)
    Blend: AUG-CC-PVTZ-RI
    Molecular point group: c1

    Geometry (in Angstrom), charge = 0, multiplicity = 1:

       Center              X                  Y                   Z               Mass
    ------------   -----------------  -----------------  -----------------  -----------------
         O           -2.098182161187     0.300051427105    -0.210328375193    15.994914619570
         N            0.177937838813     0.436931427105     0.095428624807    14.003074004430
         N           -0.905422161187    -1.636702572895     0.134566624807    14.003074004430
         C            1.316879938813    -0.118034272895     0.582454724807    12.000000000000
         C            2.395162838813    -0.538403572895    -0.476285375193    12.000000000000
         C            0.148450838813     1.883477427105    -0.038989375193    12.000000000000
         C           -1.009945161187    -0.247556572895    -0.020405375193    12.000000000000
         H            1.857831838813     0.570328427105     1.297899624807     1.007825032230
         H            1.135777838813    -1.028040572895     1.225666624807     1.007825032230
         H            1.974176838813    -1.293303572895    -1.146820375193     1.007825032230
         H            2.656894838813     0.334483427105    -1.079890375193     1.007825032230
         H            3.314724838813    -0.942182572895    -0.040984375193     1.007825032230
         H            1.013427838813     2.218691427105    -0.618851375193     1.007825032230
         H            0.168403838813     2.374566427105     0.941745624807     1.007825032230
         H           -0.768373161187     2.162867427105    -0.554481375193     1.007825032230
         H           -0.105894161187    -2.078132572895    -0.304477375193     1.007825032230
         H           -1.780367161187    -2.073807572895    -0.134314375193     1.007825032230

  Basis Set: AUG-CC-PVTZ
    Blend: AUG-CC-PVTZ
  Basis Set: (AUG-CC-PVTZ AUX)
    Blend: AUG-CC-PVTZ-JKFIT
	 Reference Energy          =    -341.1939376344881225 [Eh]
	 Singles Energy            =      -0.0000000000000000 [Eh]
	 Same-Spin Energy          =      -0.3498293069299466 [Eh]
	 Opposite-Spin Energy      =      -1.1405034603648823 [Eh]
	 Correlation Energy        =      -1.4903327672948290 [Eh]
	 Total Energy              =    -342.6842704017829533 [Eh]

	 ================> DF-SCS-MP2 Energies <==================
	-----------------------------------------------------------
	 SCS Same-Spin Scale       =       0.3333333333333333 [-]
	 SCS Opposite-Spin Scale   =       1.2000000000000000 [-]
	 SCS Same-Spin Energy      =      -0.1166097689766489 [Eh]
	 SCS Opposite-Spin Energy  =      -1.3686041524378587 [Eh]
	 SCS Correlation Energy    =      -1.4852139214145075 [Eh]
	 SCS Total Energy          =    -342.6791515559026493 [Eh]
	-----------------------------------------------------------

  Dipole Moment: [D]
     X:     3.4669      Y:    -1.0758      Z:    -0.2369     Total:     3.6377

*** Psi4 exiting successfully. Buy a developer a beer!
