                               Psi4 1.4a3.dev225

  ==> Input File <==

--------------------------------------------------------------------------
#psi4
#
memory 32 gb

molecule  {
0 1
  O       -2.1909590     0.3022110    -0.2104850
  N        0.0851610     0.4390910     0.0952720
  N       -0.9981990    -1.6345430     0.1344100
  C        1.3118749    -0.3100578     0.6631666
  C        2.3023860    -0.5362440    -0.4764420
  C        0.0556740     1.8856370    -0.0391460
  C       -1.1027220    -0.2453970    -0.0205620
  H        1.7650550     0.5724880     1.2977430
  H        1.0430010    -1.0258810     1.2255100
  H        1.8814000    -1.2911440    -1.1469770
  H        2.5641180     0.3366430    -1.0800470
  H        3.2219480    -0.9400230    -0.0411410
  H        0.9206510     2.2208510    -0.6190080
  H        0.0756270     2.3767260     0.9415890
  H       -0.8611500     2.1650270    -0.5546380
  H       -0.1986710    -2.0759730    -0.3046340
  H       -1.8731440    -2.0716480    -0.1344710
units angstrom
no_reorient  #important for SAPT in psi4, default
symmetry c1  #important for SAPT in psi4, default
}

set PROPERTIES_ORIGIN ["COM"]
properties('MP2/aug-cc-pvtz', properties = ['dipole'])
--------------------------------------------------------------------------

    Molecular point group: c1
  Charge       = 0
  Multiplicity = 1
  Basis Set: AUG-CC-PVTZ
    Blend: AUG-CC-PVTZ
  Basis Set: (AUG-CC-PVTZ AUX)
    Blend: AUG-CC-PVTZ-JKFIT

    Orbital Energies [Eh]
    ---------------------

    Doubly Occupied:

       1A    -20.501270     2A    -15.579365     3A    -15.576170
       4A    -11.366497     5A    -11.279019     6A    -11.252819
       7A    -11.238105     8A     -1.374735     9A     -1.235905
      10A     -1.184840    11A     -1.040426    12A     -0.941503
      13A     -0.877697    14A     -0.763541    15A     -0.731650
      16A     -0.679880    17A     -0.633082    18A     -0.627526
      19A     -0.602300    20A     -0.591514    21A     -0.572649
      22A     -0.555878    23A     -0.549133    24A     -0.510205
      25A     -0.502711    26A     -0.436819    27A     -0.414928
      28A     -0.369935

  @DF-RHF Final Energy:  -341.17202496356180

   => Energetics <=

    Nuclear Repulsion Energy =            325.2738697060889876
    One-Electron Energy =               -1108.9115881575405638
    Two-Electron Energy =                 442.4656934878897232
    Total Energy =                       -341.1720249635617961
  Basis Set: (AUG-CC-PVTZ AUX)
    Blend: AUG-CC-PVTZ-RI
    Molecular point group: c1

    Geometry (in Angstrom), charge = 0, multiplicity = 1:

       Center              X                  Y                   Z               Mass
    ------------   -----------------  -----------------  -----------------  -----------------
         O           -2.108500232200     0.322878747672    -0.219834924287    15.994914619570
         N            0.167619767800     0.459758747672     0.085922075713    14.003074004430
         N           -0.915740232200    -1.613875252328     0.125060075713    14.003074004430
         C            1.394333667800    -0.289390052328     0.653816675713    12.000000000000
         C            2.384844767800    -0.515576252328    -0.485791924287    12.000000000000
         C            0.138132767800     1.906304747672    -0.048495924287    12.000000000000
         C           -1.020263232200    -0.224729252328    -0.029911924287    12.000000000000
         H            1.847513767800     0.593155747672     1.288393075713     1.007825032230
         H            1.125459767800    -1.005213252328     1.216160075713     1.007825032230
         H            1.963858767800    -1.270476252328    -1.156326924287     1.007825032230
         H            2.646576767800     0.357310747672    -1.089396924287     1.007825032230
         H            3.304406767800    -0.919355252328    -0.050490924287     1.007825032230
         H            1.003109767800     2.241518747672    -0.628357924287     1.007825032230
         H            0.158085767800     2.397393747672     0.932239075713     1.007825032230
         H           -0.778691232200     2.185694747672    -0.563987924287     1.007825032230
         H           -0.116212232200    -2.055305252328    -0.313983924287     1.007825032230
         H           -1.790685232200    -2.050980252328    -0.143820924287     1.007825032230

  Basis Set: AUG-CC-PVTZ
    Blend: AUG-CC-PVTZ
  Basis Set: (AUG-CC-PVTZ AUX)
    Blend: AUG-CC-PVTZ-JKFIT
	 Reference Energy          =    -341.1720249635617961 [Eh]
	 Singles Energy            =      -0.0000000000000000 [Eh]
	 Same-Spin Energy          =      -0.3489427290115234 [Eh]
	 Opposite-Spin Energy      =      -1.1410012760607797 [Eh]
	 Correlation Energy        =      -1.4899440050723032 [Eh]
	 Total Energy              =    -342.6619689686340848 [Eh]

	 ================> DF-SCS-MP2 Energies <==================
	-----------------------------------------------------------
	 SCS Same-Spin Scale       =       0.3333333333333333 [-]
	 SCS Opposite-Spin Scale   =       1.2000000000000000 [-]
	 SCS Same-Spin Energy      =      -0.1163142430038411 [Eh]
	 SCS Opposite-Spin Energy  =      -1.3692015312729355 [Eh]
	 SCS Correlation Energy    =      -1.4855157742767766 [Eh]
	 SCS Total Energy          =    -342.6575407378385876 [Eh]
	-----------------------------------------------------------

  Dipole Moment: [D]
     X:     4.0083      Y:    -1.2436      Z:    -0.1724     Total:     4.2003

*** Psi4 exiting successfully. Buy a developer a beer!
