                               Psi4 1.4a3.dev225

  ==> Input File <==

--------------------------------------------------------------------------
#psi4
#
memory 32 gb

molecule  {
0 1
  O       -2.1909590     0.3022110    -0.2104850
  N        0.0851610     0.4390910     0.0952720
  N       -0.9981990    -1.6345430     0.1344100
  C        1.3080130    -0.1567610     0.6181790
  C        2.3023860    -0.5362440    -0.4764420
  C        0.0556740     1.8856370    -0.0391460
  C       -1.1027220    -0.2453970    -0.0205620
  H        1.7650550     0.5724880     1.2977430
  H        1.0914976    -0.8668340     1.1143698
  H        1.8814000    -1.2911440    -1.1469770
  H        2.5641180     0.3366430    -1.0800470
  H        3.2219480    -0.9400230    -0.0411410
  H        0.9206510     2.2208510    -0.6190080
  H        0.0756270     2.3767260     0.9415890
  H       -0.8611500     2.1650270    -0.5546380
  H       -0.1986710    -2.0759730    -0.3046340
  H       -1.8731440    -2.0716480    -0.1344710
units angstrom
no_reorient  #important for SAPT in psi4, default
symmetry c1  #important for SAPT in psi4, default
}

set PROPERTIES_ORIGIN ["COM"]
properties('MP2/aug-cc-pvtz', properties = ['dipole'])
--------------------------------------------------------------------------

    Molecular point group: c1
  Charge       = 0
  Multiplicity = 1
  Basis Set: AUG-CC-PVTZ
    Blend: AUG-CC-PVTZ
  Basis Set: (AUG-CC-PVTZ AUX)
    Blend: AUG-CC-PVTZ-JKFIT

    Orbital Energies [Eh]
    ---------------------

    Doubly Occupied:

       1A    -20.505414     2A    -15.580493     3A    -15.578082
       4A    -11.372280     5A    -11.251755     6A    -11.251116
       7A    -11.232008     8A     -1.379358     9A     -1.250891
      10A     -1.190416    11A     -1.045414    12A     -0.944524
      13A     -0.889333    14A     -0.771596    15A     -0.736928
      16A     -0.687011    17A     -0.641528    18A     -0.638966
      19A     -0.604508    20A     -0.590502    21A     -0.560933
      22A     -0.556981    23A     -0.542261    24A     -0.524939
      25A     -0.516604    26A     -0.440790    27A     -0.418829
      28A     -0.373029

  @DF-RHF Final Energy:  -341.17146277250669

   => Energetics <=

    Nuclear Repulsion Energy =            327.3433848809500546
    One-Electron Energy =               -1112.8767228947249350
    Two-Electron Energy =                 444.3618752412682511
    Total Energy =                       -341.1714627725066862
  Basis Set: (AUG-CC-PVTZ AUX)
    Blend: AUG-CC-PVTZ-RI
    Molecular point group: c1

    Geometry (in Angstrom), charge = 0, multiplicity = 1:

       Center              X                  Y                   Z               Mass
    ------------   -----------------  -----------------  -----------------  -----------------
         O           -2.108525049055     0.303287577923    -0.213449094907    15.994914619570
         N            0.167594950945     0.440167577923     0.092307905093    14.003074004430
         N           -0.915765049055    -1.633466422077     0.131445905093    14.003074004430
         C            1.390446950945    -0.155684422077     0.615214905093    12.000000000000
         C            2.384819950945    -0.535167422077    -0.479406094907    12.000000000000
         C            0.138107950945     1.886713577923    -0.042110094907    12.000000000000
         C           -1.020288049055    -0.244320422077    -0.023526094907    12.000000000000
         H            1.847488950945     0.573564577923     1.294778905093     1.007825032230
         H            1.173931550945    -0.865757422077     1.111405705093     1.007825032230
         H            1.963833950945    -1.290067422077    -1.149941094907     1.007825032230
         H            2.646551950945     0.337719577923    -1.083011094907     1.007825032230
         H            3.304381950945    -0.938946422077    -0.044105094907     1.007825032230
         H            1.003084950945     2.221927577923    -0.621972094907     1.007825032230
         H            0.158060950945     2.377802577923     0.938624905093     1.007825032230
         H           -0.778716049055     2.166103577923    -0.557602094907     1.007825032230
         H           -0.116237049055    -2.074896422077    -0.307598094907     1.007825032230
         H           -1.790710049055    -2.070571422077    -0.137435094907     1.007825032230

  Basis Set: AUG-CC-PVTZ
    Blend: AUG-CC-PVTZ
  Basis Set: (AUG-CC-PVTZ AUX)
    Blend: AUG-CC-PVTZ-JKFIT
	 Reference Energy          =    -341.1714627725066862 [Eh]
	 Singles Energy            =      -0.0000000000000000 [Eh]
	 Same-Spin Energy          =      -0.3485889203577367 [Eh]
	 Opposite-Spin Energy      =      -1.1386071010684495 [Eh]
	 Correlation Energy        =      -1.4871960214261861 [Eh]
	 Total Energy              =    -342.6586587939328865 [Eh]

	 ================> DF-SCS-MP2 Energies <==================
	-----------------------------------------------------------
	 SCS Same-Spin Scale       =       0.3333333333333333 [-]
	 SCS Opposite-Spin Scale   =       1.2000000000000000 [-]
	 SCS Same-Spin Energy      =      -0.1161963067859122 [Eh]
	 SCS Opposite-Spin Energy  =      -1.3663285212821394 [Eh]
	 SCS Correlation Energy    =      -1.4825248280680516 [Eh]
	 SCS Total Energy          =    -342.6539876005747374 [Eh]
	-----------------------------------------------------------

  Dipole Moment: [D]
     X:     3.8401      Y:    -1.1917      Z:    -0.1378     Total:     4.0231

*** Psi4 exiting successfully. Buy a developer a beer!
