                               Psi4 1.4a3.dev225

  ==> Input File <==

--------------------------------------------------------------------------
#psi4
#
memory 32 gb

molecule  {
0 1
  O       -2.1909590     0.3022110    -0.2104850
  N        0.0851610     0.4390910     0.0952720
  N       -0.9981990    -1.6345430     0.1344100
  C        1.3080130    -0.1567610     0.6181790
  C        2.3023860    -0.5362440    -0.4764420
  C        0.0556740     1.8856370    -0.0391460
  C       -1.1027220    -0.2453970    -0.0205620
  H        1.7650550     0.5724880     1.2977430
  H        1.0430010    -1.0258810     1.2255100
  H        1.8814000    -1.2911440    -1.1469770
  H        2.5641180     0.3366430    -1.0800470
  H        3.2219480    -0.9400230    -0.0411410
  H        0.9206510     2.2208510    -0.6190080
  H        0.0765364     2.3991093     0.9862898
  H       -0.8611500     2.1650270    -0.5546380
  H       -0.1986710    -2.0759730    -0.3046340
  H       -1.8731440    -2.0716480    -0.1344710
units angstrom
no_reorient  #important for SAPT in psi4, default
symmetry c1  #important for SAPT in psi4, default
}

set PROPERTIES_ORIGIN ["COM"]
properties('MP2/aug-cc-pvtz', properties = ['dipole'])
--------------------------------------------------------------------------

    Molecular point group: c1
  Charge       = 0
  Multiplicity = 1
  Basis Set: AUG-CC-PVTZ
    Blend: AUG-CC-PVTZ
  Basis Set: (AUG-CC-PVTZ AUX)
    Blend: AUG-CC-PVTZ-JKFIT

    Orbital Energies [Eh]
    ---------------------

    Doubly Occupied:

       1A    -20.506051     2A    -15.582809     3A    -15.577887
       4A    -11.372870     5A    -11.274428     6A    -11.258872
       7A    -11.233241     8A     -1.379879     9A     -1.249783
      10A     -1.190341    11A     -1.033734    12A     -0.940982
      13A     -0.876527    14A     -0.761337    15A     -0.727913
      16A     -0.684871    17A     -0.637683    18A     -0.633132
      19A     -0.603941    20A     -0.587871    21A     -0.560814
      22A     -0.553209    23A     -0.535731    24A     -0.525897
      25A     -0.505313    26A     -0.441297    27A     -0.418103
      28A     -0.372933

  @DF-RHF Final Energy:  -341.20273909448372

   => Energetics <=

    Nuclear Repulsion Energy =            326.0948304481400442
    One-Electron Energy =               -1110.5402426343857769
    Two-Electron Energy =                 443.2426730917619579
    Total Energy =                       -341.2027390944837180
  Basis Set: (AUG-CC-PVTZ AUX)
    Blend: AUG-CC-PVTZ-RI
    Molecular point group: c1

    Geometry (in Angstrom), charge = 0, multiplicity = 1:

       Center              X                  Y                   Z               Mass
    ------------   -----------------  -----------------  -----------------  -----------------
         O           -2.108055222505     0.304636853245    -0.214987706956    15.994914619570
         N            0.168064777495     0.441516853245     0.090769293044    14.003074004430
         N           -0.915295222505    -1.632117146755     0.129907293044    14.003074004430
         C            1.390916777495    -0.154335146755     0.613676293044    12.000000000000
         C            2.385289777495    -0.533818146755    -0.480944706956    12.000000000000
         C            0.138577777495     1.888062853245    -0.043648706956    12.000000000000
         C           -1.019818222505    -0.242971146755    -0.025064706956    12.000000000000
         H            1.847958777495     0.574913853245     1.293240293044     1.007825032230
         H            1.125904777495    -1.023455146755     1.221007293044     1.007825032230
         H            1.964303777495    -1.288718146755    -1.151479706956     1.007825032230
         H            2.647021777495     0.339068853245    -1.084549706956     1.007825032230
         H            3.304851777495    -0.937597146755    -0.045643706956     1.007825032230
         H            1.003554777495     2.223276853245    -0.623510706956     1.007825032230
         H            0.159440177495     2.401535153245     0.981787093044     1.007825032230
         H           -0.778246222505     2.167452853245    -0.559140706956     1.007825032230
         H           -0.115767222505    -2.073547146755    -0.309136706956     1.007825032230
         H           -1.790240222505    -2.069222146755    -0.138973706956     1.007825032230

  Basis Set: AUG-CC-PVTZ
    Blend: AUG-CC-PVTZ
  Basis Set: (AUG-CC-PVTZ AUX)
    Blend: AUG-CC-PVTZ-JKFIT
	 Reference Energy          =    -341.2027390944837180 [Eh]
	 Singles Energy            =      -0.0000000000000000 [Eh]
	 Same-Spin Energy          =      -0.3489206370905276 [Eh]
	 Opposite-Spin Energy      =      -1.1399576957919586 [Eh]
	 Correlation Energy        =      -1.4888783328824862 [Eh]
	 Total Energy              =    -342.6916174273662250 [Eh]

	 ================> DF-SCS-MP2 Energies <==================
	-----------------------------------------------------------
	 SCS Same-Spin Scale       =       0.3333333333333333 [-]
	 SCS Opposite-Spin Scale   =       1.2000000000000000 [-]
	 SCS Same-Spin Energy      =      -0.1163068790301758 [Eh]
	 SCS Opposite-Spin Energy  =      -1.3679492349503504 [Eh]
	 SCS Correlation Energy    =      -1.4842561139805261 [Eh]
	 SCS Total Energy          =    -342.6869952084642250 [Eh]
	-----------------------------------------------------------

  Dipole Moment: [D]
     X:     3.8073      Y:    -1.2037      Z:    -0.2077     Total:     3.9985

*** Psi4 exiting successfully. Buy a developer a beer!
