                               Psi4 1.4a3.dev225

  ==> Input File <==

--------------------------------------------------------------------------
#psi4
#
memory 32 gb

molecule  {
0 1
  O       -2.2429544     0.1840980    -0.2092661
  N        0.0851610     0.4390910     0.0952720
  N       -0.9981990    -1.6345430     0.1344100
  C        1.3080130    -0.1567610     0.6181790
  C        2.3023860    -0.5362440    -0.4764420
  C        0.0556740     1.8856370    -0.0391460
  C       -1.1027220    -0.2453970    -0.0205620
  H        1.7650550     0.5724880     1.2977430
  H        1.0430010    -1.0258810     1.2255100
  H        1.8814000    -1.2911440    -1.1469770
  H        2.5641180     0.3366430    -1.0800470
  H        3.2219480    -0.9400230    -0.0411410
  H        0.9206510     2.2208510    -0.6190080
  H        0.0756270     2.3767260     0.9415890
  H       -0.8611500     2.1650270    -0.5546380
  H       -0.1986710    -2.0759730    -0.3046340
  H       -1.8731440    -2.0716480    -0.1344710
units angstrom
no_reorient  #important for SAPT in psi4, default
symmetry c1  #important for SAPT in psi4, default
}

set PROPERTIES_ORIGIN ["COM"]
properties('MP2/aug-cc-pvtz', properties = ['dipole'])
--------------------------------------------------------------------------

    Molecular point group: c1
  Charge       = 0
  Multiplicity = 1
  Basis Set: AUG-CC-PVTZ
    Blend: AUG-CC-PVTZ
  Basis Set: (AUG-CC-PVTZ AUX)
    Blend: AUG-CC-PVTZ-JKFIT

    Orbital Energies [Eh]
    ---------------------

    Doubly Occupied:

       1A    -20.505316     2A    -15.588113     3A    -15.568931
       4A    -11.372047     5A    -11.277221     6A    -11.257800
       7A    -11.234534     8A     -1.379376     9A     -1.254798
      10A     -1.181682    11A     -1.036671    12A     -0.947791
      13A     -0.879064    14A     -0.761189    15A     -0.725527
      16A     -0.683172    17A     -0.641695    18A     -0.632522
      19A     -0.603757    20A     -0.589928    21A     -0.563108
      22A     -0.558872    23A     -0.539086    24A     -0.529386
      25A     -0.507737    26A     -0.439409    27A     -0.410927
      28A     -0.378190

  @DF-RHF Final Energy:  -341.20164514951153

   => Energetics <=

    Nuclear Repulsion Energy =            325.8346063078375892
    One-Electron Energy =               -1109.9768092113527018
    Two-Electron Energy =                 442.9405577540035779
    Total Energy =                       -341.2016451495115348
  Basis Set: (AUG-CC-PVTZ AUX)
    Blend: AUG-CC-PVTZ-RI
    Molecular point group: c1

    Geometry (in Angstrom), charge = 0, multiplicity = 1:

       Center              X                  Y                   Z               Mass
    ------------   -----------------  -----------------  -----------------  -----------------
         O           -2.151894430270     0.205252092545    -0.213518468440    15.994914619570
         N            0.176220969730     0.460245092545     0.091019631560    14.003074004430
         N           -0.907139030270    -1.613388907455     0.130157631560    14.003074004430
         C            1.399072969730    -0.135606907455     0.613926631560    12.000000000000
         C            2.393445969730    -0.515089907455    -0.480694368440    12.000000000000
         C            0.146733969730     1.906791092545    -0.043398368440    12.000000000000
         C           -1.011662030270    -0.224242907455    -0.024814368440    12.000000000000
         H            1.856114969730     0.593642092545     1.293490631560     1.007825032230
         H            1.134060969730    -1.004726907455     1.221257631560     1.007825032230
         H            1.972459969730    -1.269989907455    -1.151229368440     1.007825032230
         H            2.655177969730     0.357797092545    -1.084299368440     1.007825032230
         H            3.313007969730    -0.918868907455    -0.045393368440     1.007825032230
         H            1.011710969730     2.242005092545    -0.623260368440     1.007825032230
         H            0.166686969730     2.397880092545     0.937336631560     1.007825032230
         H           -0.770090030270     2.186181092545    -0.558890368440     1.007825032230
         H           -0.107611030270    -2.054818907455    -0.308886368440     1.007825032230
         H           -1.782084030270    -2.050493907455    -0.138723368440     1.007825032230

  Basis Set: AUG-CC-PVTZ
    Blend: AUG-CC-PVTZ
  Basis Set: (AUG-CC-PVTZ AUX)
    Blend: AUG-CC-PVTZ-JKFIT
	 Reference Energy          =    -341.2016451495115348 [Eh]
	 Singles Energy            =      -0.0000000000000000 [Eh]
	 Same-Spin Energy          =      -0.3487678560509807 [Eh]
	 Opposite-Spin Energy      =      -1.1396585296714923 [Eh]
	 Correlation Energy        =      -1.4884263857224729 [Eh]
	 Total Energy              =    -342.6900715352339830 [Eh]

	 ================> DF-SCS-MP2 Energies <==================
	-----------------------------------------------------------
	 SCS Same-Spin Scale       =       0.3333333333333333 [-]
	 SCS Opposite-Spin Scale   =       1.2000000000000000 [-]
	 SCS Same-Spin Energy      =      -0.1162559520169935 [Eh]
	 SCS Opposite-Spin Energy  =      -1.3675902356057907 [Eh]
	 SCS Correlation Energy    =      -1.4838461876227842 [Eh]
	 SCS Total Energy          =    -342.6854913371342946 [Eh]
	-----------------------------------------------------------

  Dipole Moment: [D]
     X:     4.0275      Y:    -0.8015      Z:    -0.1738     Total:     4.1101

*** Psi4 exiting successfully. Buy a developer a beer!
