                               Psi4 1.4a3.dev225

  ==> Input File <==

--------------------------------------------------------------------------
#psi4
#
memory 32 gb

molecule  {
0 1
  O       -2.1909590     0.3022110    -0.2104850
  N        0.0851610     0.4390910     0.0952720
  N       -0.9981990    -1.6345430     0.1344100
  C        1.3080130    -0.1567610     0.6181790
  C        2.3023860    -0.5362440    -0.4764420
  C        0.0556740     1.8856370    -0.0391460
  C       -1.1042134    -0.2255756    -0.0227733
  H        1.7650550     0.5724880     1.2977430
  H        1.0430010    -1.0258810     1.2255100
  H        1.8814000    -1.2911440    -1.1469770
  H        2.5641180     0.3366430    -1.0800470
  H        3.2219480    -0.9400230    -0.0411410
  H        0.9206510     2.2208510    -0.6190080
  H        0.0756270     2.3767260     0.9415890
  H       -0.8611500     2.1650270    -0.5546380
  H       -0.1986710    -2.0759730    -0.3046340
  H       -1.8731440    -2.0716480    -0.1344710
units angstrom
no_reorient  #important for SAPT in psi4, default
symmetry c1  #important for SAPT in psi4, default
}

set PROPERTIES_ORIGIN ["COM"]
properties('MP2/aug-cc-pvtz', properties = ['dipole'])
--------------------------------------------------------------------------

    Molecular point group: c1
  Charge       = 0
  Multiplicity = 1
  Basis Set: AUG-CC-PVTZ
    Blend: AUG-CC-PVTZ
  Basis Set: (AUG-CC-PVTZ AUX)
    Blend: AUG-CC-PVTZ-JKFIT

    Orbital Energies [Eh]
    ---------------------

    Doubly Occupied:

       1A    -20.507701     2A    -15.582976     3A    -15.573687
       4A    -11.371861     5A    -11.275207     6A    -11.253605
       7A    -11.233336     8A     -1.384918     9A     -1.252893
      10A     -1.182653    11A     -1.035073    12A     -0.945366
      13A     -0.877938    14A     -0.758523    15A     -0.725089
      16A     -0.684122    17A     -0.641361    18A     -0.631849
      19A     -0.607515    20A     -0.588275    21A     -0.560424
      22A     -0.557201    23A     -0.537620    24A     -0.527331
      25A     -0.506227    26A     -0.443118    27A     -0.416286
      28A     -0.375284

  @DF-RHF Final Energy:  -341.20495047435423

   => Energetics <=

    Nuclear Repulsion Energy =            326.3997161431433938
    One-Electron Energy =               -1111.1344580724860407
    Two-Electron Energy =                 443.5297914549883558
    Total Energy =                       -341.2049504743542343
  Basis Set: (AUG-CC-PVTZ AUX)
    Blend: AUG-CC-PVTZ-RI
    Molecular point group: c1

    Geometry (in Angstrom), charge = 0, multiplicity = 1:

       Center              X                  Y                   Z               Mass
    ------------   -----------------  -----------------  -----------------  -----------------
         O           -2.107870921538     0.302527725119    -0.214286426911    15.994914619570
         N            0.168249078462     0.439407725119     0.091470573089    14.003074004430
         N           -0.915110921538    -1.634226274881     0.130608573089    14.003074004430
         C            1.391101078462    -0.156444274881     0.614377573089    12.000000000000
         C            2.385474078462    -0.535927274881    -0.480243426911    12.000000000000
         C            0.138762078462     1.885953725119    -0.042947426911    12.000000000000
         C           -1.021125321538    -0.225258874881    -0.026574726911    12.000000000000
         H            1.848143078462     0.572804725119     1.293941573089     1.007825032230
         H            1.126089078462    -1.025564274881     1.221708573089     1.007825032230
         H            1.964488078462    -1.290827274881    -1.150778426911     1.007825032230
         H            2.647206078462     0.336959725119    -1.083848426911     1.007825032230
         H            3.305036078462    -0.939706274881    -0.044942426911     1.007825032230
         H            1.003739078462     2.221167725119    -0.622809426911     1.007825032230
         H            0.158715078462     2.377042725119     0.937787573089     1.007825032230
         H           -0.778061921538     2.165343725119    -0.558439426911     1.007825032230
         H           -0.115582921538    -2.075656274881    -0.308435426911     1.007825032230
         H           -1.790055921538    -2.071331274881    -0.138272426911     1.007825032230

  Basis Set: AUG-CC-PVTZ
    Blend: AUG-CC-PVTZ
  Basis Set: (AUG-CC-PVTZ AUX)
    Blend: AUG-CC-PVTZ-JKFIT
	 Reference Energy          =    -341.2049504743542343 [Eh]
	 Singles Energy            =      -0.0000000000000000 [Eh]
	 Same-Spin Energy          =      -0.3487100176806908 [Eh]
	 Opposite-Spin Energy      =      -1.1393943208850648 [Eh]
	 Correlation Energy        =      -1.4881043385657555 [Eh]
	 Total Energy              =    -342.6930548129199678 [Eh]

	 ================> DF-SCS-MP2 Energies <==================
	-----------------------------------------------------------
	 SCS Same-Spin Scale       =       0.3333333333333333 [-]
	 SCS Opposite-Spin Scale   =       1.2000000000000000 [-]
	 SCS Same-Spin Energy      =      -0.1162366725602303 [Eh]
	 SCS Opposite-Spin Energy  =      -1.3672731850620776 [Eh]
	 SCS Correlation Energy    =      -1.4835098576223078 [Eh]
	 SCS Total Energy          =    -342.6884603319765574 [Eh]
	-----------------------------------------------------------

  Dipole Moment: [D]
     X:     3.8186      Y:    -1.0062      Z:    -0.1881     Total:     3.9535

*** Psi4 exiting successfully. Buy a developer a beer!
