                               Psi4 1.4a3.dev225

  ==> Input File <==

--------------------------------------------------------------------------
#psi4
#
memory 32 gb

molecule  {
0 1
  O       -2.1909590     0.3022110    -0.2104850
  N        0.0851610     0.4390910     0.0952720
  N       -0.9981990    -1.6345430     0.1344100
  C        1.3080130    -0.1567610     0.6181790
  C        2.3023860    -0.5362440    -0.4764420
  C        0.1058415     1.8864596    -0.0317297
  C       -1.1027220    -0.2453970    -0.0205620
  H        1.7650550     0.5724880     1.2977430
  H        1.0430010    -1.0258810     1.2255100
  H        1.8814000    -1.2911440    -1.1469770
  H        2.5641180     0.3366430    -1.0800470
  H        3.2219480    -0.9400230    -0.0411410
  H        0.9206510     2.2208510    -0.6190080
  H        0.0756270     2.3767260     0.9415890
  H       -0.8611500     2.1650270    -0.5546380
  H       -0.1986710    -2.0759730    -0.3046340
  H       -1.8731440    -2.0716480    -0.1344710
units angstrom
no_reorient  #important for SAPT in psi4, default
symmetry c1  #important for SAPT in psi4, default
}

set PROPERTIES_ORIGIN ["COM"]
properties('MP2/aug-cc-pvtz', properties = ['dipole'])
--------------------------------------------------------------------------

    Molecular point group: c1
  Charge       = 0
  Multiplicity = 1
  Basis Set: AUG-CC-PVTZ
    Blend: AUG-CC-PVTZ
  Basis Set: (AUG-CC-PVTZ AUX)
    Blend: AUG-CC-PVTZ-JKFIT

    Orbital Energies [Eh]
    ---------------------

    Doubly Occupied:

       1A    -20.505761     2A    -15.581974     3A    -15.577978
       4A    -11.373319     5A    -11.273121     6A    -11.252755
       7A    -11.232854     8A     -1.379234     9A     -1.249679
      10A     -1.190298    11A     -1.032622    12A     -0.945887
      13A     -0.875935    14A     -0.762934    15A     -0.726885
      16A     -0.685400    17A     -0.641477    18A     -0.632011
      19A     -0.603099    20A     -0.590076    21A     -0.568646
      22A     -0.556485    23A     -0.534813    24A     -0.520770
      25A     -0.499840    26A     -0.440751    27A     -0.418056
      28A     -0.374450

  @DF-RHF Final Energy:  -341.20154375603335

   => Energetics <=

    Nuclear Repulsion Energy =            326.2506444340698408
    One-Electron Energy =               -1110.8501526361535525
    Two-Electron Energy =                 443.3979644460503664
    Total Energy =                       -341.2015437560333453
  Basis Set: (AUG-CC-PVTZ AUX)
    Blend: AUG-CC-PVTZ-RI
    Molecular point group: c1

    Geometry (in Angstrom), charge = 0, multiplicity = 1:

       Center              X                  Y                   Z               Mass
    ------------   -----------------  -----------------  -----------------  -----------------
         O           -2.113943717114     0.304761141405    -0.215418205688    15.994914619570
         N            0.162176282886     0.441641141405     0.090338794312    14.003074004430
         N           -0.921183717114    -1.631992858595     0.129476794312    14.003074004430
         C            1.385028282886    -0.154210858595     0.613245794312    12.000000000000
         C            2.379401282886    -0.533693858595    -0.481375205688    12.000000000000
         C            0.182856782886     1.889009741405    -0.036662905688    12.000000000000
         C           -1.025706717114    -0.242846858595    -0.025495205688    12.000000000000
         H            1.842070282886     0.575038141405     1.292809794312     1.007825032230
         H            1.120016282886    -1.023330858595     1.220576794312     1.007825032230
         H            1.958415282886    -1.288593858595    -1.151910205688     1.007825032230
         H            2.641133282886     0.339193141405    -1.084980205688     1.007825032230
         H            3.298963282886    -0.937472858595    -0.046074205688     1.007825032230
         H            0.997666282886     2.223401141405    -0.623941205688     1.007825032230
         H            0.152642282886     2.379276141405     0.936655794312     1.007825032230
         H           -0.784134717114     2.167577141405    -0.559571205688     1.007825032230
         H           -0.121655717114    -2.073422858595    -0.309567205688     1.007825032230
         H           -1.796128717114    -2.069097858595    -0.139404205688     1.007825032230

  Basis Set: AUG-CC-PVTZ
    Blend: AUG-CC-PVTZ
  Basis Set: (AUG-CC-PVTZ AUX)
    Blend: AUG-CC-PVTZ-JKFIT
	 Reference Energy          =    -341.2015437560333453 [Eh]
	 Singles Energy            =      -0.0000000000000000 [Eh]
	 Same-Spin Energy          =      -0.3490985511945387 [Eh]
	 Opposite-Spin Energy      =      -1.1400037468333104 [Eh]
	 Correlation Energy        =      -1.4891022980278490 [Eh]
	 Total Energy              =    -342.6906460540611761 [Eh]

	 ================> DF-SCS-MP2 Energies <==================
	-----------------------------------------------------------
	 SCS Same-Spin Scale       =       0.3333333333333333 [-]
	 SCS Opposite-Spin Scale   =       1.2000000000000000 [-]
	 SCS Same-Spin Energy      =      -0.1163661837315129 [Eh]
	 SCS Opposite-Spin Energy  =      -1.3680044961999724 [Eh]
	 SCS Correlation Energy    =      -1.4843706799314853 [Eh]
	 SCS Total Energy          =    -342.6859144359648326 [Eh]
	-----------------------------------------------------------

  Dipole Moment: [D]
     X:     3.8149      Y:    -1.1607      Z:    -0.1834     Total:     3.9918

*** Psi4 exiting successfully. Buy a developer a beer!
