                               Psi4 1.4a3.dev225

  ==> Input File <==

--------------------------------------------------------------------------
#psi4
#
memory 32 gb

molecule  {
0 1
  O       -2.1909590     0.3022110    -0.2104850
  N        0.0851610     0.4390910     0.0952720
  N       -0.9981990    -1.6345430     0.1344100
  C        1.3080130    -0.1567610     0.6181790
  C        2.3023860    -0.5362440    -0.4764420
  C        0.0556740     1.8856370    -0.0391460
  C       -1.1027220    -0.2453970    -0.0205620
  H        1.7650550     0.5724880     1.2977430
  H        1.0430010    -1.0258810     1.2255100
  H        1.8814000    -1.2911440    -1.1469770
  H        2.5641180     0.3366430    -1.0800470
  H        3.2219480    -0.9400230    -0.0411410
  H        0.9206510     2.2208510    -0.6190080
  H        0.0752632     2.3677727     0.9237087
  H       -0.8611500     2.1650270    -0.5546380
  H       -0.1986710    -2.0759730    -0.3046340
  H       -1.8731440    -2.0716480    -0.1344710
units angstrom
no_reorient  #important for SAPT in psi4, default
symmetry c1  #important for SAPT in psi4, default
}

set PROPERTIES_ORIGIN ["COM"]
properties('MP2/aug-cc-pvtz', properties = ['dipole'])
--------------------------------------------------------------------------

    Molecular point group: c1
  Charge       = 0
  Multiplicity = 1
  Basis Set: AUG-CC-PVTZ
    Blend: AUG-CC-PVTZ
  Basis Set: (AUG-CC-PVTZ AUX)
    Blend: AUG-CC-PVTZ-JKFIT

    Orbital Energies [Eh]
    ---------------------

    Doubly Occupied:

       1A    -20.505448     2A    -15.581581     3A    -15.577385
       4A    -11.372236     5A    -11.274244     6A    -11.250343
       7A    -11.232942     8A     -1.379300     9A     -1.249287
      10A     -1.189953    11A     -1.033812    12A     -0.945790
      13A     -0.876159    14A     -0.762785    15A     -0.727722
      16A     -0.684379    17A     -0.640756    18A     -0.632748
      19A     -0.604109    20A     -0.589277    21A     -0.560577
      22A     -0.558540    23A     -0.537194    24A     -0.525377
      25A     -0.505615    26A     -0.440850    27A     -0.417750
      28A     -0.373400

  @DF-RHF Final Energy:  -341.20486287381874

   => Energetics <=

    Nuclear Repulsion Energy =            326.4107453165258903
    One-Electron Energy =               -1111.1721008282684124
    Two-Electron Energy =                 443.5564926379237818
    Total Energy =                       -341.2048628738187404
  Basis Set: (AUG-CC-PVTZ AUX)
    Blend: AUG-CC-PVTZ-RI
    Molecular point group: c1

    Geometry (in Angstrom), charge = 0, multiplicity = 1:

       Center              X                  Y                   Z               Mass
    ------------   -----------------  -----------------  -----------------  -----------------
         O           -2.108042652252     0.304946238261    -0.214369846223    15.994914619570
         N            0.168077347748     0.441826238261     0.091387153777    14.003074004430
         N           -0.915282652252    -1.631807761739     0.130525153777    14.003074004430
         C            1.390929347748    -0.154025761739     0.614294153777    12.000000000000
         C            2.385302347748    -0.533508761739    -0.480326846223    12.000000000000
         C            0.138590347748     1.888372238261    -0.043030846223    12.000000000000
         C           -1.019805652252    -0.242661761739    -0.024446846223    12.000000000000
         H            1.847971347748     0.575223238261     1.293858153777     1.007825032230
         H            1.125917347748    -1.023145761739     1.221625153777     1.007825032230
         H            1.964316347748    -1.288408761739    -1.150861846223     1.007825032230
         H            2.647034347748     0.339378238261    -1.083931846223     1.007825032230
         H            3.304864347748    -0.937287761739    -0.045025846223     1.007825032230
         H            1.003567347748     2.223586238261    -0.622892846223     1.007825032230
         H            0.158179547748     2.370507938261     0.919823853777     1.007825032230
         H           -0.778233652252     2.167762238261    -0.558522846223     1.007825032230
         H           -0.115754652252    -2.073237761739    -0.308518846223     1.007825032230
         H           -1.790227652252    -2.068912761739    -0.138355846223     1.007825032230

  Basis Set: AUG-CC-PVTZ
    Blend: AUG-CC-PVTZ
  Basis Set: (AUG-CC-PVTZ AUX)
    Blend: AUG-CC-PVTZ-JKFIT
	 Reference Energy          =    -341.2048628738187404 [Eh]
	 Singles Energy            =      -0.0000000000000000 [Eh]
	 Same-Spin Energy          =      -0.3488962337685146 [Eh]
	 Opposite-Spin Energy      =      -1.1395042863055764 [Eh]
	 Correlation Energy        =      -1.4884005200740911 [Eh]
	 Total Energy              =    -342.6932633938928348 [Eh]

	 ================> DF-SCS-MP2 Energies <==================
	-----------------------------------------------------------
	 SCS Same-Spin Scale       =       0.3333333333333333 [-]
	 SCS Opposite-Spin Scale   =       1.2000000000000000 [-]
	 SCS Same-Spin Energy      =      -0.1162987445895049 [Eh]
	 SCS Opposite-Spin Energy  =      -1.3674051435666916 [Eh]
	 SCS Correlation Energy    =      -1.4837038881561966 [Eh]
	 SCS Total Energy          =    -342.6885667619749256 [Eh]
	-----------------------------------------------------------

  Dipole Moment: [D]
     X:     3.8177      Y:    -1.1502      Z:    -0.1683     Total:     3.9907

*** Psi4 exiting successfully. Buy a developer a beer!
