                               Psi4 1.4a3.dev225

  ==> Input File <==

--------------------------------------------------------------------------
#psi4
#
memory 32 gb

molecule  {
0 1
  O       -2.1909590     0.3022110    -0.2104850
  N        0.0851610     0.4390910     0.0952720
  N       -0.9981990    -1.6345430     0.1344100
  C        1.3080130    -0.1567610     0.6181790
  C        2.3023860    -0.5362440    -0.4764420
  C        0.0305999     1.8845647    -0.0427933
  C       -1.1027220    -0.2453970    -0.0205620
  H        1.7650550     0.5724880     1.2977430
  H        1.0430010    -1.0258810     1.2255100
  H        1.8814000    -1.2911440    -1.1469770
  H        2.5641180     0.3366430    -1.0800470
  H        3.2219480    -0.9400230    -0.0411410
  H        0.9206510     2.2208510    -0.6190080
  H        0.0756270     2.3767260     0.9415890
  H       -0.8611500     2.1650270    -0.5546380
  H       -0.1986710    -2.0759730    -0.3046340
  H       -1.8731440    -2.0716480    -0.1344710
units angstrom
no_reorient  #important for SAPT in psi4, default
symmetry c1  #important for SAPT in psi4, default
}

set PROPERTIES_ORIGIN ["COM"]
properties('MP2/aug-cc-pvtz', properties = ['dipole'])
--------------------------------------------------------------------------

    Molecular point group: c1
  Charge       = 0
  Multiplicity = 1
  Basis Set: AUG-CC-PVTZ
    Blend: AUG-CC-PVTZ
  Basis Set: (AUG-CC-PVTZ AUX)
    Blend: AUG-CC-PVTZ-JKFIT

    Orbital Energies [Eh]
    ---------------------

    Doubly Occupied:

       1A    -20.505600     2A    -15.582006     3A    -15.577330
       4A    -11.372014     5A    -11.274942     6A    -11.253159
       7A    -11.233137     8A     -1.379647     9A     -1.249364
      10A     -1.189984    11A     -1.034400    12A     -0.943713
      13A     -0.876438    14A     -0.762241    15A     -0.728411
      16A     -0.684196    17A     -0.639281    18A     -0.633569
      19A     -0.604838    20A     -0.588482    21A     -0.559006
      22A     -0.554369    23A     -0.538640    24A     -0.527655
      25A     -0.506889    26A     -0.441099    27A     -0.417770
      28A     -0.372618

  @DF-RHF Final Energy:  -341.20418475558796

   => Energetics <=

    Nuclear Repulsion Energy =            326.3601339128529162
    One-Electron Energy =               -1111.0670420841734085
    Two-Electron Energy =                 443.5027234157325324
    Total Energy =                       -341.2041847555879599
  Basis Set: (AUG-CC-PVTZ AUX)
    Blend: AUG-CC-PVTZ-RI
    Molecular point group: c1

    Geometry (in Angstrom), charge = 0, multiplicity = 1:

       Center              X                  Y                   Z               Mass
    ------------   -----------------  -----------------  -----------------  -----------------
         O           -2.105098641908     0.304983897607    -0.214117616998    15.994914619570
         N            0.171021358092     0.441863897607     0.091639383002    14.003074004430
         N           -0.912338641908    -1.631770102393     0.130777383002    14.003074004430
         C            1.393873358092    -0.153988102393     0.614546383002    12.000000000000
         C            2.388246358092    -0.533471102393    -0.480074616998    12.000000000000
         C            0.116460258092     1.887337597607    -0.046425916998    12.000000000000
         C           -1.016861641908    -0.242624102393    -0.024194616998    12.000000000000
         H            1.850915358092     0.575260897607     1.294110383002     1.007825032230
         H            1.128861358092    -1.023108102393     1.221877383002     1.007825032230
         H            1.967260358092    -1.288371102393    -1.150609616998     1.007825032230
         H            2.649978358092     0.339415897607    -1.083679616998     1.007825032230
         H            3.307808358092    -0.937250102393    -0.044773616998     1.007825032230
         H            1.006511358092     2.223623897607    -0.622640616998     1.007825032230
         H            0.161487358092     2.379498897607     0.937956383002     1.007825032230
         H           -0.775289641908     2.167799897607    -0.558270616998     1.007825032230
         H           -0.112810641908    -2.073200102393    -0.308266616998     1.007825032230
         H           -1.787283641908    -2.068875102393    -0.138103616998     1.007825032230

  Basis Set: AUG-CC-PVTZ
    Blend: AUG-CC-PVTZ
  Basis Set: (AUG-CC-PVTZ AUX)
    Blend: AUG-CC-PVTZ-JKFIT
	 Reference Energy          =    -341.2041847555879599 [Eh]
	 Singles Energy            =      -0.0000000000000000 [Eh]
	 Same-Spin Energy          =      -0.3488516348102044 [Eh]
	 Opposite-Spin Energy      =      -1.1395590510563487 [Eh]
	 Correlation Energy        =      -1.4884106858665531 [Eh]
	 Total Energy              =    -342.6925954414545004 [Eh]

	 ================> DF-SCS-MP2 Energies <==================
	-----------------------------------------------------------
	 SCS Same-Spin Scale       =       0.3333333333333333 [-]
	 SCS Opposite-Spin Scale   =       1.2000000000000000 [-]
	 SCS Same-Spin Energy      =      -0.1162838782700681 [Eh]
	 SCS Opposite-Spin Energy  =      -1.3674708612676183 [Eh]
	 SCS Correlation Energy    =      -1.4837547395376864 [Eh]
	 SCS Total Energy          =    -342.6879394951256472 [Eh]
	-----------------------------------------------------------

  Dipole Moment: [D]
     X:     3.8137      Y:    -1.1713      Z:    -0.1748     Total:     3.9934

*** Psi4 exiting successfully. Buy a developer a beer!
