                               Psi4 1.4a3.dev225

  ==> Input File <==

--------------------------------------------------------------------------
#psi4
#
memory 32 gb

molecule  {
0 1
  O       -2.1709457     0.3403109    -0.2104289
  N        0.0851610     0.4390910     0.0952720
  N       -0.9981990    -1.6345430     0.1344100
  C        1.3080130    -0.1567610     0.6181790
  C        2.3023860    -0.5362440    -0.4764420
  C        0.0556740     1.8856370    -0.0391460
  C       -1.1027220    -0.2453970    -0.0205620
  H        1.7650550     0.5724880     1.2977430
  H        1.0430010    -1.0258810     1.2255100
  H        1.8814000    -1.2911440    -1.1469770
  H        2.5641180     0.3366430    -1.0800470
  H        3.2219480    -0.9400230    -0.0411410
  H        0.9206510     2.2208510    -0.6190080
  H        0.0756270     2.3767260     0.9415890
  H       -0.8611500     2.1650270    -0.5546380
  H       -0.1986710    -2.0759730    -0.3046340
  H       -1.8731440    -2.0716480    -0.1344710
units angstrom
no_reorient  #important for SAPT in psi4, default
symmetry c1  #important for SAPT in psi4, default
}

set PROPERTIES_ORIGIN ["COM"]
properties('MP2/aug-cc-pvtz', properties = ['dipole'])
--------------------------------------------------------------------------

    Molecular point group: c1
  Charge       = 0
  Multiplicity = 1
  Basis Set: AUG-CC-PVTZ
    Blend: AUG-CC-PVTZ
  Basis Set: (AUG-CC-PVTZ AUX)
    Blend: AUG-CC-PVTZ-JKFIT

    Orbital Energies [Eh]
    ---------------------

    Doubly Occupied:

       1A    -20.505539     2A    -15.580282     3A    -15.579785
       4A    -11.372597     5A    -11.273218     6A    -11.251041
       7A    -11.232454     8A     -1.379815     9A     -1.247649
      10A     -1.192456    11A     -1.032706    12A     -0.943073
      13A     -0.875254    14A     -0.762810    15A     -0.728421
      16A     -0.684907    17A     -0.639152    18A     -0.632874
      19A     -0.604325    20A     -0.588233    21A     -0.559514
      22A     -0.556692    23A     -0.536167    24A     -0.523977
      25A     -0.504714    26A     -0.441188    27A     -0.419685
      28A     -0.371549

  @DF-RHF Final Energy:  -341.20427142553285

   => Energetics <=

    Nuclear Repulsion Energy =            326.5312755461714005
    One-Electron Energy =               -1111.4309408809258457
    Two-Electron Energy =                 443.6953939092215933
    Total Energy =                       -341.2042714255328519
  Basis Set: (AUG-CC-PVTZ AUX)
    Blend: AUG-CC-PVTZ-RI
    Molecular point group: c1

    Geometry (in Angstrom), charge = 0, multiplicity = 1:

       Center              X                  Y                   Z               Mass
    ------------   -----------------  -----------------  -----------------  -----------------
         O           -2.091168849004     0.336987829388    -0.214499068088    15.994914619570
         N            0.164937850996     0.435767929388     0.091201831912    14.003074004430
         N           -0.918422149004    -1.637866070612     0.130339831912    14.003074004430
         C            1.387789850996    -0.160084070612     0.614108831912    12.000000000000
         C            2.382162850996    -0.539567070612    -0.480512168088    12.000000000000
         C            0.135450850996     1.882313929388    -0.043216168088    12.000000000000
         C           -1.022945149004    -0.248720070612    -0.024632168088    12.000000000000
         H            1.844831850996     0.569164929388     1.293672831912     1.007825032230
         H            1.122777850996    -1.029204070612     1.221439831912     1.007825032230
         H            1.961176850996    -1.294467070612    -1.151047168088     1.007825032230
         H            2.643894850996     0.333319929388    -1.084117168088     1.007825032230
         H            3.301724850996    -0.943346070612    -0.045211168088     1.007825032230
         H            1.000427850996     2.217527929388    -0.623078168088     1.007825032230
         H            0.155403850996     2.373402929388     0.937518831912     1.007825032230
         H           -0.781373149004     2.161703929388    -0.558708168088     1.007825032230
         H           -0.118894149004    -2.079296070612    -0.308704168088     1.007825032230
         H           -1.793367149004    -2.074971070612    -0.138541168088     1.007825032230

  Basis Set: AUG-CC-PVTZ
    Blend: AUG-CC-PVTZ
  Basis Set: (AUG-CC-PVTZ AUX)
    Blend: AUG-CC-PVTZ-JKFIT
	 Reference Energy          =    -341.2042714255328519 [Eh]
	 Singles Energy            =      -0.0000000000000000 [Eh]
	 Same-Spin Energy          =      -0.3490145431538412 [Eh]
	 Opposite-Spin Energy      =      -1.1397359375853011 [Eh]
	 Correlation Energy        =      -1.4887504807391423 [Eh]
	 Total Energy              =    -342.6930219062720084 [Eh]

	 ================> DF-SCS-MP2 Energies <==================
	-----------------------------------------------------------
	 SCS Same-Spin Scale       =       0.3333333333333333 [-]
	 SCS Opposite-Spin Scale   =       1.2000000000000000 [-]
	 SCS Same-Spin Energy      =      -0.1163381810512804 [Eh]
	 SCS Opposite-Spin Energy  =      -1.3676831251023613 [Eh]
	 SCS Correlation Energy    =      -1.4840213061536418 [Eh]
	 SCS Total Energy          =    -342.6882927316864880 [Eh]
	-----------------------------------------------------------

  Dipole Moment: [D]
     X:     3.7345      Y:    -1.2815      Z:    -0.1815     Total:     3.9524

*** Psi4 exiting successfully. Buy a developer a beer!
