                               Psi4 1.4a3.dev225

  ==> Input File <==

--------------------------------------------------------------------------
#psi4
#
memory 32 gb

molecule  {
0 1
  O       -2.1909590     0.3022110    -0.2104850
  N        0.0851610     0.4390910     0.0952720
  N       -0.9981990    -1.6345430     0.1344100
  C        1.2397039    -0.2262457     0.5750275
  C        2.3023860    -0.5362440    -0.4764420
  C        0.0556740     1.8856370    -0.0391460
  C       -1.1027220    -0.2453970    -0.0205620
  H        1.7650550     0.5724880     1.2977430
  H        1.0430010    -1.0258810     1.2255100
  H        1.8814000    -1.2911440    -1.1469770
  H        2.5641180     0.3366430    -1.0800470
  H        3.2219480    -0.9400230    -0.0411410
  H        0.9206510     2.2208510    -0.6190080
  H        0.0756270     2.3767260     0.9415890
  H       -0.8611500     2.1650270    -0.5546380
  H       -0.1986710    -2.0759730    -0.3046340
  H       -1.8731440    -2.0716480    -0.1344710
units angstrom
no_reorient  #important for SAPT in psi4, default
symmetry c1  #important for SAPT in psi4, default
}

set PROPERTIES_ORIGIN ["COM"]
properties('MP2/aug-cc-pvtz', properties = ['dipole'])
--------------------------------------------------------------------------

    Molecular point group: c1
  Charge       = 0
  Multiplicity = 1
  Basis Set: AUG-CC-PVTZ
    Blend: AUG-CC-PVTZ
  Basis Set: (AUG-CC-PVTZ AUX)
    Blend: AUG-CC-PVTZ-JKFIT

    Orbital Energies [Eh]
    ---------------------

    Doubly Occupied:

       1A    -20.506579     2A    -15.584784     3A    -15.579045
       4A    -11.372747     5A    -11.276083     6A    -11.256130
       7A    -11.232565     8A     -1.381905     9A     -1.258932
      10A     -1.192454    11A     -1.033115    12A     -0.949622
      13A     -0.874526    14A     -0.765935    15A     -0.735498
      16A     -0.687107    17A     -0.643985    18A     -0.626328
      19A     -0.600919    20A     -0.592956    21A     -0.565321
      22A     -0.559328    23A     -0.539763    24A     -0.529507
      25A     -0.490560    26A     -0.442213    27A     -0.417000
      28A     -0.372482

  @DF-RHF Final Energy:  -341.19280997305395

   => Energetics <=

    Nuclear Repulsion Energy =            327.3217782206759807
    One-Electron Energy =               -1112.8943985112655355
    Two-Electron Energy =                 444.3798103175356573
    Total Energy =                       -341.1928099730539543
  Basis Set: (AUG-CC-PVTZ AUX)
    Blend: AUG-CC-PVTZ-RI
    Molecular point group: c1

    Geometry (in Angstrom), charge = 0, multiplicity = 1:

       Center              X                  Y                   Z               Mass
    ------------   -----------------  -----------------  -----------------  -----------------
         O           -2.100016123374     0.313026161767    -0.209473675083    15.994914619570
         N            0.176103876626     0.449906161767     0.096283324917    14.003074004430
         N           -0.907256123374    -1.623727838233     0.135421324917    14.003074004430
         C            1.330646776626    -0.215430538233     0.576038824917    12.000000000000
         C            2.393328876626    -0.525428838233    -0.475430675083    12.000000000000
         C            0.146616876626     1.896452161767    -0.038134675083    12.000000000000
         C           -1.011779123374    -0.234581838233    -0.019550675083    12.000000000000
         H            1.855997876626     0.583303161767     1.298754324917     1.007825032230
         H            1.133943876626    -1.015065838233     1.226521324917     1.007825032230
         H            1.972342876626    -1.280328838233    -1.145965675083     1.007825032230
         H            2.655060876626     0.347458161767    -1.079035675083     1.007825032230
         H            3.312890876626    -0.929207838233    -0.040129675083     1.007825032230
         H            1.011593876626     2.231666161767    -0.617996675083     1.007825032230
         H            0.166569876626     2.387541161767     0.942600324917     1.007825032230
         H           -0.770207123374     2.175842161767    -0.553626675083     1.007825032230
         H           -0.107728123374    -2.065157838233    -0.303622675083     1.007825032230
         H           -1.782201123374    -2.060832838233    -0.133459675083     1.007825032230

  Basis Set: AUG-CC-PVTZ
    Blend: AUG-CC-PVTZ
  Basis Set: (AUG-CC-PVTZ AUX)
    Blend: AUG-CC-PVTZ-JKFIT
	 Reference Energy          =    -341.1928099730539543 [Eh]
	 Singles Energy            =      -0.0000000000000000 [Eh]
	 Same-Spin Energy          =      -0.3494967187076461 [Eh]
	 Opposite-Spin Energy      =      -1.1404842353390365 [Eh]
	 Correlation Energy        =      -1.4899809540466826 [Eh]
	 Total Energy              =    -342.6827909271006547 [Eh]

	 ================> DF-SCS-MP2 Energies <==================
	-----------------------------------------------------------
	 SCS Same-Spin Scale       =       0.3333333333333333 [-]
	 SCS Opposite-Spin Scale   =       1.2000000000000000 [-]
	 SCS Same-Spin Energy      =      -0.1164989062358820 [Eh]
	 SCS Opposite-Spin Energy  =      -1.3685810824068438 [Eh]
	 SCS Correlation Energy    =      -1.4850799886427259 [Eh]
	 SCS Total Energy          =    -342.6778899616966783 [Eh]
	-----------------------------------------------------------

  Dipole Moment: [D]
     X:     3.6633      Y:    -1.1685      Z:    -0.2672     Total:     3.8544

*** Psi4 exiting successfully. Buy a developer a beer!
