                               Psi4 1.4a3.dev225

  ==> Input File <==

--------------------------------------------------------------------------
#psi4
#
memory 32 gb

molecule  {
0 1
  O       -2.1909590     0.3022110    -0.2104850
  N        0.0851610     0.4390910     0.0952720
  N       -0.9981990    -1.6345430     0.1344100
  C        1.3080130    -0.1567610     0.6181790
  C        2.3023860    -0.5362440    -0.4764420
  C        0.0556740     1.8856370    -0.0391460
  C       -1.1027220    -0.2453970    -0.0205620
  H        1.7650550     0.5724880     1.2977430
  H        1.0430010    -1.0258810     1.2255100
  H        1.8814000    -1.2911440    -1.1469770
  H        2.6727668     0.3175563    -1.0496937
  H        3.2219480    -0.9400230    -0.0411410
  H        0.9206510     2.2208510    -0.6190080
  H        0.0756270     2.3767260     0.9415890
  H       -0.8611500     2.1650270    -0.5546380
  H       -0.1986710    -2.0759730    -0.3046340
  H       -1.8731440    -2.0716480    -0.1344710
units angstrom
no_reorient  #important for SAPT in psi4, default
symmetry c1  #important for SAPT in psi4, default
}

set PROPERTIES_ORIGIN ["COM"]
properties('MP2/aug-cc-pvtz', properties = ['dipole'])
--------------------------------------------------------------------------

    Molecular point group: c1
  Charge       = 0
  Multiplicity = 1
  Basis Set: AUG-CC-PVTZ
    Blend: AUG-CC-PVTZ
  Basis Set: (AUG-CC-PVTZ AUX)
    Blend: AUG-CC-PVTZ-JKFIT

    Orbital Energies [Eh]
    ---------------------

    Doubly Occupied:

       1A    -20.505517     2A    -15.581699     3A    -15.577620
       4A    -11.372329     5A    -11.275103     6A    -11.252461
       7A    -11.232917     8A     -1.379371     9A     -1.249259
      10A     -1.190068    11A     -1.033491    12A     -0.944047
      13A     -0.877408    14A     -0.762207    15A     -0.727613
      16A     -0.684109    17A     -0.640502    18A     -0.634464
      19A     -0.604876    20A     -0.585612    21A     -0.560315
      22A     -0.555232    23A     -0.537925    24A     -0.526168
      25A     -0.504403    26A     -0.440888    27A     -0.417891
      28A     -0.373272

  @DF-RHF Final Energy:  -341.20367715527539

   => Energetics <=

    Nuclear Repulsion Energy =            326.1608610977805256
    One-Electron Energy =               -1110.6755435417551325
    Two-Electron Energy =                 443.3110052886992207
    Total Energy =                       -341.2036771552753862
  Basis Set: (AUG-CC-PVTZ AUX)
    Blend: AUG-CC-PVTZ-RI
    Molecular point group: c1

    Geometry (in Angstrom), charge = 0, multiplicity = 1:

       Center              X                  Y                   Z               Mass
    ------------   -----------------  -----------------  -----------------  -----------------
         O           -2.109118929354     0.305046284920    -0.214846054655    15.994914619570
         N            0.167001070646     0.441926284920     0.090910945345    14.003074004430
         N           -0.916358929354    -1.631707715080     0.130048945345    14.003074004430
         C            1.389853070646    -0.153925715080     0.613817945345    12.000000000000
         C            2.384226070646    -0.533408715080    -0.480803054655    12.000000000000
         C            0.137514070646     1.888472284920    -0.043507054655    12.000000000000
         C           -1.020881929354    -0.242561715080    -0.024923054655    12.000000000000
         H            1.846895070646     0.575323284920     1.293381945345     1.007825032230
         H            1.124841070646    -1.023045715080     1.221148945345     1.007825032230
         H            1.963240070646    -1.288308715080    -1.151338054655     1.007825032230
         H            2.754606870646     0.320391584920    -1.054054754655     1.007825032230
         H            3.303788070646    -0.937187715080    -0.045502054655     1.007825032230
         H            1.002491070646     2.223686284920    -0.623369054655     1.007825032230
         H            0.157467070646     2.379561284920     0.937227945345     1.007825032230
         H           -0.779309929354     2.167862284920    -0.558999054655     1.007825032230
         H           -0.116830929354    -2.073137715080    -0.308995054655     1.007825032230
         H           -1.791303929354    -2.068812715080    -0.138832054655     1.007825032230

  Basis Set: AUG-CC-PVTZ
    Blend: AUG-CC-PVTZ
  Basis Set: (AUG-CC-PVTZ AUX)
    Blend: AUG-CC-PVTZ-JKFIT
	 Reference Energy          =    -341.2036771552753862 [Eh]
	 Singles Energy            =      -0.0000000000000000 [Eh]
	 Same-Spin Energy          =      -0.3489097115883441 [Eh]
	 Opposite-Spin Energy      =      -1.1395987714279765 [Eh]
	 Correlation Energy        =      -1.4885084830163207 [Eh]
	 Total Energy              =    -342.6921856382917326 [Eh]

	 ================> DF-SCS-MP2 Energies <==================
	-----------------------------------------------------------
	 SCS Same-Spin Scale       =       0.3333333333333333 [-]
	 SCS Opposite-Spin Scale   =       1.2000000000000000 [-]
	 SCS Same-Spin Energy      =      -0.1163032371961147 [Eh]
	 SCS Opposite-Spin Energy  =      -1.3675185257135718 [Eh]
	 SCS Correlation Energy    =      -1.4838217629096866 [Eh]
	 SCS Total Energy          =    -342.6874989181850992 [Eh]
	-----------------------------------------------------------

  Dipole Moment: [D]
     X:     3.8525      Y:    -1.1602      Z:    -0.1712     Total:     4.0271

*** Psi4 exiting successfully. Buy a developer a beer!
