                               Psi4 1.4a3.dev225

  ==> Input File <==

--------------------------------------------------------------------------
#psi4
#
memory 32 gb

molecule  {
0 1
  O       -2.1496309     0.3776972    -0.2101414
  N        0.0851610     0.4390910     0.0952720
  N       -0.9981990    -1.6345430     0.1344100
  C        1.3080130    -0.1567610     0.6181790
  C        2.3023860    -0.5362440    -0.4764420
  C        0.0556740     1.8856370    -0.0391460
  C       -1.1027220    -0.2453970    -0.0205620
  H        1.7650550     0.5724880     1.2977430
  H        1.0430010    -1.0258810     1.2255100
  H        1.8814000    -1.2911440    -1.1469770
  H        2.5641180     0.3366430    -1.0800470
  H        3.2219480    -0.9400230    -0.0411410
  H        0.9206510     2.2208510    -0.6190080
  H        0.0756270     2.3767260     0.9415890
  H       -0.8611500     2.1650270    -0.5546380
  H       -0.1986710    -2.0759730    -0.3046340
  H       -1.8731440    -2.0716480    -0.1344710
units angstrom
no_reorient  #important for SAPT in psi4, default
symmetry c1  #important for SAPT in psi4, default
}

set PROPERTIES_ORIGIN ["COM"]
properties('MP2/aug-cc-pvtz', properties = ['dipole'])
--------------------------------------------------------------------------

    Molecular point group: c1
  Charge       = 0
  Multiplicity = 1
  Basis Set: AUG-CC-PVTZ
    Blend: AUG-CC-PVTZ
  Basis Set: (AUG-CC-PVTZ AUX)
    Blend: AUG-CC-PVTZ-JKFIT

    Orbital Energies [Eh]
    ---------------------

    Doubly Occupied:

       1A    -20.505386     2A    -15.582996     3A    -15.577637
       4A    -11.372830     5A    -11.272096     6A    -11.249217
       7A    -11.231854     8A     -1.380348     9A     -1.245944
      10A     -1.194642    11A     -1.031602    12A     -0.941877
      13A     -0.874219    14A     -0.763367    15A     -0.729045
      16A     -0.685277    17A     -0.638570    18A     -0.632860
      19A     -0.604747    20A     -0.587570    21A     -0.558585
      22A     -0.556157    23A     -0.535425    24A     -0.522306
      25A     -0.503818    26A     -0.441326    27A     -0.421223
      28A     -0.369782

  @DF-RHF Final Energy:  -341.20290165312218

   => Energetics <=

    Nuclear Repulsion Energy =            326.7712320459045827
    One-Electron Energy =               -1111.9268572742359993
    Two-Electron Energy =                 443.9527235752092906
    Total Energy =                       -341.2029016531221828
  Basis Set: (AUG-CC-PVTZ AUX)
    Blend: AUG-CC-PVTZ-RI
    Molecular point group: c1

    Geometry (in Angstrom), charge = 0, multiplicity = 1:

       Center              X                  Y                   Z               Mass
    ------------   -----------------  -----------------  -----------------  -----------------
         O           -2.073193887374     0.368516030826    -0.214256616765    15.994914619570
         N            0.161598012626     0.429909830826     0.091156783235    14.003074004430
         N           -0.921761987374    -1.643724169174     0.130294783235    14.003074004430
         C            1.384450012626    -0.165942169174     0.614063783235    12.000000000000
         C            2.378823012626    -0.545425169174    -0.480557216765    12.000000000000
         C            0.132111012626     1.876455830826    -0.043261216765    12.000000000000
         C           -1.026284987374    -0.254578169174    -0.024677216765    12.000000000000
         H            1.841492012626     0.563306830826     1.293627783235     1.007825032230
         H            1.119438012626    -1.035062169174     1.221394783235     1.007825032230
         H            1.957837012626    -1.300325169174    -1.151092216765     1.007825032230
         H            2.640555012626     0.327461830826    -1.084162216765     1.007825032230
         H            3.298385012626    -0.949204169174    -0.045256216765     1.007825032230
         H            0.997088012626     2.211669830826    -0.623123216765     1.007825032230
         H            0.152064012626     2.367544830826     0.937473783235     1.007825032230
         H           -0.784712987374     2.155845830826    -0.558753216765     1.007825032230
         H           -0.122233987374    -2.085154169174    -0.308749216765     1.007825032230
         H           -1.796706987374    -2.080829169174    -0.138586216765     1.007825032230

  Basis Set: AUG-CC-PVTZ
    Blend: AUG-CC-PVTZ
  Basis Set: (AUG-CC-PVTZ AUX)
    Blend: AUG-CC-PVTZ-JKFIT
	 Reference Energy          =    -341.2029016531221828 [Eh]
	 Singles Energy            =      -0.0000000000000000 [Eh]
	 Same-Spin Energy          =      -0.3491630442153860 [Eh]
	 Opposite-Spin Energy      =      -1.1399127701132228 [Eh]
	 Correlation Energy        =      -1.4890758143286087 [Eh]
	 Total Energy              =    -342.6919774674507835 [Eh]

	 ================> DF-SCS-MP2 Energies <==================
	-----------------------------------------------------------
	 SCS Same-Spin Scale       =       0.3333333333333333 [-]
	 SCS Opposite-Spin Scale   =       1.2000000000000000 [-]
	 SCS Same-Spin Energy      =      -0.1163876814051287 [Eh]
	 SCS Opposite-Spin Energy  =      -1.3678953241358673 [Eh]
	 SCS Correlation Energy    =      -1.4842830055409959 [Eh]
	 SCS Total Energy          =    -342.6871846586631705 [Eh]
	-----------------------------------------------------------

  Dipole Moment: [D]
     X:     3.6494      Y:    -1.3964      Z:    -0.1849     Total:     3.9118

*** Psi4 exiting successfully. Buy a developer a beer!
