                               Psi4 1.4a3.dev225

  ==> Input File <==

--------------------------------------------------------------------------
#psi4
#
memory 32 gb

molecule  {
0 1
  O       -2.1909590     0.3022110    -0.2104850
  N        0.0851610     0.4390910     0.0952720
  N       -0.9981990    -1.6345430     0.1344100
  C        1.3080130    -0.1567610     0.6181790
  C        2.3023860    -0.5362440    -0.4764420
  C        0.0807571     1.8862687    -0.0354578
  C       -1.1027220    -0.2453970    -0.0205620
  H        1.7650550     0.5724880     1.2977430
  H        1.0430010    -1.0258810     1.2255100
  H        1.8814000    -1.2911440    -1.1469770
  H        2.5641180     0.3366430    -1.0800470
  H        3.2219480    -0.9400230    -0.0411410
  H        0.9206510     2.2208510    -0.6190080
  H        0.0756270     2.3767260     0.9415890
  H       -0.8611500     2.1650270    -0.5546380
  H       -0.1986710    -2.0759730    -0.3046340
  H       -1.8731440    -2.0716480    -0.1344710
units angstrom
no_reorient  #important for SAPT in psi4, default
symmetry c1  #important for SAPT in psi4, default
}

set PROPERTIES_ORIGIN ["COM"]
properties('MP2/aug-cc-pvtz', properties = ['dipole'])
--------------------------------------------------------------------------

    Molecular point group: c1
  Charge       = 0
  Multiplicity = 1
  Basis Set: AUG-CC-PVTZ
    Blend: AUG-CC-PVTZ
  Basis Set: (AUG-CC-PVTZ AUX)
    Blend: AUG-CC-PVTZ-JKFIT

    Orbital Energies [Eh]
    ---------------------

    Doubly Occupied:

       1A    -20.505663     2A    -15.581899     3A    -15.577735
       4A    -11.372840     5A    -11.273683     6A    -11.252677
       7A    -11.232927     8A     -1.379316     9A     -1.249513
      10A     -1.190153    11A     -1.033172    12A     -0.944998
      13A     -0.876086    14A     -0.762550    15A     -0.727250
      16A     -0.684902    17A     -0.640505    18A     -0.632327
      19A     -0.603432    20A     -0.589353    21A     -0.564591
      22A     -0.557032    23A     -0.535667    24A     -0.523046
      25A     -0.503283    26A     -0.440857    27A     -0.417939
      28A     -0.373882

  @DF-RHF Final Energy:  -341.20391919156407

   => Energetics <=

    Nuclear Repulsion Energy =            326.2814696352210149
    One-Electron Energy =               -1110.9162219234806344
    Two-Electron Energy =                 443.4308330966955509
    Total Energy =                       -341.2039191915640686
  Basis Set: (AUG-CC-PVTZ AUX)
    Blend: AUG-CC-PVTZ-RI
    Molecular point group: c1

    Geometry (in Angstrom), charge = 0, multiplicity = 1:

       Center              X                  Y                   Z               Mass
    ------------   -----------------  -----------------  -----------------  -----------------
         O           -2.110994904163     0.304783582779    -0.214979946469    15.994914619570
         N            0.165125095837     0.441663582779     0.090777053531    14.003074004430
         N           -0.918234904163    -1.631970417221     0.129915053531    14.003074004430
         C            1.387977095837    -0.154188417221     0.613684053531    12.000000000000
         C            2.382350095837    -0.533671417221    -0.480936946469    12.000000000000
         C            0.160721195837     1.888841282779    -0.039952746469    12.000000000000
         C           -1.022757904163    -0.242824417221    -0.025056946469    12.000000000000
         H            1.845019095837     0.575060582779     1.293248053531     1.007825032230
         H            1.122965095837    -1.023308417221     1.221015053531     1.007825032230
         H            1.961364095837    -1.288571417221    -1.151471946469     1.007825032230
         H            2.644082095837     0.339215582779    -1.084541946469     1.007825032230
         H            3.301912095837    -0.937450417221    -0.045635946469     1.007825032230
         H            1.000615095837     2.223423582779    -0.623502946469     1.007825032230
         H            0.155591095837     2.379298582779     0.937094053531     1.007825032230
         H           -0.781185904163     2.167599582779    -0.559132946469     1.007825032230
         H           -0.118706904163    -2.073400417221    -0.309128946469     1.007825032230
         H           -1.793179904163    -2.069075417221    -0.138965946469     1.007825032230

  Basis Set: AUG-CC-PVTZ
    Blend: AUG-CC-PVTZ
  Basis Set: (AUG-CC-PVTZ AUX)
    Blend: AUG-CC-PVTZ-JKFIT
	 Reference Energy          =    -341.2039191915640686 [Eh]
	 Singles Energy            =      -0.0000000000000000 [Eh]
	 Same-Spin Energy          =      -0.3489839029735524 [Eh]
	 Opposite-Spin Energy      =      -1.1397718993238906 [Eh]
	 Correlation Energy        =      -1.4887558022974430 [Eh]
	 Total Energy              =    -342.6926749938614876 [Eh]

	 ================> DF-SCS-MP2 Energies <==================
	-----------------------------------------------------------
	 SCS Same-Spin Scale       =       0.3333333333333333 [-]
	 SCS Opposite-Spin Scale   =       1.2000000000000000 [-]
	 SCS Same-Spin Energy      =      -0.1163279676578508 [Eh]
	 SCS Opposite-Spin Energy  =      -1.3677262791886686 [Eh]
	 SCS Correlation Energy    =      -1.4840542468465194 [Eh]
	 SCS Total Energy          =    -342.6879734384106087 [Eh]
	-----------------------------------------------------------

  Dipole Moment: [D]
     X:     3.8153      Y:    -1.1609      Z:    -0.1815     Total:     3.9921

*** Psi4 exiting successfully. Buy a developer a beer!
