                               Psi4 1.4a3.dev225

  ==> Input File <==

--------------------------------------------------------------------------
#psi4
#
memory 32 gb

molecule  {
0 1
  O       -2.1909590     0.3022110    -0.2104850
  N        0.0851610     0.4390910     0.0952720
  N       -0.9981990    -1.6345430     0.1344100
  C        1.1401932    -0.0749884     0.5464171
  C        2.3023860    -0.5362440    -0.4764420
  C        0.0556740     1.8856370    -0.0391460
  C       -1.1027220    -0.2453970    -0.0205620
  H        1.7650550     0.5724880     1.2977430
  H        1.0430010    -1.0258810     1.2255100
  H        1.8814000    -1.2911440    -1.1469770
  H        2.5641180     0.3366430    -1.0800470
  H        3.2219480    -0.9400230    -0.0411410
  H        0.9206510     2.2208510    -0.6190080
  H        0.0756270     2.3767260     0.9415890
  H       -0.8611500     2.1650270    -0.5546380
  H       -0.1986710    -2.0759730    -0.3046340
  H       -1.8731440    -2.0716480    -0.1344710
units angstrom
no_reorient  #important for SAPT in psi4, default
symmetry c1  #important for SAPT in psi4, default
}

set PROPERTIES_ORIGIN ["COM"]
properties('MP2/aug-cc-pvtz', properties = ['dipole'])
--------------------------------------------------------------------------

    Molecular point group: c1
  Charge       = 0
  Multiplicity = 1
  Basis Set: AUG-CC-PVTZ
    Blend: AUG-CC-PVTZ
  Basis Set: (AUG-CC-PVTZ AUX)
    Blend: AUG-CC-PVTZ-JKFIT

    Orbital Energies [Eh]
    ---------------------

    Doubly Occupied:

       1A    -20.515534     2A    -15.588009     3A    -15.583274
       4A    -11.382551     5A    -11.275462     6A    -11.260630
       7A    -11.226326     8A     -1.395813     9A     -1.302093
      10A     -1.201080    11A     -1.013573    12A     -0.959689
      13A     -0.894242    14A     -0.767456    15A     -0.739598
      16A     -0.699770    17A     -0.658278    18A     -0.638279
      19A     -0.609255    20A     -0.579633    21A     -0.564308
      22A     -0.561801    23A     -0.549878    24A     -0.510376
      25A     -0.479384    26A     -0.448066    27A     -0.418560
      28A     -0.362999

  @DF-RHF Final Energy:  -341.15544002213102

   => Energetics <=

    Nuclear Repulsion Energy =            329.5738341715779711
    One-Electron Energy =               -1117.0867129305290746
    Two-Electron Energy =                 446.3574387368200291
    Total Energy =                       -341.1554400221310175
  Basis Set: (AUG-CC-PVTZ AUX)
    Blend: AUG-CC-PVTZ-RI
    Molecular point group: c1

    Geometry (in Angstrom), charge = 0, multiplicity = 1:

       Center              X                  Y                   Z               Mass
    ------------   -----------------  -----------------  -----------------  -----------------
         O           -2.088318078339     0.295245011526    -0.206110360910    15.994914619570
         N            0.187801921661     0.432125011526     0.099646639090    14.003074004430
         N           -0.895558078339    -1.641508988474     0.138784639090    14.003074004430
         C            1.242834121661    -0.081954388474     0.550791739090    12.000000000000
         C            2.405026921661    -0.543209988474    -0.472067360910    12.000000000000
         C            0.158314921661     1.878671011526    -0.034771360910    12.000000000000
         C           -1.000081078339    -0.252362988474    -0.016187360910    12.000000000000
         H            1.867695921661     0.565522011526     1.302117639090     1.007825032230
         H            1.145641921661    -1.032846988474     1.229884639090     1.007825032230
         H            1.984040921661    -1.298109988474    -1.142602360910     1.007825032230
         H            2.666758921661     0.329677011526    -1.075672360910     1.007825032230
         H            3.324588921661    -0.946988988474    -0.036766360910     1.007825032230
         H            1.023291921661     2.213885011526    -0.614633360910     1.007825032230
         H            0.178267921661     2.369760011526     0.945963639090     1.007825032230
         H           -0.758509078339     2.158061011526    -0.550263360910     1.007825032230
         H           -0.096030078339    -2.082938988474    -0.300259360910     1.007825032230
         H           -1.770503078339    -2.078613988474    -0.130096360910     1.007825032230

  Basis Set: AUG-CC-PVTZ
    Blend: AUG-CC-PVTZ
  Basis Set: (AUG-CC-PVTZ AUX)
    Blend: AUG-CC-PVTZ-JKFIT
	 Reference Energy          =    -341.1554400221310175 [Eh]
	 Singles Energy            =      -0.0000000000000000 [Eh]
	 Same-Spin Energy          =      -0.3517538922238549 [Eh]
	 Opposite-Spin Energy      =      -1.1430294562854266 [Eh]
	 Correlation Energy        =      -1.4947833485092814 [Eh]
	 Total Energy              =    -342.6502233706402762 [Eh]

	 ================> DF-SCS-MP2 Energies <==================
	-----------------------------------------------------------
	 SCS Same-Spin Scale       =       0.3333333333333333 [-]
	 SCS Opposite-Spin Scale   =       1.2000000000000000 [-]
	 SCS Same-Spin Energy      =      -0.1172512974079516 [Eh]
	 SCS Opposite-Spin Energy  =      -1.3716353475425118 [Eh]
	 SCS Correlation Energy    =      -1.4888866449504634 [Eh]
	 SCS Total Energy          =    -342.6443266670814864 [Eh]
	-----------------------------------------------------------

  Dipole Moment: [D]
     X:     3.0400      Y:    -0.9681      Z:    -0.3168     Total:     3.2061

*** Psi4 exiting successfully. Buy a developer a beer!
