                               Psi4 1.4a3.dev225

  ==> Input File <==

--------------------------------------------------------------------------
#psi4
#
memory 32 gb

molecule  {
0 1
  O       -2.1909590     0.3022110    -0.2104850
  N        0.0851610     0.4390910     0.0952720
  N       -0.9981990    -1.6345430     0.1344100
  C        1.3080130    -0.1567610     0.6181790
  C        2.3349509    -0.5486718    -0.5122900
  C        0.0556740     1.8856370    -0.0391460
  C       -1.1027220    -0.2453970    -0.0205620
  H        1.7650550     0.5724880     1.2977430
  H        1.0430010    -1.0258810     1.2255100
  H        1.8814000    -1.2911440    -1.1469770
  H        2.5641180     0.3366430    -1.0800470
  H        3.2219480    -0.9400230    -0.0411410
  H        0.9206510     2.2208510    -0.6190080
  H        0.0756270     2.3767260     0.9415890
  H       -0.8611500     2.1650270    -0.5546380
  H       -0.1986710    -2.0759730    -0.3046340
  H       -1.8731440    -2.0716480    -0.1344710
units angstrom
no_reorient  #important for SAPT in psi4, default
symmetry c1  #important for SAPT in psi4, default
}

set PROPERTIES_ORIGIN ["COM"]
properties('MP2/aug-cc-pvtz', properties = ['dipole'])
--------------------------------------------------------------------------

    Molecular point group: c1
  Charge       = 0
  Multiplicity = 1
  Basis Set: AUG-CC-PVTZ
    Blend: AUG-CC-PVTZ
  Basis Set: (AUG-CC-PVTZ AUX)
    Blend: AUG-CC-PVTZ-JKFIT

    Orbital Energies [Eh]
    ---------------------

    Doubly Occupied:

       1A    -20.505640     2A    -15.582207     3A    -15.577604
       4A    -11.372392     5A    -11.276112     6A    -11.252873
       7A    -11.230918     8A     -1.379441     9A     -1.248584
      10A     -1.189917    11A     -1.026731    12A     -0.944476
      13A     -0.879794    14A     -0.761920    15A     -0.727148
      16A     -0.683581    17A     -0.637484    18A     -0.631924
      19A     -0.604739    20A     -0.591098    21A     -0.562051
      22A     -0.557956    23A     -0.531253    24A     -0.525919
      25A     -0.510853    26A     -0.440984    27A     -0.417943
      28A     -0.371158

  @DF-RHF Final Energy:  -341.20303571536579

   => Energetics <=

    Nuclear Repulsion Energy =            325.5914981401444948
    One-Electron Energy =               -1109.5436589977707627
    Two-Electron Energy =                 442.7491251422604819
    Total Energy =                       -341.2030357153657860
  Basis Set: (AUG-CC-PVTZ AUX)
    Blend: AUG-CC-PVTZ-RI
    Molecular point group: c1

    Geometry (in Angstrom), charge = 0, multiplicity = 1:

       Center              X                  Y                   Z               Mass
    ------------   -----------------  -----------------  -----------------  -----------------
         O           -2.111874432026     0.306318800792    -0.210332242774    15.994914619570
         N            0.164245567974     0.443198800792     0.095424757226    14.003074004430
         N           -0.919114432026    -1.630435199208     0.134562757226    14.003074004430
         C            1.387097567974    -0.152653199208     0.618331757226    12.000000000000
         C            2.414035467974    -0.544563999208    -0.512137242774    12.000000000000
         C            0.134758567974     1.889744800792    -0.038993242774    12.000000000000
         C           -1.023637432026    -0.241289199208    -0.020409242774    12.000000000000
         H            1.844139567974     0.576595800792     1.297895757226     1.007825032230
         H            1.122085567974    -1.021773199208     1.225662757226     1.007825032230
         H            1.960484567974    -1.287036199208    -1.146824242774     1.007825032230
         H            2.643202567974     0.340750800792    -1.079894242774     1.007825032230
         H            3.301032567974    -0.935915199208    -0.040988242774     1.007825032230
         H            0.999735567974     2.224958800792    -0.618855242774     1.007825032230
         H            0.154711567974     2.380833800792     0.941741757226     1.007825032230
         H           -0.782065432026     2.169134800792    -0.554485242774     1.007825032230
         H           -0.119586432026    -2.071865199208    -0.304481242774     1.007825032230
         H           -1.794059432026    -2.067540199208    -0.134318242774     1.007825032230

  Basis Set: AUG-CC-PVTZ
    Blend: AUG-CC-PVTZ
  Basis Set: (AUG-CC-PVTZ AUX)
    Blend: AUG-CC-PVTZ-JKFIT
	 Reference Energy          =    -341.2030357153657860 [Eh]
	 Singles Energy            =      -0.0000000000000000 [Eh]
	 Same-Spin Energy          =      -0.3487090295713770 [Eh]
	 Opposite-Spin Energy      =      -1.1395874361538183 [Eh]
	 Correlation Energy        =      -1.4882964657251954 [Eh]
	 Total Energy              =    -342.6913321810909565 [Eh]

	 ================> DF-SCS-MP2 Energies <==================
	-----------------------------------------------------------
	 SCS Same-Spin Scale       =       0.3333333333333333 [-]
	 SCS Opposite-Spin Scale   =       1.2000000000000000 [-]
	 SCS Same-Spin Energy      =      -0.1162363431904590 [Eh]
	 SCS Opposite-Spin Energy  =      -1.3675049233845820 [Eh]
	 SCS Correlation Energy    =      -1.4837412665750409 [Eh]
	 SCS Total Energy          =    -342.6867769819408522 [Eh]
	-----------------------------------------------------------

  Dipole Moment: [D]
     X:     3.7905      Y:    -1.1566      Z:    -0.1672     Total:     3.9666

*** Psi4 exiting successfully. Buy a developer a beer!
