                               Psi4 1.4a3.dev225

  ==> Input File <==

--------------------------------------------------------------------------
#psi4
#
memory 32 gb

molecule  {
0 1
  O       -2.1909590     0.3022110    -0.2104850
  N        0.0851610     0.4390910     0.0952720
  N       -0.9981990    -1.6345430     0.1344100
  C        1.3080130    -0.1567610     0.6181790
  C        2.3023860    -0.5362440    -0.4764420
  C        0.0556740     1.8856370    -0.0391460
  C       -1.1027220    -0.2453970    -0.0205620
  H        1.7650550     0.5724880     1.2977430
  H        1.0430010    -1.0258810     1.2255100
  H        1.8814000    -1.2911440    -1.1469770
  H        2.6120079     0.4963578    -1.1904904
  H        3.2219480    -0.9400230    -0.0411410
  H        0.9206510     2.2208510    -0.6190080
  H        0.0756270     2.3767260     0.9415890
  H       -0.8611500     2.1650270    -0.5546380
  H       -0.1986710    -2.0759730    -0.3046340
  H       -1.8731440    -2.0716480    -0.1344710
units angstrom
no_reorient  #important for SAPT in psi4, default
symmetry c1  #important for SAPT in psi4, default
}

set PROPERTIES_ORIGIN ["COM"]
properties('MP2/aug-cc-pvtz', properties = ['dipole'])
--------------------------------------------------------------------------

    Molecular point group: c1
  Charge       = 0
  Multiplicity = 1
  Basis Set: AUG-CC-PVTZ
    Blend: AUG-CC-PVTZ
  Basis Set: (AUG-CC-PVTZ AUX)
    Blend: AUG-CC-PVTZ-JKFIT

    Orbital Energies [Eh]
    ---------------------

    Doubly Occupied:

       1A    -20.506090     2A    -15.582512     3A    -15.578362
       4A    -11.372974     5A    -11.277174     6A    -11.256106
       7A    -11.252336     8A     -1.379955     9A     -1.249959
      10A     -1.190762    11A     -1.029577    12A     -0.943224
      13A     -0.868557    14A     -0.762376    15A     -0.726946
      16A     -0.685351    17A     -0.640529    18A     -0.631176
      19A     -0.604250    20A     -0.579449    21A     -0.561456
      22A     -0.555984    23A     -0.533419    24A     -0.526432
      25A     -0.485806    26A     -0.441494    27A     -0.418438
      28A     -0.374051

  @DF-RHF Final Energy:  -341.18482419176644

   => Energetics <=

    Nuclear Repulsion Energy =            325.5912501976816884
    One-Electron Energy =               -1109.5226602415705202
    Two-Electron Energy =                 442.7465858521223936
    Total Energy =                       -341.1848241917664382
  Basis Set: (AUG-CC-PVTZ AUX)
    Blend: AUG-CC-PVTZ-RI
    Molecular point group: c1

    Geometry (in Angstrom), charge = 0, multiplicity = 1:

       Center              X                  Y                   Z               Mass
    ------------   -----------------  -----------------  -----------------  -----------------
         O           -2.108519059130     0.303280984760    -0.213455974386    15.994914619570
         N            0.167600940870     0.440160984760     0.092301025614    14.003074004430
         N           -0.915759059130    -1.633473015240     0.131439025614    14.003074004430
         C            1.390452940870    -0.155691015240     0.615208025614    12.000000000000
         C            2.384825940870    -0.535174015240    -0.479412974386    12.000000000000
         C            0.138113940870     1.886706984760    -0.042116974386    12.000000000000
         C           -1.020282059130    -0.244327015240    -0.023532974386    12.000000000000
         H            1.847494940870     0.573557984760     1.294772025614     1.007825032230
         H            1.125440940870    -1.024811015240     1.222539025614     1.007825032230
         H            1.963839940870    -1.290074015240    -1.149947974386     1.007825032230
         H            2.694447840870     0.497427784760    -1.193461374386     1.007825032230
         H            3.304387940870    -0.938953015240    -0.044111974386     1.007825032230
         H            1.003090940870     2.221920984760    -0.621978974386     1.007825032230
         H            0.158066940870     2.377795984760     0.938618025614     1.007825032230
         H           -0.778710059130     2.166096984760    -0.557608974386     1.007825032230
         H           -0.116231059130    -2.074903015240    -0.307604974386     1.007825032230
         H           -1.790704059130    -2.070578015240    -0.137441974386     1.007825032230

  Basis Set: AUG-CC-PVTZ
    Blend: AUG-CC-PVTZ
  Basis Set: (AUG-CC-PVTZ AUX)
    Blend: AUG-CC-PVTZ-JKFIT
	 Reference Energy          =    -341.1848241917664382 [Eh]
	 Singles Energy            =      -0.0000000000000000 [Eh]
	 Same-Spin Energy          =      -0.3488929636874715 [Eh]
	 Opposite-Spin Energy      =      -1.1411859132598470 [Eh]
	 Correlation Energy        =      -1.4900788769473183 [Eh]
	 Total Energy              =    -342.6749030687137747 [Eh]

	 ================> DF-SCS-MP2 Energies <==================
	-----------------------------------------------------------
	 SCS Same-Spin Scale       =       0.3333333333333333 [-]
	 SCS Opposite-Spin Scale   =       1.2000000000000000 [-]
	 SCS Same-Spin Energy      =      -0.1162976545624905 [Eh]
	 SCS Opposite-Spin Energy  =      -1.3694230959118163 [Eh]
	 SCS Correlation Energy    =      -1.4857207504743069 [Eh]
	 SCS Total Energy          =    -342.6705449422407241 [Eh]
	-----------------------------------------------------------

  Dipole Moment: [D]
     X:     3.7536      Y:    -1.2489      Z:    -0.0942     Total:     3.9570

*** Psi4 exiting successfully. Buy a developer a beer!
