                               Psi4 1.4a3.dev225

  ==> Input File <==

--------------------------------------------------------------------------
#psi4
#
memory 32 gb

molecule  {
0 1
  O       -2.1909590     0.3022110    -0.2104850
  N        0.0851610     0.4390910     0.0952720
  N       -0.9981990    -1.6345430     0.1344100
  C        1.3080130    -0.1567610     0.6181790
  C        2.3023860    -0.5362440    -0.4764420
  C        0.0536447     1.9851875    -0.0483966
  C       -1.1027220    -0.2453970    -0.0205620
  H        1.7650550     0.5724880     1.2977430
  H        1.0430010    -1.0258810     1.2255100
  H        1.8814000    -1.2911440    -1.1469770
  H        2.5641180     0.3366430    -1.0800470
  H        3.2219480    -0.9400230    -0.0411410
  H        0.9206510     2.2208510    -0.6190080
  H        0.0756270     2.3767260     0.9415890
  H       -0.8611500     2.1650270    -0.5546380
  H       -0.1986710    -2.0759730    -0.3046340
  H       -1.8731440    -2.0716480    -0.1344710
units angstrom
no_reorient  #important for SAPT in psi4, default
symmetry c1  #important for SAPT in psi4, default
}

set PROPERTIES_ORIGIN ["COM"]
properties('MP2/aug-cc-pvtz', properties = ['dipole'])
--------------------------------------------------------------------------

    Molecular point group: c1
  Charge       = 0
  Multiplicity = 1
  Basis Set: AUG-CC-PVTZ
    Blend: AUG-CC-PVTZ
  Basis Set: (AUG-CC-PVTZ AUX)
    Blend: AUG-CC-PVTZ-JKFIT

    Orbital Energies [Eh]
    ---------------------

    Doubly Occupied:

       1A    -20.502289     2A    -15.578409     3A    -15.574838
       4A    -11.368931     5A    -11.271752     6A    -11.255923
       7A    -11.231374     8A     -1.374537     9A     -1.236094
      10A     -1.182415    11A     -1.028452    12A     -0.949731
      13A     -0.871990    14A     -0.758415    15A     -0.721880
      16A     -0.679299    17A     -0.637659    18A     -0.629773
      19A     -0.603205    20A     -0.578273    21A     -0.570651
      22A     -0.563310    23A     -0.537655    24A     -0.526588
      25A     -0.499914    26A     -0.438465    27A     -0.415079
      28A     -0.372492

  @DF-RHF Final Energy:  -341.19701678266085

   => Energetics <=

    Nuclear Repulsion Energy =            324.4560139104707446
    One-Electron Energy =               -1107.3872761261866344
    Two-Electron Energy =                 441.7342454330549799
    Total Energy =                       -341.1970167826608531
  Basis Set: (AUG-CC-PVTZ AUX)
    Blend: AUG-CC-PVTZ-RI
    Molecular point group: c1

    Geometry (in Angstrom), charge = 0, multiplicity = 1:

       Center              X                  Y                   Z               Mass
    ------------   -----------------  -----------------  -----------------  -----------------
         O           -2.107807688354     0.293155118934    -0.213458917423    15.994914619570
         N            0.168312311646     0.430035118934     0.092298082577    14.003074004430
         N           -0.915047688354    -1.643598881066     0.131436082577    14.003074004430
         C            1.391164311646    -0.165816881066     0.615205082577    12.000000000000
         C            2.385537311646    -0.545299881066    -0.479415917423    12.000000000000
         C            0.136796011646     1.976131618934    -0.051370517423    12.000000000000
         C           -1.019570688354    -0.254452881066    -0.023535917423    12.000000000000
         H            1.848206311646     0.563432118934     1.294769082577     1.007825032230
         H            1.126152311646    -1.034936881066     1.222536082577     1.007825032230
         H            1.964551311646    -1.300199881066    -1.149950917423     1.007825032230
         H            2.647269311646     0.327587118934    -1.083020917423     1.007825032230
         H            3.305099311646    -0.949078881066    -0.044114917423     1.007825032230
         H            1.003802311646     2.211795118934    -0.621981917423     1.007825032230
         H            0.158778311646     2.367670118934     0.938615082577     1.007825032230
         H           -0.777998688354     2.155971118934    -0.557611917423     1.007825032230
         H           -0.115519688354    -2.085028881066    -0.307607917423     1.007825032230
         H           -1.789992688354    -2.080703881066    -0.137444917423     1.007825032230

  Basis Set: AUG-CC-PVTZ
    Blend: AUG-CC-PVTZ
  Basis Set: (AUG-CC-PVTZ AUX)
    Blend: AUG-CC-PVTZ-JKFIT
	 Reference Energy          =    -341.1970167826608531 [Eh]
	 Singles Energy            =      -0.0000000000000000 [Eh]
	 Same-Spin Energy          =      -0.3485437569482401 [Eh]
	 Opposite-Spin Energy      =      -1.1399976611953915 [Eh]
	 Correlation Energy        =      -1.4885414181436316 [Eh]
	 Total Energy              =    -342.6855582008045076 [Eh]

	 ================> DF-SCS-MP2 Energies <==================
	-----------------------------------------------------------
	 SCS Same-Spin Scale       =       0.3333333333333333 [-]
	 SCS Opposite-Spin Scale   =       1.2000000000000000 [-]
	 SCS Same-Spin Energy      =      -0.1161812523160800 [Eh]
	 SCS Opposite-Spin Energy  =      -1.3679971934344697 [Eh]
	 SCS Correlation Energy    =      -1.4841784457505498 [Eh]
	 SCS Total Energy          =    -342.6811952284114113 [Eh]
	-----------------------------------------------------------

  Dipole Moment: [D]
     X:     3.8667      Y:    -0.8979      Z:    -0.1637     Total:     3.9730

*** Psi4 exiting successfully. Buy a developer a beer!
