                               Psi4 1.4a3.dev225

  ==> Input File <==

--------------------------------------------------------------------------
#psi4
#
memory 32 gb

molecule  {
0 1
  O       -2.1909590     0.3022110    -0.2104850
  N        0.0851610     0.4390910     0.0952720
  N       -0.9981990    -1.6345430     0.1344100
  C        1.3091481    -0.1065042     0.6004899
  C        2.3023860    -0.5362440    -0.4764420
  C        0.0556740     1.8856370    -0.0391460
  C       -1.1027220    -0.2453970    -0.0205620
  H        1.7650550     0.5724880     1.2977430
  H        1.0430010    -1.0258810     1.2255100
  H        1.8814000    -1.2911440    -1.1469770
  H        2.5641180     0.3366430    -1.0800470
  H        3.2219480    -0.9400230    -0.0411410
  H        0.9206510     2.2208510    -0.6190080
  H        0.0756270     2.3767260     0.9415890
  H       -0.8611500     2.1650270    -0.5546380
  H       -0.1986710    -2.0759730    -0.3046340
  H       -1.8731440    -2.0716480    -0.1344710
units angstrom
no_reorient  #important for SAPT in psi4, default
symmetry c1  #important for SAPT in psi4, default
}

set PROPERTIES_ORIGIN ["COM"]
properties('MP2/aug-cc-pvtz', properties = ['dipole'])
--------------------------------------------------------------------------

    Molecular point group: c1
  Charge       = 0
  Multiplicity = 1
  Basis Set: AUG-CC-PVTZ
    Blend: AUG-CC-PVTZ
  Basis Set: (AUG-CC-PVTZ AUX)
    Blend: AUG-CC-PVTZ-JKFIT

    Orbital Energies [Eh]
    ---------------------

    Doubly Occupied:

       1A    -20.507119     2A    -15.582827     3A    -15.577974
       4A    -11.374501     5A    -11.274516     6A    -11.252898
       7A    -11.232380     8A     -1.381103     9A     -1.254464
      10A     -1.191569    11A     -1.032553    12A     -0.945307
      13A     -0.878921    14A     -0.762756    15A     -0.726645
      16A     -0.688117    17A     -0.642479    18A     -0.633396
      19A     -0.605256    20A     -0.587349    21A     -0.561029
      22A     -0.557724    23A     -0.535889    24A     -0.530131
      25A     -0.495240    26A     -0.442344    27A     -0.418374
      28A     -0.373779

  @DF-RHF Final Energy:  -341.20132069549220

   => Energetics <=

    Nuclear Repulsion Energy =            326.6414045408305356
    One-Electron Energy =               -1111.5921716614852812
    Two-Electron Energy =                 443.7494464251625459
    Total Energy =                       -341.2013206954921998
  Basis Set: (AUG-CC-PVTZ AUX)
    Blend: AUG-CC-PVTZ-RI
    Molecular point group: c1

    Geometry (in Angstrom), charge = 0, multiplicity = 1:

       Center              X                  Y                   Z               Mass
    ------------   -----------------  -----------------  -----------------  -----------------
         O           -2.108179681454     0.298949871885    -0.212466924069    15.994914619570
         N            0.167940318546     0.435829871885     0.093290075931    14.003074004430
         N           -0.915419681454    -1.637804128115     0.132428075931    14.003074004430
         C            1.391927418546    -0.109765328115     0.598507975931    12.000000000000
         C            2.385165318546    -0.539505128115    -0.478423924069    12.000000000000
         C            0.138453318546     1.882375871885    -0.041127924069    12.000000000000
         C           -1.019942681454    -0.248658128115    -0.022543924069    12.000000000000
         H            1.847834318546     0.569226871885     1.295761075931     1.007825032230
         H            1.125780318546    -1.029142128115     1.223528075931     1.007825032230
         H            1.964179318546    -1.294405128115    -1.148958924069     1.007825032230
         H            2.646897318546     0.333381871885    -1.082028924069     1.007825032230
         H            3.304727318546    -0.943284128115    -0.043122924069     1.007825032230
         H            1.003430318546     2.217589871885    -0.620989924069     1.007825032230
         H            0.158406318546     2.373464871885     0.939607075931     1.007825032230
         H           -0.778370681454     2.161765871885    -0.556619924069     1.007825032230
         H           -0.115891681454    -2.079234128115    -0.306615924069     1.007825032230
         H           -1.790364681454    -2.074909128115    -0.136452924069     1.007825032230

  Basis Set: AUG-CC-PVTZ
    Blend: AUG-CC-PVTZ
  Basis Set: (AUG-CC-PVTZ AUX)
    Blend: AUG-CC-PVTZ-JKFIT
	 Reference Energy          =    -341.2013206954921998 [Eh]
	 Singles Energy            =      -0.0000000000000000 [Eh]
	 Same-Spin Energy          =      -0.3492081417022048 [Eh]
	 Opposite-Spin Energy      =      -1.1400216649714083 [Eh]
	 Correlation Energy        =      -1.4892298066736132 [Eh]
	 Total Energy              =    -342.6905505021658200 [Eh]

	 ================> DF-SCS-MP2 Energies <==================
	-----------------------------------------------------------
	 SCS Same-Spin Scale       =       0.3333333333333333 [-]
	 SCS Opposite-Spin Scale   =       1.2000000000000000 [-]
	 SCS Same-Spin Energy      =      -0.1164027139007349 [Eh]
	 SCS Opposite-Spin Energy  =      -1.3680259979656899 [Eh]
	 SCS Correlation Energy    =      -1.4844287118664248 [Eh]
	 SCS Total Energy          =    -342.6857494073586281 [Eh]
	-----------------------------------------------------------

  Dipole Moment: [D]
     X:     3.7519      Y:    -1.1331      Z:    -0.2014     Total:     3.9244

*** Psi4 exiting successfully. Buy a developer a beer!
