                               Psi4 1.4a3.dev225

  ==> Input File <==

--------------------------------------------------------------------------
#psi4
#
memory 32 gb

molecule  {
0 1
  O       -2.1909590     0.3022110    -0.2104850
  N        0.0851610     0.4390910     0.0952720
  N       -0.9981990    -1.6345430     0.1344100
  C        1.3080130    -0.1567610     0.6181790
  C        2.2893600    -0.5312729    -0.4621028
  C        0.0556740     1.8856370    -0.0391460
  C       -1.1027220    -0.2453970    -0.0205620
  H        1.7650550     0.5724880     1.2977430
  H        1.0430010    -1.0258810     1.2255100
  H        1.8814000    -1.2911440    -1.1469770
  H        2.5641180     0.3366430    -1.0800470
  H        3.2219480    -0.9400230    -0.0411410
  H        0.9206510     2.2208510    -0.6190080
  H        0.0756270     2.3767260     0.9415890
  H       -0.8611500     2.1650270    -0.5546380
  H       -0.1986710    -2.0759730    -0.3046340
  H       -1.8731440    -2.0716480    -0.1344710
units angstrom
no_reorient  #important for SAPT in psi4, default
symmetry c1  #important for SAPT in psi4, default
}

set PROPERTIES_ORIGIN ["COM"]
properties('MP2/aug-cc-pvtz', properties = ['dipole'])
--------------------------------------------------------------------------

    Molecular point group: c1
  Charge       = 0
  Multiplicity = 1
  Basis Set: AUG-CC-PVTZ
    Blend: AUG-CC-PVTZ
  Basis Set: (AUG-CC-PVTZ AUX)
    Blend: AUG-CC-PVTZ-JKFIT

    Orbital Energies [Eh]
    ---------------------

    Doubly Occupied:

       1A    -20.505607     2A    -15.581815     3A    -15.577490
       4A    -11.372420     5A    -11.273503     6A    -11.252796
       7A    -11.234068     8A     -1.379472     9A     -1.249806
      10A     -1.190120    11A     -1.036913    12A     -0.944207
      13A     -0.874723    14A     -0.762501    15A     -0.728042
      16A     -0.684929    17A     -0.640918    18A     -0.633335
      19A     -0.603860    20A     -0.588131    21A     -0.561011
      22A     -0.556807    23A     -0.540171    24A     -0.522983
      25A     -0.502898    26A     -0.440961    27A     -0.417803
      28A     -0.374014

  @DF-RHF Final Energy:  -341.20426457560762

   => Energetics <=

    Nuclear Repulsion Energy =            326.6148660841316769
    One-Electron Energy =               -1111.5756512676634884
    Two-Electron Energy =                 443.7565206079241875
    Total Energy =                       -341.2042645756076240
  Basis Set: (AUG-CC-PVTZ AUX)
    Blend: AUG-CC-PVTZ-RI
    Molecular point group: c1

    Geometry (in Angstrom), charge = 0, multiplicity = 1:

       Center              X                  Y                   Z               Mass
    ------------   -----------------  -----------------  -----------------  -----------------
         O           -2.106514964136     0.304273461791    -0.216232031699    15.994914619570
         N            0.169605035864     0.441153461791     0.089524968301    14.003074004430
         N           -0.913754964136    -1.632480538209     0.128662968301    14.003074004430
         C            1.392457035864    -0.154698538209     0.612431968301    12.000000000000
         C            2.373804035864    -0.529210438209    -0.467849831699    12.000000000000
         C            0.140118035864     1.887699461791    -0.044893031699    12.000000000000
         C           -1.018277964136    -0.243334538209    -0.026309031699    12.000000000000
         H            1.849499035864     0.574550461791     1.291995968301     1.007825032230
         H            1.127445035864    -1.023818538209     1.219762968301     1.007825032230
         H            1.965844035864    -1.289081538209    -1.152724031699     1.007825032230
         H            2.648562035864     0.338705461791    -1.085794031699     1.007825032230
         H            3.306392035864    -0.937960538209    -0.046888031699     1.007825032230
         H            1.005095035864     2.222913461791    -0.624755031699     1.007825032230
         H            0.160071035864     2.378788461791     0.935841968301     1.007825032230
         H           -0.776705964136     2.167089461791    -0.560385031699     1.007825032230
         H           -0.114226964136    -2.073910538209    -0.310381031699     1.007825032230
         H           -1.788699964136    -2.069585538209    -0.140218031699     1.007825032230

  Basis Set: AUG-CC-PVTZ
    Blend: AUG-CC-PVTZ
  Basis Set: (AUG-CC-PVTZ AUX)
    Blend: AUG-CC-PVTZ-JKFIT
	 Reference Energy          =    -341.2042645756076240 [Eh]
	 Singles Energy            =      -0.0000000000000000 [Eh]
	 Same-Spin Energy          =      -0.3490292855853917 [Eh]
	 Opposite-Spin Energy      =      -1.1397276885217846 [Eh]
	 Correlation Energy        =      -1.4887569741071762 [Eh]
	 Total Energy              =    -342.6930215497147856 [Eh]

	 ================> DF-SCS-MP2 Energies <==================
	-----------------------------------------------------------
	 SCS Same-Spin Scale       =       0.3333333333333333 [-]
	 SCS Opposite-Spin Scale   =       1.2000000000000000 [-]
	 SCS Same-Spin Energy      =      -0.1163430951951306 [Eh]
	 SCS Opposite-Spin Energy  =      -1.3676732262261415 [Eh]
	 SCS Correlation Energy    =      -1.4840163214212720 [Eh]
	 SCS Total Energy          =    -342.6882808970289034 [Eh]
	-----------------------------------------------------------

  Dipole Moment: [D]
     X:     3.8229      Y:    -1.1669      Z:    -0.1821     Total:     4.0012

*** Psi4 exiting successfully. Buy a developer a beer!
