                               Psi4 1.4a3.dev225

  ==> Input File <==

--------------------------------------------------------------------------
#psi4
#
memory 32 gb

molecule  {
0 1
  O       -2.1909590     0.3022110    -0.2104850
  N        0.0851610     0.4390910     0.0952720
  N       -0.9981990    -1.6345430     0.1344100
  C        1.3811665    -0.0891251     0.6559977
  C        2.3023860    -0.5362440    -0.4764420
  C        0.0556740     1.8856370    -0.0391460
  C       -1.1027220    -0.2453970    -0.0205620
  H        1.7650550     0.5724880     1.2977430
  H        1.0430010    -1.0258810     1.2255100
  H        1.8814000    -1.2911440    -1.1469770
  H        2.5641180     0.3366430    -1.0800470
  H        3.2219480    -0.9400230    -0.0411410
  H        0.9206510     2.2208510    -0.6190080
  H        0.0756270     2.3767260     0.9415890
  H       -0.8611500     2.1650270    -0.5546380
  H       -0.1986710    -2.0759730    -0.3046340
  H       -1.8731440    -2.0716480    -0.1344710
units angstrom
no_reorient  #important for SAPT in psi4, default
symmetry c1  #important for SAPT in psi4, default
}

set PROPERTIES_ORIGIN ["COM"]
properties('MP2/aug-cc-pvtz', properties = ['dipole'])
--------------------------------------------------------------------------

    Molecular point group: c1
  Charge       = 0
  Multiplicity = 1
  Basis Set: AUG-CC-PVTZ
    Blend: AUG-CC-PVTZ
  Basis Set: (AUG-CC-PVTZ AUX)
    Blend: AUG-CC-PVTZ-JKFIT

    Orbital Energies [Eh]
    ---------------------

    Doubly Occupied:

       1A    -20.504714     2A    -15.579628     3A    -15.576323
       4A    -11.372080     5A    -11.276210     6A    -11.249795
       7A    -11.235572     8A     -1.377350     9A     -1.240229
      10A     -1.187674    11A     -1.036653    12A     -0.939597
      13A     -0.881005    14A     -0.761382    15A     -0.720343
      16A     -0.686455    17A     -0.640636    18A     -0.635174
      19A     -0.605266    20A     -0.585576    21A     -0.557251
      22A     -0.556500    23A     -0.551445    24A     -0.520851
      25A     -0.494612    26A     -0.439668    27A     -0.417843
      28A     -0.372138

  @DF-RHF Final Energy:  -341.19054729740071

   => Energetics <=

    Nuclear Repulsion Energy =            325.2614794599792845
    One-Electron Energy =               -1108.9001136800923177
    Two-Electron Energy =                 442.4480869227123776
    Total Energy =                       -341.1905472974007125
  Basis Set: (AUG-CC-PVTZ AUX)
    Blend: AUG-CC-PVTZ-RI
    Molecular point group: c1

    Geometry (in Angstrom), charge = 0, multiplicity = 1:

       Center              X                  Y                   Z               Mass
    ------------   -----------------  -----------------  -----------------  -----------------
         O           -2.116645851288     0.296906860486    -0.218992179586    15.994914619570
         N            0.159474148712     0.433786860486     0.086764820414    14.003074004430
         N           -0.923885851288    -1.639847139514     0.125902820414    14.003074004430
         C            1.455479648712    -0.094429239514     0.647490520414    12.000000000000
         C            2.376699148712    -0.541548139514    -0.484949179586    12.000000000000
         C            0.129987148712     1.880332860486    -0.047653179586    12.000000000000
         C           -1.028408851288    -0.250701139514    -0.029069179586    12.000000000000
         H            1.839368148712     0.567183860486     1.289235820414     1.007825032230
         H            1.117314148712    -1.031185139514     1.217002820414     1.007825032230
         H            1.955713148712    -1.296448139514    -1.155484179586     1.007825032230
         H            2.638431148712     0.331338860486    -1.088554179586     1.007825032230
         H            3.296261148712    -0.945327139514    -0.049648179586     1.007825032230
         H            0.994964148712     2.215546860486    -0.627515179586     1.007825032230
         H            0.149940148712     2.371421860486     0.933081820414     1.007825032230
         H           -0.786836851288     2.159722860486    -0.563145179586     1.007825032230
         H           -0.124357851288    -2.081277139514    -0.313141179586     1.007825032230
         H           -1.798830851288    -2.076952139514    -0.142978179586     1.007825032230

  Basis Set: AUG-CC-PVTZ
    Blend: AUG-CC-PVTZ
  Basis Set: (AUG-CC-PVTZ AUX)
    Blend: AUG-CC-PVTZ-JKFIT
	 Reference Energy          =    -341.1905472974007125 [Eh]
	 Singles Energy            =      -0.0000000000000000 [Eh]
	 Same-Spin Energy          =      -0.3488936711009523 [Eh]
	 Opposite-Spin Energy      =      -1.1403759079443558 [Eh]
	 Correlation Energy        =      -1.4892695790453081 [Eh]
	 Total Energy              =    -342.6798168764460115 [Eh]

	 ================> DF-SCS-MP2 Energies <==================
	-----------------------------------------------------------
	 SCS Same-Spin Scale       =       0.3333333333333333 [-]
	 SCS Opposite-Spin Scale   =       1.2000000000000000 [-]
	 SCS Same-Spin Energy      =      -0.1162978903669841 [Eh]
	 SCS Opposite-Spin Energy  =      -1.3684510895332269 [Eh]
	 SCS Correlation Energy    =      -1.4847489799002109 [Eh]
	 SCS Total Energy          =    -342.6752962773009017 [Eh]
	-----------------------------------------------------------

  Dipole Moment: [D]
     X:     3.9569      Y:    -1.1728      Z:    -0.1349     Total:     4.1293

*** Psi4 exiting successfully. Buy a developer a beer!
