                               Psi4 1.4a3.dev225

  ==> Input File <==

--------------------------------------------------------------------------
#psi4
#
memory 32 gb

molecule  {
0 1
  O       -2.1909590     0.3022110    -0.2104850
  N        0.0851610     0.4390910     0.0952720
  N       -0.9981990    -1.6345430     0.1344100
  C        1.2912310    -0.1485837     0.6110028
  C        2.3023860    -0.5362440    -0.4764420
  C        0.0556740     1.8856370    -0.0391460
  C       -1.1027220    -0.2453970    -0.0205620
  H        1.7650550     0.5724880     1.2977430
  H        1.0430010    -1.0258810     1.2255100
  H        1.8814000    -1.2911440    -1.1469770
  H        2.5641180     0.3366430    -1.0800470
  H        3.2219480    -0.9400230    -0.0411410
  H        0.9206510     2.2208510    -0.6190080
  H        0.0756270     2.3767260     0.9415890
  H       -0.8611500     2.1650270    -0.5546380
  H       -0.1986710    -2.0759730    -0.3046340
  H       -1.8731440    -2.0716480    -0.1344710
units angstrom
no_reorient  #important for SAPT in psi4, default
symmetry c1  #important for SAPT in psi4, default
}

set PROPERTIES_ORIGIN ["COM"]
properties('MP2/aug-cc-pvtz', properties = ['dipole'])
--------------------------------------------------------------------------

    Molecular point group: c1
  Charge       = 0
  Multiplicity = 1
  Basis Set: AUG-CC-PVTZ
    Blend: AUG-CC-PVTZ
  Basis Set: (AUG-CC-PVTZ AUX)
    Blend: AUG-CC-PVTZ-JKFIT

    Orbital Energies [Eh]
    ---------------------

    Doubly Occupied:

       1A    -20.506462     2A    -15.582716     3A    -15.578019
       4A    -11.373331     5A    -11.273923     6A    -11.253496
       7A    -11.232448     8A     -1.380638     9A     -1.253433
      10A     -1.191185    11A     -1.031454    12A     -0.945681
      13A     -0.877133    14A     -0.763031    15A     -0.728986
      16A     -0.686017    17A     -0.641241    18A     -0.632203
      19A     -0.603993    20A     -0.588727    21A     -0.560773
      22A     -0.557829    23A     -0.534222    24A     -0.527459
      25A     -0.503695    26A     -0.441783    27A     -0.418193
      28A     -0.373286

  @DF-RHF Final Energy:  -341.20440997831167

   => Energetics <=

    Nuclear Repulsion Energy =            326.6151128111998219
    One-Electron Energy =               -1111.5563318635895484
    Two-Electron Energy =                 443.7368090740779962
    Total Energy =                       -341.2044099783116735
  Basis Set: (AUG-CC-PVTZ AUX)
    Blend: AUG-CC-PVTZ-RI
    Molecular point group: c1

    Geometry (in Angstrom), charge = 0, multiplicity = 1:

       Center              X                  Y                   Z               Mass
    ------------   -----------------  -----------------  -----------------  -----------------
         O           -2.106073425114     0.303896554865    -0.213702774864    15.994914619570
         N            0.170046574886     0.440776554865     0.092054225136    14.003074004430
         N           -0.913313425114    -1.632857445135     0.131192225136    14.003074004430
         C            1.376116574886    -0.146898145135     0.607785025136    12.000000000000
         C            2.387271574886    -0.534558445135    -0.479659774864    12.000000000000
         C            0.140559574886     1.887322554865    -0.042363774864    12.000000000000
         C           -1.017836425114    -0.243711445135    -0.023779774864    12.000000000000
         H            1.849940574886     0.574173554865     1.294525225136     1.007825032230
         H            1.127886574886    -1.024195445135     1.222292225136     1.007825032230
         H            1.966285574886    -1.289458445135    -1.150194774864     1.007825032230
         H            2.649003574886     0.338328554865    -1.083264774864     1.007825032230
         H            3.306833574886    -0.938337445135    -0.044358774864     1.007825032230
         H            1.005536574886     2.222536554865    -0.622225774864     1.007825032230
         H            0.160512574886     2.378411554865     0.938371225136     1.007825032230
         H           -0.776264425114     2.166712554865    -0.557855774864     1.007825032230
         H           -0.113785425114    -2.074287445135    -0.307851774864     1.007825032230
         H           -1.788258425114    -2.069962445135    -0.137688774864     1.007825032230

  Basis Set: AUG-CC-PVTZ
    Blend: AUG-CC-PVTZ
  Basis Set: (AUG-CC-PVTZ AUX)
    Blend: AUG-CC-PVTZ-JKFIT
	 Reference Energy          =    -341.2044099783116735 [Eh]
	 Singles Energy            =      -0.0000000000000000 [Eh]
	 Same-Spin Energy          =      -0.3490132991268410 [Eh]
	 Opposite-Spin Energy      =      -1.1396768227583287 [Eh]
	 Correlation Energy        =      -1.4886901218851696 [Eh]
	 Total Energy              =    -342.6931001001968298 [Eh]

	 ================> DF-SCS-MP2 Energies <==================
	-----------------------------------------------------------
	 SCS Same-Spin Scale       =       0.3333333333333333 [-]
	 SCS Opposite-Spin Scale   =       1.2000000000000000 [-]
	 SCS Same-Spin Energy      =      -0.1163377663756137 [Eh]
	 SCS Opposite-Spin Energy  =      -1.3676121873099945 [Eh]
	 SCS Correlation Energy    =      -1.4839499536856080 [Eh]
	 SCS Total Energy          =    -342.6883599319972973 [Eh]
	-----------------------------------------------------------

  Dipole Moment: [D]
     X:     3.7496      Y:    -1.1476      Z:    -0.1890     Total:     3.9258

*** Psi4 exiting successfully. Buy a developer a beer!
