                               Psi4 1.4a3.dev225

  ==> Input File <==

--------------------------------------------------------------------------
#psi4
#
memory 32 gb

molecule  {
0 1
  O       -2.1909590     0.3022110    -0.2104850
  N        0.0851610     0.4390910     0.0952720
  N       -0.9981990    -1.6345430     0.1344100
  C        1.3080130    -0.1567610     0.6181790
  C        2.3023860    -0.5362440    -0.4764420
  C        0.0556740     1.8856370    -0.0391460
  C       -1.1027220    -0.2453970    -0.0205620
  H        1.7650550     0.5724880     1.2977430
  H        1.0308769    -1.0656427     1.2532950
  H        1.8814000    -1.2911440    -1.1469770
  H        2.5641180     0.3366430    -1.0800470
  H        3.2219480    -0.9400230    -0.0411410
  H        0.9206510     2.2208510    -0.6190080
  H        0.0756270     2.3767260     0.9415890
  H       -0.8611500     2.1650270    -0.5546380
  H       -0.1986710    -2.0759730    -0.3046340
  H       -1.8731440    -2.0716480    -0.1344710
units angstrom
no_reorient  #important for SAPT in psi4, default
symmetry c1  #important for SAPT in psi4, default
}

set PROPERTIES_ORIGIN ["COM"]
properties('MP2/aug-cc-pvtz', properties = ['dipole'])
--------------------------------------------------------------------------

    Molecular point group: c1
  Charge       = 0
  Multiplicity = 1
  Basis Set: AUG-CC-PVTZ
    Blend: AUG-CC-PVTZ
  Basis Set: (AUG-CC-PVTZ AUX)
    Blend: AUG-CC-PVTZ-JKFIT

    Orbital Energies [Eh]
    ---------------------

    Doubly Occupied:

       1A    -20.505699     2A    -15.582420     3A    -15.577351
       4A    -11.372489     5A    -11.279826     6A    -11.253182
       7A    -11.233425     8A     -1.379529     9A     -1.249328
      10A     -1.189992    11A     -1.032161    12A     -0.944378
      13A     -0.874284    14A     -0.761018    15A     -0.725472
      16A     -0.684052    17A     -0.640028    18A     -0.630939
      19A     -0.603940    20A     -0.588376    21A     -0.560486
      22A     -0.557316    23A     -0.536096    24A     -0.525778
      25A     -0.501158    26A     -0.441038    27A     -0.417482
      28A     -0.373386

  @DF-RHF Final Energy:  -341.20248959132641

   => Energetics <=

    Nuclear Repulsion Energy =            326.0984733367093327
    One-Electron Energy =               -1110.5606661901365442
    Two-Electron Energy =                 443.2597032621008566
    Total Energy =                       -341.2024895913264118
  Basis Set: (AUG-CC-PVTZ AUX)
    Blend: AUG-CC-PVTZ-RI
    Molecular point group: c1

    Geometry (in Angstrom), charge = 0, multiplicity = 1:

       Center              X                  Y                   Z               Mass
    ------------   -----------------  -----------------  -----------------  -----------------
         O           -2.107926543274     0.305250408380    -0.214820697930    15.994914619570
         N            0.168193456726     0.442130408380     0.090936302070    14.003074004430
         N           -0.915166543274    -1.631503591620     0.130074302070    14.003074004430
         C            1.391045456726    -0.153721591620     0.613843302070    12.000000000000
         C            2.385418456726    -0.533204591620    -0.480777697930    12.000000000000
         C            0.138706456726     1.888676408380    -0.043481697930    12.000000000000
         C           -1.019689543274    -0.242357591620    -0.024897697930    12.000000000000
         H            1.848087456726     0.575527408380     1.293407302070     1.007825032230
         H            1.113909356726    -1.062603291620     1.248959302070     1.007825032230
         H            1.964432456726    -1.288104591620    -1.151312697930     1.007825032230
         H            2.647150456726     0.339682408380    -1.084382697930     1.007825032230
         H            3.304980456726    -0.936983591620    -0.045476697930     1.007825032230
         H            1.003683456726     2.223890408380    -0.623343697930     1.007825032230
         H            0.158659456726     2.379765408380     0.937253302070     1.007825032230
         H           -0.778117543274     2.168066408380    -0.558973697930     1.007825032230
         H           -0.115638543274    -2.072933591620    -0.308969697930     1.007825032230
         H           -1.790111543274    -2.068608591620    -0.138806697930     1.007825032230

  Basis Set: AUG-CC-PVTZ
    Blend: AUG-CC-PVTZ
  Basis Set: (AUG-CC-PVTZ AUX)
    Blend: AUG-CC-PVTZ-JKFIT
	 Reference Energy          =    -341.2024895913264118 [Eh]
	 Singles Energy            =      -0.0000000000000000 [Eh]
	 Same-Spin Energy          =      -0.3490242796812295 [Eh]
	 Opposite-Spin Energy      =      -1.1400921697937938 [Eh]
	 Correlation Energy        =      -1.4891164494750233 [Eh]
	 Total Energy              =    -342.6916060408014459 [Eh]

	 ================> DF-SCS-MP2 Energies <==================
	-----------------------------------------------------------
	 SCS Same-Spin Scale       =       0.3333333333333333 [-]
	 SCS Opposite-Spin Scale   =       1.2000000000000000 [-]
	 SCS Same-Spin Energy      =      -0.1163414265604098 [Eh]
	 SCS Opposite-Spin Energy  =      -1.3681106037525526 [Eh]
	 SCS Correlation Energy    =      -1.4844520303129625 [Eh]
	 SCS Total Energy          =    -342.6869416216393915 [Eh]
	-----------------------------------------------------------

  Dipole Moment: [D]
     X:     3.8074      Y:    -1.1514      Z:    -0.1958     Total:     3.9826

*** Psi4 exiting successfully. Buy a developer a beer!
