                               Psi4 1.4a3.dev225

  ==> Input File <==

--------------------------------------------------------------------------
#psi4
#
memory 32 gb

molecule  {
0 1
  O       -2.1909590     0.3022110    -0.2104850
  N        0.0851610     0.4390910     0.0952720
  N       -0.9981990    -1.6345430     0.1344100
  C        1.3080130    -0.1567610     0.6181790
  C        2.3023860    -0.5362440    -0.4764420
  C       -0.0444921     1.8787078    -0.0534784
  C       -1.1027220    -0.2453970    -0.0205620
  H        1.7650550     0.5724880     1.2977430
  H        1.0430010    -1.0258810     1.2255100
  H        1.8814000    -1.2911440    -1.1469770
  H        2.5641180     0.3366430    -1.0800470
  H        3.2219480    -0.9400230    -0.0411410
  H        0.9206510     2.2208510    -0.6190080
  H        0.0756270     2.3767260     0.9415890
  H       -0.8611500     2.1650270    -0.5546380
  H       -0.1986710    -2.0759730    -0.3046340
  H       -1.8731440    -2.0716480    -0.1344710
units angstrom
no_reorient  #important for SAPT in psi4, default
symmetry c1  #important for SAPT in psi4, default
}

set PROPERTIES_ORIGIN ["COM"]
properties('MP2/aug-cc-pvtz', properties = ['dipole'])
--------------------------------------------------------------------------

    Molecular point group: c1
  Charge       = 0
  Multiplicity = 1
  Basis Set: AUG-CC-PVTZ
    Blend: AUG-CC-PVTZ
  Basis Set: (AUG-CC-PVTZ AUX)
    Blend: AUG-CC-PVTZ-JKFIT

    Orbital Energies [Eh]
    ---------------------

    Doubly Occupied:

       1A    -20.505872     2A    -15.582844     3A    -15.576942
       4A    -11.371136     5A    -11.277160     6A    -11.255486
       7A    -11.233606     8A     -1.380600     9A     -1.249609
      10A     -1.190043    11A     -1.036575    12A     -0.943254
      13A     -0.877045    14A     -0.763315    15A     -0.731140
      16A     -0.683756    17A     -0.640801    18A     -0.635650
      19A     -0.608252    20A     -0.588956    21A     -0.559660
      22A     -0.545346    23A     -0.540765    24A     -0.529753
      25A     -0.507244    26A     -0.441658    27A     -0.417701
      28A     -0.370320

  @DF-RHF Final Energy:  -341.19247799310631

   => Energetics <=

    Nuclear Repulsion Energy =            326.5237946126226234
    One-Electron Energy =               -1111.3435725923397968
    Two-Electron Energy =                 443.6272999866108648
    Total Energy =                       -341.1924779931063085
  Basis Set: (AUG-CC-PVTZ AUX)
    Blend: AUG-CC-PVTZ-RI
    Molecular point group: c1

    Geometry (in Angstrom), charge = 0, multiplicity = 1:

       Center              X                  Y                   Z               Mass
    ------------   -----------------  -----------------  -----------------  -----------------
         O           -2.096271153027     0.305672409294    -0.212861523120    15.994914619570
         N            0.179848846973     0.442552409294     0.092895476880    14.003074004430
         N           -0.903511153027    -1.631081590706     0.132033476880    14.003074004430
         C            1.402700846973    -0.153299590706     0.615802476880    12.000000000000
         C            2.397073846973    -0.532782590706    -0.478818523120    12.000000000000
         C            0.050195746973     1.882169209294    -0.055854923120    12.000000000000
         C           -1.008034153027    -0.241935590706    -0.022938523120    12.000000000000
         H            1.859742846973     0.575949409294     1.295366476880     1.007825032230
         H            1.137688846973    -1.022419590706     1.223133476880     1.007825032230
         H            1.976087846973    -1.287682590706    -1.149353523120     1.007825032230
         H            2.658805846973     0.340104409294    -1.082423523120     1.007825032230
         H            3.316635846973    -0.936561590706    -0.043517523120     1.007825032230
         H            1.015338846973     2.224312409294    -0.621384523120     1.007825032230
         H            0.170314846973     2.380187409294     0.939212476880     1.007825032230
         H           -0.766462153027     2.168488409294    -0.557014523120     1.007825032230
         H           -0.103983153027    -2.072511590706    -0.307010523120     1.007825032230
         H           -1.778456153027    -2.068186590706    -0.136847523120     1.007825032230

  Basis Set: AUG-CC-PVTZ
    Blend: AUG-CC-PVTZ
  Basis Set: (AUG-CC-PVTZ AUX)
    Blend: AUG-CC-PVTZ-JKFIT
	 Reference Energy          =    -341.1924779931063085 [Eh]
	 Singles Energy            =      -0.0000000000000000 [Eh]
	 Same-Spin Energy          =      -0.3488996571764268 [Eh]
	 Opposite-Spin Energy      =      -1.1398887544402436 [Eh]
	 Correlation Energy        =      -1.4887884116166705 [Eh]
	 Total Energy              =    -342.6812664047229759 [Eh]

	 ================> DF-SCS-MP2 Energies <==================
	-----------------------------------------------------------
	 SCS Same-Spin Scale       =       0.3333333333333333 [-]
	 SCS Opposite-Spin Scale   =       1.2000000000000000 [-]
	 SCS Same-Spin Energy      =      -0.1162998857254756 [Eh]
	 SCS Opposite-Spin Energy  =      -1.3678665053282923 [Eh]
	 SCS Correlation Energy    =      -1.4841663910537679 [Eh]
	 SCS Total Energy          =    -342.6766443841600562 [Eh]
	-----------------------------------------------------------

  Dipole Moment: [D]
     X:     3.8062      Y:    -1.2128      Z:    -0.1567     Total:     3.9978

*** Psi4 exiting successfully. Buy a developer a beer!
