                               Psi4 1.4a3.dev225

  ==> Input File <==

--------------------------------------------------------------------------
#psi4
#
memory 32 gb

molecule  {
0 1
  O       -2.1909590     0.3022110    -0.2104850
  N        0.0851610     0.4390910     0.0952720
  N       -0.9981990    -1.6345430     0.1344100
  C        1.3080130    -0.1567610     0.6181790
  C        2.3023860    -0.5362440    -0.4764420
  C        0.0556740     1.8856370    -0.0391460
  C       -1.1027220    -0.2453970    -0.0205620
  H        1.7650550     0.5724880     1.2977430
  H        1.0430010    -1.0258810     1.2255100
  H        1.8814000    -1.2911440    -1.1469770
  H        2.5689070     0.3526145    -1.0910913
  H        3.2219480    -0.9400230    -0.0411410
  H        0.9206510     2.2208510    -0.6190080
  H        0.0756270     2.3767260     0.9415890
  H       -0.8611500     2.1650270    -0.5546380
  H       -0.1986710    -2.0759730    -0.3046340
  H       -1.8731440    -2.0716480    -0.1344710
units angstrom
no_reorient  #important for SAPT in psi4, default
symmetry c1  #important for SAPT in psi4, default
}

set PROPERTIES_ORIGIN ["COM"]
properties('MP2/aug-cc-pvtz', properties = ['dipole'])
--------------------------------------------------------------------------

    Molecular point group: c1
  Charge       = 0
  Multiplicity = 1
  Basis Set: AUG-CC-PVTZ
    Blend: AUG-CC-PVTZ
  Basis Set: (AUG-CC-PVTZ AUX)
    Blend: AUG-CC-PVTZ-JKFIT

    Orbital Energies [Eh]
    ---------------------

    Doubly Occupied:

       1A    -20.505644     2A    -15.581950     3A    -15.577585
       4A    -11.372446     5A    -11.274528     6A    -11.252769
       7A    -11.235461     8A     -1.379490     9A     -1.249441
      10A     -1.190101    11A     -1.033043    12A     -0.944115
      13A     -0.875173    14A     -0.762283    15A     -0.727617
      16A     -0.684557    17A     -0.639787    18A     -0.632507
      19A     -0.603934    20A     -0.587565    21A     -0.560495
      22A     -0.557045    23A     -0.536346    24A     -0.525627
      25A     -0.504249    26A     -0.441010    27A     -0.417890
      28A     -0.373334

  @DF-RHF Final Energy:  -341.20431650501990

   => Energetics <=

    Nuclear Repulsion Energy =            326.2375898658643791
    One-Electron Energy =               -1110.8318289651110717
    Two-Electron Energy =                 443.3899225942267890
    Total Energy =                       -341.2043165050199036
  Basis Set: (AUG-CC-PVTZ AUX)
    Blend: AUG-CC-PVTZ-RI
    Molecular point group: c1

    Geometry (in Angstrom), charge = 0, multiplicity = 1:

       Center              X                  Y                   Z               Mass
    ------------   -----------------  -----------------  -----------------  -----------------
         O           -2.108093525643     0.304700156693    -0.214437337782    15.994914619570
         N            0.168026474357     0.441580156693     0.091319662218    14.003074004430
         N           -0.915333525643    -1.632053843307     0.130457662218    14.003074004430
         C            1.390878474357    -0.154271843307     0.614226662218    12.000000000000
         C            2.385251474357    -0.533754843307    -0.480394337782    12.000000000000
         C            0.138539474357     1.888126156693    -0.043098337782    12.000000000000
         C           -1.019856525643    -0.242907843307    -0.024514337782    12.000000000000
         H            1.847920474357     0.574977156693     1.293790662218     1.007825032230
         H            1.125866474357    -1.023391843307     1.221557662218     1.007825032230
         H            1.964265474357    -1.288654843307    -1.150929337782     1.007825032230
         H            2.651772474357     0.355103656693    -1.095043637782     1.007825032230
         H            3.304813474357    -0.937533843307    -0.045093337782     1.007825032230
         H            1.003516474357     2.223340156693    -0.622960337782     1.007825032230
         H            0.158492474357     2.379215156693     0.937636662218     1.007825032230
         H           -0.778284525643     2.167516156693    -0.558590337782     1.007825032230
         H           -0.115805525643    -2.073483843307    -0.308586337782     1.007825032230
         H           -1.790278525643    -2.069158843307    -0.138423337782     1.007825032230

  Basis Set: AUG-CC-PVTZ
    Blend: AUG-CC-PVTZ
  Basis Set: (AUG-CC-PVTZ AUX)
    Blend: AUG-CC-PVTZ-JKFIT
	 Reference Energy          =    -341.2043165050199036 [Eh]
	 Singles Energy            =      -0.0000000000000000 [Eh]
	 Same-Spin Energy          =      -0.3488997167819337 [Eh]
	 Opposite-Spin Energy      =      -1.1397485067807589 [Eh]
	 Correlation Energy        =      -1.4886482235626926 [Eh]
	 Total Energy              =    -342.6929647285825808 [Eh]

	 ================> DF-SCS-MP2 Energies <==================
	-----------------------------------------------------------
	 SCS Same-Spin Scale       =       0.3333333333333333 [-]
	 SCS Opposite-Spin Scale   =       1.2000000000000000 [-]
	 SCS Same-Spin Energy      =      -0.1162999055939779 [Eh]
	 SCS Opposite-Spin Energy  =      -1.3676982081369107 [Eh]
	 SCS Correlation Energy    =      -1.4839981137308886 [Eh]
	 SCS Total Energy          =    -342.6883146187507805 [Eh]
	-----------------------------------------------------------

  Dipole Moment: [D]
     X:     3.8098      Y:    -1.1713      Z:    -0.1717     Total:     3.9895

*** Psi4 exiting successfully. Buy a developer a beer!
