                               Psi4 1.4a3.dev225

  ==> Input File <==

--------------------------------------------------------------------------
#psi4
#
memory 32 gb

molecule  {
0 1
  O       -2.1909590     0.3022110    -0.2104850
  N        0.0851610     0.4390910     0.0952720
  N       -0.9981990    -1.6345430     0.1344100
  C        1.3080130    -0.1567610     0.6181790
  C        2.3023860    -0.5362440    -0.4764420
  C        0.0556740     1.8856370    -0.0391460
  C       -1.1027220    -0.2453970    -0.0205620
  H        1.7650550     0.5724880     1.2977430
  H        1.0430010    -1.0258810     1.2255100
  H        1.8814000    -1.2911440    -1.1469770
  H        2.6007125     0.3313352    -1.0706491
  H        3.2219480    -0.9400230    -0.0411410
  H        0.9206510     2.2208510    -0.6190080
  H        0.0756270     2.3767260     0.9415890
  H       -0.8611500     2.1650270    -0.5546380
  H       -0.1986710    -2.0759730    -0.3046340
  H       -1.8731440    -2.0716480    -0.1344710
units angstrom
no_reorient  #important for SAPT in psi4, default
symmetry c1  #important for SAPT in psi4, default
}

set PROPERTIES_ORIGIN ["COM"]
properties('MP2/aug-cc-pvtz', properties = ['dipole'])
--------------------------------------------------------------------------

    Molecular point group: c1
  Charge       = 0
  Multiplicity = 1
  Basis Set: AUG-CC-PVTZ
    Blend: AUG-CC-PVTZ
  Basis Set: (AUG-CC-PVTZ AUX)
    Blend: AUG-CC-PVTZ-JKFIT

    Orbital Energies [Eh]
    ---------------------

    Doubly Occupied:

       1A    -20.505575     2A    -15.581836     3A    -15.577553
       4A    -11.372376     5A    -11.274555     6A    -11.252693
       7A    -11.232983     8A     -1.379423     9A     -1.249352
      10A     -1.190053    11A     -1.033644    12A     -0.944187
      13A     -0.876610    14A     -0.762274    15A     -0.727704
      16A     -0.684349    17A     -0.639898    18A     -0.633439
      19A     -0.604306    20A     -0.587651    21A     -0.560236
      22A     -0.556642    23A     -0.537262    24A     -0.525732
      25A     -0.505531    26A     -0.440942    27A     -0.417859
      28A     -0.373268

  @DF-RHF Final Energy:  -341.20471606543163

   => Energetics <=

    Nuclear Repulsion Energy =            326.2635853837272180
    One-Electron Energy =               -1110.8807408925435993
    Two-Electron Energy =                 443.4124394433847556
    Total Energy =                       -341.2047160654316258
  Basis Set: (AUG-CC-PVTZ AUX)
    Blend: AUG-CC-PVTZ-RI
    Molecular point group: c1

    Geometry (in Angstrom), charge = 0, multiplicity = 1:

       Center              X                  Y                   Z               Mass
    ------------   -----------------  -----------------  -----------------  -----------------
         O           -2.108407540091     0.304910246383    -0.214639162817    15.994914619570
         N            0.167712459909     0.441790246383     0.091117837183    14.003074004430
         N           -0.915647540091    -1.631843753617     0.130255837183    14.003074004430
         C            1.390564459909    -0.154061753617     0.614024837183    12.000000000000
         C            2.384937459909    -0.533544753617    -0.480596162817    12.000000000000
         C            0.138225459909     1.888336246383    -0.043300162817    12.000000000000
         C           -1.020170540091    -0.242697753617    -0.024716162817    12.000000000000
         H            1.847606459909     0.575187246383     1.293588837183     1.007825032230
         H            1.125552459909    -1.023181753617     1.221355837183     1.007825032230
         H            1.963951459909    -1.288444753617    -1.151131162817     1.007825032230
         H            2.683263959909     0.334034446383    -1.074803262817     1.007825032230
         H            3.304499459909    -0.937323753617    -0.045295162817     1.007825032230
         H            1.003202459909     2.223550246383    -0.623162162817     1.007825032230
         H            0.158178459909     2.379425246383     0.937434837183     1.007825032230
         H           -0.778598540091     2.167726246383    -0.558792162817     1.007825032230
         H           -0.116119540091    -2.073273753617    -0.308788162817     1.007825032230
         H           -1.790592540091    -2.068948753617    -0.138625162817     1.007825032230

  Basis Set: AUG-CC-PVTZ
    Blend: AUG-CC-PVTZ
  Basis Set: (AUG-CC-PVTZ AUX)
    Blend: AUG-CC-PVTZ-JKFIT
	 Reference Energy          =    -341.2047160654316258 [Eh]
	 Singles Energy            =      -0.0000000000000000 [Eh]
	 Same-Spin Energy          =      -0.3488903119097472 [Eh]
	 Opposite-Spin Energy      =      -1.1395953195011825 [Eh]
	 Correlation Energy        =      -1.4884856314109296 [Eh]
	 Total Energy              =    -342.6932016968425501 [Eh]

	 ================> DF-SCS-MP2 Energies <==================
	-----------------------------------------------------------
	 SCS Same-Spin Scale       =       0.3333333333333333 [-]
	 SCS Opposite-Spin Scale   =       1.2000000000000000 [-]
	 SCS Same-Spin Energy      =      -0.1162967706365824 [Eh]
	 SCS Opposite-Spin Energy  =      -1.3675143834014190 [Eh]
	 SCS Correlation Energy    =      -1.4838111540380012 [Eh]
	 SCS Total Energy          =    -342.6885272194696199 [Eh]
	-----------------------------------------------------------

  Dipole Moment: [D]
     X:     3.8271      Y:    -1.1625      Z:    -0.1767     Total:     4.0036

*** Psi4 exiting successfully. Buy a developer a beer!
