                               Psi4 1.4a3.dev225

  ==> Input File <==

--------------------------------------------------------------------------
#psi4
#
memory 32 gb

molecule  {
0 1
  O       -2.1909590     0.3022110    -0.2104850
  N        0.0851610     0.4390910     0.0952720
  N       -0.9981990    -1.6345430     0.1344100
  C        1.3080130    -0.1567610     0.6181790
  C        2.3023860    -0.5362440    -0.4764420
  C        0.0556740     1.8856370    -0.0391460
  C       -1.1012306    -0.2652184    -0.0183507
  H        1.7650550     0.5724880     1.2977430
  H        1.0430010    -1.0258810     1.2255100
  H        1.8814000    -1.2911440    -1.1469770
  H        2.5641180     0.3366430    -1.0800470
  H        3.2219480    -0.9400230    -0.0411410
  H        0.9206510     2.2208510    -0.6190080
  H        0.0756270     2.3767260     0.9415890
  H       -0.8611500     2.1650270    -0.5546380
  H       -0.1986710    -2.0759730    -0.3046340
  H       -1.8731440    -2.0716480    -0.1344710
units angstrom
no_reorient  #important for SAPT in psi4, default
symmetry c1  #important for SAPT in psi4, default
}

set PROPERTIES_ORIGIN ["COM"]
properties('MP2/aug-cc-pvtz', properties = ['dipole'])
--------------------------------------------------------------------------

    Molecular point group: c1
  Charge       = 0
  Multiplicity = 1
  Basis Set: AUG-CC-PVTZ
    Blend: AUG-CC-PVTZ
  Basis Set: (AUG-CC-PVTZ AUX)
    Blend: AUG-CC-PVTZ-JKFIT

    Orbital Energies [Eh]
    ---------------------

    Doubly Occupied:

       1A    -20.503519     2A    -15.581293     3A    -15.580845
       4A    -11.372985     5A    -11.273379     6A    -11.252025
       7A    -11.232707     8A     -1.374406     9A     -1.246063
      10A     -1.197245    11A     -1.032478    12A     -0.943153
      13A     -0.874598    14A     -0.766721    15A     -0.730429
      16A     -0.684893    17A     -0.638321    18A     -0.633720
      19A     -0.600461    20A     -0.589340    21A     -0.560350
      22A     -0.557506    23A     -0.536312    24A     -0.523562
      25A     -0.504865    26A     -0.438589    27A     -0.418922
      28A     -0.371262

  @DF-RHF Final Energy:  -341.20360249074702

   => Energetics <=

    Nuclear Repulsion Energy =            326.2403766468411277
    One-Electron Energy =               -1110.8480586260666314
    Two-Electron Energy =                 443.4040794884784873
    Total Energy =                       -341.2036024907470164
  Basis Set: (AUG-CC-PVTZ AUX)
    Blend: AUG-CC-PVTZ-RI
    Molecular point group: c1

    Geometry (in Angstrom), charge = 0, multiplicity = 1:

       Center              X                  Y                   Z               Mass
    ------------   -----------------  -----------------  -----------------  -----------------
         O           -2.108221566532     0.307187960247    -0.214806328529    15.994914619570
         N            0.167898433468     0.444067960247     0.090950671471    14.003074004430
         N           -0.915461566532    -1.629566039753     0.130088671471    14.003074004430
         C            1.390750433468    -0.151784039753     0.613857671471    12.000000000000
         C            2.385123433468    -0.531267039753    -0.480763328529    12.000000000000
         C            0.138411433468     1.890613960247    -0.043467328529    12.000000000000
         C           -1.018493166532    -0.260241439753    -0.022672028529    12.000000000000
         H            1.847792433468     0.577464960247     1.293421671471     1.007825032230
         H            1.125738433468    -1.020904039753     1.221188671471     1.007825032230
         H            1.964137433468    -1.286167039753    -1.151298328529     1.007825032230
         H            2.646855433468     0.341619960247    -1.084368328529     1.007825032230
         H            3.304685433468    -0.935046039753    -0.045462328529     1.007825032230
         H            1.003388433468     2.225827960247    -0.623329328529     1.007825032230
         H            0.158364433468     2.381702960247     0.937267671471     1.007825032230
         H           -0.778412566532     2.170003960247    -0.558959328529     1.007825032230
         H           -0.115933566532    -2.070996039753    -0.308955328529     1.007825032230
         H           -1.790406566532    -2.066671039753    -0.138792328529     1.007825032230

  Basis Set: AUG-CC-PVTZ
    Blend: AUG-CC-PVTZ
  Basis Set: (AUG-CC-PVTZ AUX)
    Blend: AUG-CC-PVTZ-JKFIT
	 Reference Energy          =    -341.2036024907470164 [Eh]
	 Singles Energy            =      -0.0000000000000000 [Eh]
	 Same-Spin Energy          =      -0.3491213543184746 [Eh]
	 Opposite-Spin Energy      =      -1.1399080630275360 [Eh]
	 Correlation Energy        =      -1.4890294173460106 [Eh]
	 Total Energy              =    -342.6926319080930057 [Eh]

	 ================> DF-SCS-MP2 Energies <==================
	-----------------------------------------------------------
	 SCS Same-Spin Scale       =       0.3333333333333333 [-]
	 SCS Opposite-Spin Scale   =       1.2000000000000000 [-]
	 SCS Same-Spin Energy      =      -0.1163737847728249 [Eh]
	 SCS Opposite-Spin Energy  =      -1.3678896756330432 [Eh]
	 SCS Correlation Energy    =      -1.4842634604058680 [Eh]
	 SCS Total Energy          =    -342.6878659511529008 [Eh]
	-----------------------------------------------------------

  Dipole Moment: [D]
     X:     3.8109      Y:    -1.3220      Z:    -0.1692     Total:     4.0372

*** Psi4 exiting successfully. Buy a developer a beer!
