                               Psi4 1.4a3.dev225

  ==> Input File <==

--------------------------------------------------------------------------
#psi4
#
memory 32 gb

molecule  {
0 1
  O       -2.1909590     0.3022110    -0.2104850
  N        0.0851610     0.4390910     0.0952720
  N       -0.9981990    -1.6345430     0.1344100
  C        1.3080130    -0.1567610     0.6181790
  C        2.3023860    -0.5362440    -0.4764420
  C        0.0556740     1.8856370    -0.0391460
  C       -1.1027220    -0.2453970    -0.0205620
  H        1.7650550     0.5724880     1.2977430
  H        1.0430010    -1.0258810     1.2255100
  H        1.8814000    -1.2911440    -1.1469770
  H        2.5641180     0.3366430    -1.0800470
  H        3.1799430    -0.9215786    -0.0610253
  H        0.9206510     2.2208510    -0.6190080
  H        0.0756270     2.3767260     0.9415890
  H       -0.8611500     2.1650270    -0.5546380
  H       -0.1986710    -2.0759730    -0.3046340
  H       -1.8731440    -2.0716480    -0.1344710
units angstrom
no_reorient  #important for SAPT in psi4, default
symmetry c1  #important for SAPT in psi4, default
}

set PROPERTIES_ORIGIN ["COM"]
properties('MP2/aug-cc-pvtz', properties = ['dipole'])
--------------------------------------------------------------------------

    Molecular point group: c1
  Charge       = 0
  Multiplicity = 1
  Basis Set: AUG-CC-PVTZ
    Blend: AUG-CC-PVTZ
  Basis Set: (AUG-CC-PVTZ AUX)
    Blend: AUG-CC-PVTZ-JKFIT

    Orbital Energies [Eh]
    ---------------------

    Doubly Occupied:

       1A    -20.505312     2A    -15.581468     3A    -15.577293
       4A    -11.372102     5A    -11.273878     6A    -11.252549
       7A    -11.226832     8A     -1.379160     9A     -1.249062
      10A     -1.189797    11A     -1.036099    12A     -0.944397
      13A     -0.879294    14A     -0.762060    15A     -0.727490
      16A     -0.684861    17A     -0.640504    18A     -0.632765
      19A     -0.603976    20A     -0.590932    21A     -0.563869
      22A     -0.557426    23A     -0.536469    24A     -0.527660
      25A     -0.505444    26A     -0.440748    27A     -0.417605
      28A     -0.372914

  @DF-RHF Final Energy:  -341.20382672328395

   => Energetics <=

    Nuclear Repulsion Energy =            326.5494195703691958
    One-Electron Energy =               -1111.4425584547013841
    Two-Electron Energy =                 443.6893121610482353
    Total Energy =                       -341.2038267232839530
  Basis Set: (AUG-CC-PVTZ AUX)
    Blend: AUG-CC-PVTZ-RI
    Molecular point group: c1

    Geometry (in Angstrom), charge = 0, multiplicity = 1:

       Center              X                  Y                   Z               Mass
    ------------   -----------------  -----------------  -----------------  -----------------
         O           -2.107631530326     0.304675741849    -0.214350060810    15.994914619570
         N            0.168488469674     0.441555741849     0.091406939190    14.003074004430
         N           -0.914871530326    -1.632078258151     0.130544939190    14.003074004430
         C            1.391340469674    -0.154296258151     0.614313939190    12.000000000000
         C            2.385713469674    -0.533779258151    -0.480307060810    12.000000000000
         C            0.139001469674     1.888101741849    -0.043011060810    12.000000000000
         C           -1.019394530326    -0.242932258151    -0.024427060810    12.000000000000
         H            1.848382469674     0.574952741849     1.293877939190     1.007825032230
         H            1.126328469674    -1.023416258151     1.221644939190     1.007825032230
         H            1.964727469674    -1.288679258151    -1.150842060810     1.007825032230
         H            2.647445469674     0.339107741849    -1.083912060810     1.007825032230
         H            3.263270469674    -0.919113858151    -0.064890360810     1.007825032230
         H            1.003978469674     2.223315741849    -0.622873060810     1.007825032230
         H            0.158954469674     2.379190741849     0.937723939190     1.007825032230
         H           -0.777822530326     2.167491741849    -0.558503060810     1.007825032230
         H           -0.115343530326    -2.073508258151    -0.308499060810     1.007825032230
         H           -1.789816530326    -2.069183258151    -0.138336060810     1.007825032230

  Basis Set: AUG-CC-PVTZ
    Blend: AUG-CC-PVTZ
  Basis Set: (AUG-CC-PVTZ AUX)
    Blend: AUG-CC-PVTZ-JKFIT
	 Reference Energy          =    -341.2038267232839530 [Eh]
	 Singles Energy            =      -0.0000000000000000 [Eh]
	 Same-Spin Energy          =      -0.3489239183464563 [Eh]
	 Opposite-Spin Energy      =      -1.1393586373764071 [Eh]
	 Correlation Energy        =      -1.4882825557228634 [Eh]
	 Total Energy              =    -342.6921092790068428 [Eh]

	 ================> DF-SCS-MP2 Energies <==================
	-----------------------------------------------------------
	 SCS Same-Spin Scale       =       0.3333333333333333 [-]
	 SCS Opposite-Spin Scale   =       1.2000000000000000 [-]
	 SCS Same-Spin Energy      =      -0.1163079727821521 [Eh]
	 SCS Opposite-Spin Energy  =      -1.3672303648516884 [Eh]
	 SCS Correlation Energy    =      -1.4835383376338405 [Eh]
	 SCS Total Energy          =    -342.6873650609177844 [Eh]
	-----------------------------------------------------------

  Dipole Moment: [D]
     X:     3.8479      Y:    -1.1765      Z:    -0.1731     Total:     4.0274

*** Psi4 exiting successfully. Buy a developer a beer!
