                               Psi4 1.4a3.dev225

  ==> Input File <==

--------------------------------------------------------------------------
#psi4
#
memory 32 gb

molecule  {
0 1
  O       -2.1909590     0.3022110    -0.2104850
  N        0.0851610     0.4390910     0.0952720
  N       -0.9981990    -1.6345430     0.1344100
  C        1.3080130    -0.1567610     0.6181790
  C        2.3023860    -0.5362440    -0.4764420
  C        0.0556740     1.8856370    -0.0391460
  C       -1.1064505    -0.1958436    -0.0260901
  H        1.7650550     0.5724880     1.2977430
  H        1.0430010    -1.0258810     1.2255100
  H        1.8814000    -1.2911440    -1.1469770
  H        2.5641180     0.3366430    -1.0800470
  H        3.2219480    -0.9400230    -0.0411410
  H        0.9206510     2.2208510    -0.6190080
  H        0.0756270     2.3767260     0.9415890
  H       -0.8611500     2.1650270    -0.5546380
  H       -0.1986710    -2.0759730    -0.3046340
  H       -1.8731440    -2.0716480    -0.1344710
units angstrom
no_reorient  #important for SAPT in psi4, default
symmetry c1  #important for SAPT in psi4, default
}

set PROPERTIES_ORIGIN ["COM"]
properties('MP2/aug-cc-pvtz', properties = ['dipole'])
--------------------------------------------------------------------------

    Molecular point group: c1
  Charge       = 0
  Multiplicity = 1
  Basis Set: AUG-CC-PVTZ
    Blend: AUG-CC-PVTZ
  Basis Set: (AUG-CC-PVTZ AUX)
    Blend: AUG-CC-PVTZ-JKFIT

    Orbital Energies [Eh]
    ---------------------

    Doubly Occupied:

       1A    -20.510876     2A    -15.584604     3A    -15.567802
       4A    -11.371171     5A    -11.276593     6A    -11.254823
       7A    -11.233807     8A     -1.393702     9A     -1.258284
      10A     -1.171449    11A     -1.037081    12A     -0.946976
      13A     -0.880490    14A     -0.754079    15A     -0.721017
      16A     -0.683631    17A     -0.644031    18A     -0.630209
      19A     -0.612473    20A     -0.587565    21A     -0.560310
      22A     -0.557519    23A     -0.538954    24A     -0.529801
      25A     -0.507216    26A     -0.445786    27A     -0.413140
      28A     -0.378287

  @DF-RHF Final Energy:  -341.20321140630625

   => Energetics <=

    Nuclear Repulsion Energy =            326.5291610171302068
    One-Electron Energy =               -1111.3613934629308915
    Two-Electron Energy =                 443.6290210394943756
    Total Energy =                       -341.2032114063062522
  Basis Set: (AUG-CC-PVTZ AUX)
    Blend: AUG-CC-PVTZ-RI
    Molecular point group: c1

    Geometry (in Angstrom), charge = 0, multiplicity = 1:

       Center              X                  Y                   Z               Mass
    ------------   -----------------  -----------------  -----------------  -----------------
         O           -2.107607937793     0.299032560529    -0.213896518331    15.994914619570
         N            0.168512062207     0.435912560529     0.091860481669    14.003074004430
         N           -0.914847937793    -1.637721439471     0.130998481669    14.003074004430
         C            1.391364062207    -0.159939439471     0.614767481669    12.000000000000
         C            2.385737062207    -0.539422439471    -0.479853518331    12.000000000000
         C            0.139025062207     1.882458560529    -0.042557518331    12.000000000000
         C           -1.023099437793    -0.199022039471    -0.029501618331    12.000000000000
         H            1.848406062207     0.569309560529     1.294331481669     1.007825032230
         H            1.126352062207    -1.029059439471     1.222098481669     1.007825032230
         H            1.964751062207    -1.294322439471    -1.150388518331     1.007825032230
         H            2.647469062207     0.333464560529    -1.083458518331     1.007825032230
         H            3.305299062207    -0.943201439471    -0.044552518331     1.007825032230
         H            1.004002062207     2.217672560529    -0.622419518331     1.007825032230
         H            0.158978062207     2.373547560529     0.938177481669     1.007825032230
         H           -0.777798937793     2.161848560529    -0.558049518331     1.007825032230
         H           -0.115319937793    -2.079151439471    -0.308045518331     1.007825032230
         H           -1.789792937793    -2.074826439471    -0.137882518331     1.007825032230

  Basis Set: AUG-CC-PVTZ
    Blend: AUG-CC-PVTZ
  Basis Set: (AUG-CC-PVTZ AUX)
    Blend: AUG-CC-PVTZ-JKFIT
	 Reference Energy          =    -341.2032114063062522 [Eh]
	 Singles Energy            =      -0.0000000000000000 [Eh]
	 Same-Spin Energy          =      -0.3484808760827364 [Eh]
	 Opposite-Spin Energy      =      -1.1391636140863817 [Eh]
	 Correlation Energy        =      -1.4876444901691181 [Eh]
	 Total Energy              =    -342.6908558964753979 [Eh]

	 ================> DF-SCS-MP2 Energies <==================
	-----------------------------------------------------------
	 SCS Same-Spin Scale       =       0.3333333333333333 [-]
	 SCS Opposite-Spin Scale   =       1.2000000000000000 [-]
	 SCS Same-Spin Energy      =      -0.1161602920275788 [Eh]
	 SCS Opposite-Spin Energy  =      -1.3669963369036580 [Eh]
	 SCS Correlation Energy    =      -1.4831566289312368 [Eh]
	 SCS Total Energy          =    -342.6863680352374786 [Eh]
	-----------------------------------------------------------

  Dipole Moment: [D]
     X:     3.8236      Y:    -0.7668      Z:    -0.2022     Total:     3.9050

*** Psi4 exiting successfully. Buy a developer a beer!
