                               Psi4 1.4a3.dev225

  ==> Input File <==

--------------------------------------------------------------------------
#psi4
#
memory 32 gb

molecule  {
0 1
  O       -2.1909590     0.3022110    -0.2104850
  N        0.0851610     0.4390910     0.0952720
  N       -0.9981990    -1.6345430     0.1344100
  C        1.3080130    -0.1567610     0.6181790
  C        2.3023860    -0.5362440    -0.4764420
  C        0.0556740     1.8856370    -0.0391460
  C       -1.1027220    -0.2453970    -0.0205620
  H        1.7650550     0.5724880     1.2977430
  H        1.0430010    -1.0258810     1.2255100
  H        1.8814000    -1.2911440    -1.1469770
  H        2.5641180     0.3366430    -1.0800470
  H        3.3059580    -0.9769117    -0.0013725
  H        0.9206510     2.2208510    -0.6190080
  H        0.0756270     2.3767260     0.9415890
  H       -0.8611500     2.1650270    -0.5546380
  H       -0.1986710    -2.0759730    -0.3046340
  H       -1.8731440    -2.0716480    -0.1344710
units angstrom
no_reorient  #important for SAPT in psi4, default
symmetry c1  #important for SAPT in psi4, default
}

set PROPERTIES_ORIGIN ["COM"]
properties('MP2/aug-cc-pvtz', properties = ['dipole'])
--------------------------------------------------------------------------

    Molecular point group: c1
  Charge       = 0
  Multiplicity = 1
  Basis Set: AUG-CC-PVTZ
    Blend: AUG-CC-PVTZ
  Basis Set: (AUG-CC-PVTZ AUX)
    Blend: AUG-CC-PVTZ-JKFIT

    Orbital Energies [Eh]
    ---------------------

    Doubly Occupied:

       1A    -20.506313     2A    -15.582965     3A    -15.578064
       4A    -11.373126     5A    -11.275296     6A    -11.253443
       7A    -11.244923     8A     -1.380152     9A     -1.250251
      10A     -1.190658    11A     -1.030636    12A     -0.944344
      13A     -0.871515    14A     -0.762930    15A     -0.728412
      16A     -0.684195    17A     -0.639250    18A     -0.633201
      19A     -0.604576    20A     -0.586503    21A     -0.558935
      22A     -0.552217    23A     -0.537982    24A     -0.518672
      25A     -0.504997    26A     -0.441488    27A     -0.418417
      28A     -0.374118

  @DF-RHF Final Energy:  -341.19835437902094

   => Energetics <=

    Nuclear Repulsion Energy =            325.8950951341381028
    One-Electron Energy =               -1110.1317408976142360
    Two-Electron Energy =                 443.0382913844552490
    Total Energy =                       -341.1983543790209410
  Basis Set: (AUG-CC-PVTZ AUX)
    Blend: AUG-CC-PVTZ-RI
    Molecular point group: c1

    Geometry (in Angstrom), charge = 0, multiplicity = 1:

       Center              X                  Y                   Z               Mass
    ------------   -----------------  -----------------  -----------------  -----------------
         O           -2.108875671453     0.305222043364    -0.214939010553    15.994914619570
         N            0.167244328547     0.442102043364     0.090817989447    14.003074004430
         N           -0.916115671453    -1.631531956636     0.129955989447    14.003074004430
         C            1.390096328547    -0.153749956636     0.613724989447    12.000000000000
         C            2.384469328547    -0.533232956636    -0.480896010553    12.000000000000
         C            0.137757328547     1.888648043364    -0.043600010553    12.000000000000
         C           -1.020638671453    -0.242385956636    -0.025016010553    12.000000000000
         H            1.847138328547     0.575499043364     1.293288989447     1.007825032230
         H            1.125084328547    -1.022869956636     1.221055989447     1.007825032230
         H            1.963483328547    -1.288132956636    -1.151431010553     1.007825032230
         H            2.646201328547     0.339654043364    -1.084501010553     1.007825032230
         H            3.388041328547    -0.973900656636    -0.005826510553     1.007825032230
         H            1.002734328547     2.223862043364    -0.623462010553     1.007825032230
         H            0.157710328547     2.379737043364     0.937134989447     1.007825032230
         H           -0.779066671453     2.168038043364    -0.559092010553     1.007825032230
         H           -0.116587671453    -2.072961956636    -0.309088010553     1.007825032230
         H           -1.791060671453    -2.068636956636    -0.138925010553     1.007825032230

  Basis Set: AUG-CC-PVTZ
    Blend: AUG-CC-PVTZ
  Basis Set: (AUG-CC-PVTZ AUX)
    Blend: AUG-CC-PVTZ-JKFIT
	 Reference Energy          =    -341.1983543790209410 [Eh]
	 Singles Energy            =      -0.0000000000000000 [Eh]
	 Same-Spin Energy          =      -0.3488685213214585 [Eh]
	 Opposite-Spin Energy      =      -1.1403072710922364 [Eh]
	 Correlation Energy        =      -1.4891757924136950 [Eh]
	 Total Energy              =    -342.6875301714346165 [Eh]

	 ================> DF-SCS-MP2 Energies <==================
	-----------------------------------------------------------
	 SCS Same-Spin Scale       =       0.3333333333333333 [-]
	 SCS Opposite-Spin Scale   =       1.2000000000000000 [-]
	 SCS Same-Spin Energy      =      -0.1162895071071528 [Eh]
	 SCS Opposite-Spin Energy  =      -1.3683687253106835 [Eh]
	 SCS Correlation Energy    =      -1.4846582324178363 [Eh]
	 SCS Total Energy          =    -342.6830126114387554 [Eh]
	-----------------------------------------------------------

  Dipole Moment: [D]
     X:     3.7365      Y:    -1.1356      Z:    -0.1925     Total:     3.9100

*** Psi4 exiting successfully. Buy a developer a beer!
