                               Psi4 1.4a3.dev225

  ==> Input File <==

--------------------------------------------------------------------------
#psi4
#
memory 32 gb

molecule  {
0 1
  O       -2.1909590     0.3022110    -0.2104850
  N        0.0851610     0.4390910     0.0952720
  N       -0.9981990    -1.6345430     0.1344100
  C        1.2660581    -0.1363179     0.6002385
  C        2.3023860    -0.5362440    -0.4764420
  C        0.0556740     1.8856370    -0.0391460
  C       -1.1027220    -0.2453970    -0.0205620
  H        1.7650550     0.5724880     1.2977430
  H        1.0430010    -1.0258810     1.2255100
  H        1.8814000    -1.2911440    -1.1469770
  H        2.5641180     0.3366430    -1.0800470
  H        3.2219480    -0.9400230    -0.0411410
  H        0.9206510     2.2208510    -0.6190080
  H        0.0756270     2.3767260     0.9415890
  H       -0.8611500     2.1650270    -0.5546380
  H       -0.1986710    -2.0759730    -0.3046340
  H       -1.8731440    -2.0716480    -0.1344710
units angstrom
no_reorient  #important for SAPT in psi4, default
symmetry c1  #important for SAPT in psi4, default
}

set PROPERTIES_ORIGIN ["COM"]
properties('MP2/aug-cc-pvtz', properties = ['dipole'])
--------------------------------------------------------------------------

    Molecular point group: c1
  Charge       = 0
  Multiplicity = 1
  Basis Set: AUG-CC-PVTZ
    Blend: AUG-CC-PVTZ
  Basis Set: (AUG-CC-PVTZ AUX)
    Blend: AUG-CC-PVTZ-JKFIT

    Orbital Energies [Eh]
    ---------------------

    Doubly Occupied:

       1A    -20.507775     2A    -15.583807     3A    -15.578786
       4A    -11.374734     5A    -11.273599     6A    -11.254542
       7A    -11.231584     8A     -1.382523     9A     -1.259958
      10A     -1.192859    11A     -1.028055    12A     -0.947863
      13A     -0.878823    14A     -0.764047    15A     -0.730846
      16A     -0.688277    17A     -0.643601    18A     -0.631787
      19A     -0.604017    20A     -0.588294    21A     -0.561272
      22A     -0.558753    23A     -0.534355    24A     -0.526471
      25A     -0.500283    26A     -0.442974    27A     -0.418639
      28A     -0.372959

  @DF-RHF Final Energy:  -341.20224029925697

   => Energetics <=

    Nuclear Repulsion Energy =            327.0706353017779406
    One-Electron Energy =               -1112.4227863236087614
    Two-Electron Energy =                 444.1499107225739067
    Total Energy =                       -341.2022402992569710
  Basis Set: (AUG-CC-PVTZ AUX)
    Blend: AUG-CC-PVTZ-RI
    Molecular point group: c1

    Geometry (in Angstrom), charge = 0, multiplicity = 1:

       Center              X                  Y                   Z               Mass
    ------------   -----------------  -----------------  -----------------  -----------------
         O           -2.103114208489     0.302454640772    -0.212437370579    15.994914619570
         N            0.173005791511     0.439334640772     0.093319629421    14.003074004430
         N           -0.910354208489    -1.634299359228     0.132457629421    14.003074004430
         C            1.353902891511    -0.136074259228     0.598286129421    12.000000000000
         C            2.390230791511    -0.536000359228    -0.478394370579    12.000000000000
         C            0.143518791511     1.885880640772    -0.041098370579    12.000000000000
         C           -1.014877208489    -0.245153359228    -0.022514370579    12.000000000000
         H            1.852899791511     0.572731640772     1.295790629421     1.007825032230
         H            1.130845791511    -1.025637359228     1.223557629421     1.007825032230
         H            1.969244791511    -1.290900359228    -1.148929370579     1.007825032230
         H            2.651962791511     0.336886640772    -1.081999370579     1.007825032230
         H            3.309792791511    -0.939779359228    -0.043093370579     1.007825032230
         H            1.008495791511     2.221094640772    -0.620960370579     1.007825032230
         H            0.163471791511     2.376969640772     0.939636629421     1.007825032230
         H           -0.773305208489     2.165270640772    -0.556590370579     1.007825032230
         H           -0.110826208489    -2.075729359228    -0.306586370579     1.007825032230
         H           -1.785299208489    -2.071404359228    -0.136423370579     1.007825032230

  Basis Set: AUG-CC-PVTZ
    Blend: AUG-CC-PVTZ
  Basis Set: (AUG-CC-PVTZ AUX)
    Blend: AUG-CC-PVTZ-JKFIT
	 Reference Energy          =    -341.2022402992569710 [Eh]
	 Singles Energy            =      -0.0000000000000000 [Eh]
	 Same-Spin Energy          =      -0.3492483042372920 [Eh]
	 Opposite-Spin Energy      =      -1.1398689140777414 [Eh]
	 Correlation Energy        =      -1.4891172183150334 [Eh]
	 Total Energy              =    -342.6913575175719870 [Eh]

	 ================> DF-SCS-MP2 Energies <==================
	-----------------------------------------------------------
	 SCS Same-Spin Scale       =       0.3333333333333333 [-]
	 SCS Opposite-Spin Scale   =       1.2000000000000000 [-]
	 SCS Same-Spin Energy      =      -0.1164161014124307 [Eh]
	 SCS Opposite-Spin Energy  =      -1.3678426968932895 [Eh]
	 SCS Correlation Energy    =      -1.4842587983057203 [Eh]
	 SCS Total Energy          =    -342.6864990975627165 [Eh]
	-----------------------------------------------------------

  Dipole Moment: [D]
     X:     3.6481      Y:    -1.1217      Z:    -0.2056     Total:     3.8222

*** Psi4 exiting successfully. Buy a developer a beer!
