                               Psi4 1.4a3.dev225

  ==> Input File <==

--------------------------------------------------------------------------
#psi4
#
memory 32 gb

molecule  {
0 1
  O       -2.1909590     0.3022110    -0.2104850
  N        0.0851610     0.4390910     0.0952720
  N       -0.9981990    -1.6345430     0.1344100
  C        1.3258607    -0.1396657     0.6281413
  C        2.3023860    -0.5362440    -0.4764420
  C        0.0556740     1.8856370    -0.0391460
  C       -1.1027220    -0.2453970    -0.0205620
  H        1.7650550     0.5724880     1.2977430
  H        1.0430010    -1.0258810     1.2255100
  H        1.8814000    -1.2911440    -1.1469770
  H        2.5641180     0.3366430    -1.0800470
  H        3.2219480    -0.9400230    -0.0411410
  H        0.9206510     2.2208510    -0.6190080
  H        0.0756270     2.3767260     0.9415890
  H       -0.8611500     2.1650270    -0.5546380
  H       -0.1986710    -2.0759730    -0.3046340
  H       -1.8731440    -2.0716480    -0.1344710
units angstrom
no_reorient  #important for SAPT in psi4, default
symmetry c1  #important for SAPT in psi4, default
}

set PROPERTIES_ORIGIN ["COM"]
properties('MP2/aug-cc-pvtz', properties = ['dipole'])
--------------------------------------------------------------------------

    Molecular point group: c1
  Charge       = 0
  Multiplicity = 1
  Basis Set: AUG-CC-PVTZ
    Blend: AUG-CC-PVTZ
  Basis Set: (AUG-CC-PVTZ AUX)
    Blend: AUG-CC-PVTZ-JKFIT

    Orbital Energies [Eh]
    ---------------------

    Doubly Occupied:

       1A    -20.505382     2A    -15.581298     3A    -15.577193
       4A    -11.372329     5A    -11.274431     6A    -11.252026
       7A    -11.233460     8A     -1.378900     9A     -1.247059
      10A     -1.189459    11A     -1.034266    12A     -0.943032
      13A     -0.877050    14A     -0.761845    15A     -0.725799
      16A     -0.684502    17A     -0.639000    18A     -0.634622
      19A     -0.604506    20A     -0.587830    21A     -0.559441
      22A     -0.556775    23A     -0.538787    24A     -0.525558
      25A     -0.504494    26A     -0.440657    27A     -0.417906
      28A     -0.373119

  @DF-RHF Final Energy:  -341.20398842406098

   => Energetics <=

    Nuclear Repulsion Energy =            326.0568861036383623
    One-Electron Energy =               -1110.4802957955962484
    Two-Electron Energy =                 443.2194212678969052
    Total Energy =                       -341.2039884240609808
  Basis Set: (AUG-CC-PVTZ AUX)
    Blend: AUG-CC-PVTZ-RI
    Molecular point group: c1

    Geometry (in Angstrom), charge = 0, multiplicity = 1:

       Center              X                  Y                   Z               Mass
    ------------   -----------------  -----------------  -----------------  -----------------
         O           -2.110144342012     0.302848193577    -0.215717502374    15.994914619570
         N            0.165975657988     0.439728193577     0.090039497626    14.003074004430
         N           -0.917384342012    -1.633905806423     0.129177497626    14.003074004430
         C            1.406675357988    -0.139028506423     0.622908797626    12.000000000000
         C            2.383200657988    -0.535606806423    -0.481674502374    12.000000000000
         C            0.136488657988     1.886274193577    -0.044378502374    12.000000000000
         C           -1.021907342012    -0.244759806423    -0.025794502374    12.000000000000
         H            1.845869657988     0.573125193577     1.292510497626     1.007825032230
         H            1.123815657988    -1.025243806423     1.220277497626     1.007825032230
         H            1.962214657988    -1.290506806423    -1.152209502374     1.007825032230
         H            2.644932657988     0.337280193577    -1.085279502374     1.007825032230
         H            3.302762657988    -0.939385806423    -0.046373502374     1.007825032230
         H            1.001465657988     2.221488193577    -0.624240502374     1.007825032230
         H            0.156441657988     2.377363193577     0.936356497626     1.007825032230
         H           -0.780335342012     2.165664193577    -0.559870502374     1.007825032230
         H           -0.117856342012    -2.075335806423    -0.309866502374     1.007825032230
         H           -1.792329342012    -2.071010806423    -0.139703502374     1.007825032230

  Basis Set: AUG-CC-PVTZ
    Blend: AUG-CC-PVTZ
  Basis Set: (AUG-CC-PVTZ AUX)
    Blend: AUG-CC-PVTZ-JKFIT
	 Reference Energy          =    -341.2039884240609808 [Eh]
	 Singles Energy            =      -0.0000000000000000 [Eh]
	 Same-Spin Energy          =      -0.3488433273595009 [Eh]
	 Opposite-Spin Energy      =      -1.1396565429582139 [Eh]
	 Correlation Energy        =      -1.4884998703177148 [Eh]
	 Total Energy              =    -342.6924882943786770 [Eh]

	 ================> DF-SCS-MP2 Energies <==================
	-----------------------------------------------------------
	 SCS Same-Spin Scale       =       0.3333333333333333 [-]
	 SCS Opposite-Spin Scale   =       1.2000000000000000 [-]
	 SCS Same-Spin Energy      =      -0.1162811091198336 [Eh]
	 SCS Opposite-Spin Energy  =      -1.3675878515498567 [Eh]
	 SCS Correlation Energy    =      -1.4838689606696904 [Eh]
	 SCS Total Energy          =    -342.6878573847306484 [Eh]
	-----------------------------------------------------------

  Dipole Moment: [D]
     X:     3.8513      Y:    -1.1654      Z:    -0.1635     Total:     4.0271

*** Psi4 exiting successfully. Buy a developer a beer!
