                               Psi4 1.4a3.dev225

  ==> Input File <==

--------------------------------------------------------------------------
#psi4
#
memory 32 gb

molecule  {
0 1
  O       -2.1909590     0.3022110    -0.2104850
  N        0.0851610     0.4390910     0.0952720
  N       -0.9981990    -1.6345430     0.1344100
  C        1.3080130    -0.1567610     0.6181790
  C        2.3023860    -0.5362440    -0.4764420
  C        0.0556740     1.8856370    -0.0391460
  C       -1.1027220    -0.2453970    -0.0205620
  H        1.7650550     0.5724880     1.2977430
  H        1.0187527    -1.1054045     1.2810801
  H        1.8814000    -1.2911440    -1.1469770
  H        2.5641180     0.3366430    -1.0800470
  H        3.2219480    -0.9400230    -0.0411410
  H        0.9206510     2.2208510    -0.6190080
  H        0.0756270     2.3767260     0.9415890
  H       -0.8611500     2.1650270    -0.5546380
  H       -0.1986710    -2.0759730    -0.3046340
  H       -1.8731440    -2.0716480    -0.1344710
units angstrom
no_reorient  #important for SAPT in psi4, default
symmetry c1  #important for SAPT in psi4, default
}

set PROPERTIES_ORIGIN ["COM"]
properties('MP2/aug-cc-pvtz', properties = ['dipole'])
--------------------------------------------------------------------------

    Molecular point group: c1
  Charge       = 0
  Multiplicity = 1
  Basis Set: AUG-CC-PVTZ
    Blend: AUG-CC-PVTZ
  Basis Set: (AUG-CC-PVTZ AUX)
    Blend: AUG-CC-PVTZ-JKFIT

    Orbital Energies [Eh]
    ---------------------

    Doubly Occupied:

       1A    -20.505807     2A    -15.582994     3A    -15.577177
       4A    -11.372598     5A    -11.285148     6A    -11.253595
       7A    -11.233888     8A     -1.379627     9A     -1.249346
      10A     -1.189949    11A     -1.030937    12A     -0.944548
      13A     -0.872739    14A     -0.760019    15A     -0.723361
      16A     -0.683705    17A     -0.640330    18A     -0.629238
      19A     -0.603885    20A     -0.587967    21A     -0.560602
      22A     -0.557416    23A     -0.535557    24A     -0.526089
      25A     -0.496138    26A     -0.441117    27A     -0.417056
      28A     -0.373508

  @DF-RHF Final Energy:  -341.19783023123330

   => Energetics <=

    Nuclear Repulsion Energy =            325.8902964313453481
    One-Electron Energy =               -1110.1475685426396467
    Two-Electron Energy =                 443.0594418800609446
    Total Energy =                       -341.1978302312332971
  Basis Set: (AUG-CC-PVTZ AUX)
    Blend: AUG-CC-PVTZ-RI
    Molecular point group: c1

    Geometry (in Angstrom), charge = 0, multiplicity = 1:

       Center              X                  Y                   Z               Mass
    ------------   -----------------  -----------------  -----------------  -----------------
         O           -2.107806841525     0.305642975063    -0.215095019127    15.994914619570
         N            0.168313158475     0.442522975063     0.090661980873    14.003074004430
         N           -0.915046841525    -1.631111024937     0.129799980873    14.003074004430
         C            1.391165158475    -0.153329024937     0.613568980873    12.000000000000
         C            2.385538158475    -0.532812024937    -0.481052019127    12.000000000000
         C            0.138826158475     1.889068975063    -0.043756019127    12.000000000000
         C           -1.019569841525    -0.241965024937    -0.025172019127    12.000000000000
         H            1.848207158475     0.575919975063     1.293132980873     1.007825032230
         H            1.101904858475    -1.101972524937     1.276470080873     1.007825032230
         H            1.964552158475    -1.287712024937    -1.151587019127     1.007825032230
         H            2.647270158475     0.340074975063    -1.084657019127     1.007825032230
         H            3.305100158475    -0.936591024937    -0.045751019127     1.007825032230
         H            1.003803158475     2.224282975063    -0.623618019127     1.007825032230
         H            0.158779158475     2.380157975063     0.936978980873     1.007825032230
         H           -0.777997841525     2.168458975063    -0.559248019127     1.007825032230
         H           -0.115518841525    -2.072541024937    -0.309244019127     1.007825032230
         H           -1.789991841525    -2.068216024937    -0.139081019127     1.007825032230

  Basis Set: AUG-CC-PVTZ
    Blend: AUG-CC-PVTZ
  Basis Set: (AUG-CC-PVTZ AUX)
    Blend: AUG-CC-PVTZ-JKFIT
	 Reference Energy          =    -341.1978302312332971 [Eh]
	 Singles Energy            =      -0.0000000000000000 [Eh]
	 Same-Spin Energy          =      -0.3491566920100724 [Eh]
	 Opposite-Spin Energy      =      -1.1406180044596159 [Eh]
	 Correlation Energy        =      -1.4897746964696883 [Eh]
	 Total Energy              =    -342.6876049277029779 [Eh]

	 ================> DF-SCS-MP2 Energies <==================
	-----------------------------------------------------------
	 SCS Same-Spin Scale       =       0.3333333333333333 [-]
	 SCS Opposite-Spin Scale   =       1.2000000000000000 [-]
	 SCS Same-Spin Energy      =      -0.1163855640033575 [Eh]
	 SCS Opposite-Spin Energy  =      -1.3687416053515391 [Eh]
	 SCS Correlation Energy    =      -1.4851271693548966 [Eh]
	 SCS Total Energy          =    -342.6829574005881796 [Eh]
	-----------------------------------------------------------

  Dipole Moment: [D]
     X:     3.7995      Y:    -1.1360      Z:    -0.2157     Total:     3.9715

*** Psi4 exiting successfully. Buy a developer a beer!
