                               Psi4 1.4a3.dev225

  ==> Input File <==

--------------------------------------------------------------------------
#psi4
#
memory 32 gb

molecule  {
0 1
  O       -2.1909590     0.3022110    -0.2104850
  N        0.0851610     0.4390910     0.0952720
  N       -0.9981990    -1.6345430     0.1344100
  C        1.3247950    -0.1649383     0.6253552
  C        2.3023860    -0.5362440    -0.4764420
  C        0.0556740     1.8856370    -0.0391460
  C       -1.1027220    -0.2453970    -0.0205620
  H        1.7650550     0.5724880     1.2977430
  H        1.0430010    -1.0258810     1.2255100
  H        1.8814000    -1.2911440    -1.1469770
  H        2.5641180     0.3366430    -1.0800470
  H        3.2219480    -0.9400230    -0.0411410
  H        0.9206510     2.2208510    -0.6190080
  H        0.0756270     2.3767260     0.9415890
  H       -0.8611500     2.1650270    -0.5546380
  H       -0.1986710    -2.0759730    -0.3046340
  H       -1.8731440    -2.0716480    -0.1344710
units angstrom
no_reorient  #important for SAPT in psi4, default
symmetry c1  #important for SAPT in psi4, default
}

set PROPERTIES_ORIGIN ["COM"]
properties('MP2/aug-cc-pvtz', properties = ['dipole'])
--------------------------------------------------------------------------

    Molecular point group: c1
  Charge       = 0
  Multiplicity = 1
  Basis Set: AUG-CC-PVTZ
    Blend: AUG-CC-PVTZ
  Basis Set: (AUG-CC-PVTZ AUX)
    Blend: AUG-CC-PVTZ-JKFIT

    Orbital Energies [Eh]
    ---------------------

    Doubly Occupied:

       1A    -20.504767     2A    -15.581029     3A    -15.577025
       4A    -11.371478     5A    -11.274783     6A    -11.252132
       7A    -11.233602     8A     -1.378315     9A     -1.245628
      10A     -1.188892    11A     -1.036100    12A     -0.942887
      13A     -0.875564    14A     -0.761569    15A     -0.726551
      16A     -0.682988    17A     -0.638371    18A     -0.633763
      19A     -0.604029    20A     -0.588777    21A     -0.560125
      22A     -0.556633    23A     -0.540155    24A     -0.523313
      25A     -0.506835    26A     -0.440139    27A     -0.417454
      28A     -0.373096

  @DF-RHF Final Energy:  -341.20447034341174

   => Energetics <=

    Nuclear Repulsion Energy =            326.0253565136618477
    One-Electron Energy =               -1110.4276578425415209
    Two-Electron Energy =                 443.1978309854679878
    Total Energy =                       -341.2044703434117423
  Basis Set: (AUG-CC-PVTZ AUX)
    Blend: AUG-CC-PVTZ-RI
    Molecular point group: c1

    Geometry (in Angstrom), charge = 0, multiplicity = 1:

       Center              X                  Y                   Z               Mass
    ------------   -----------------  -----------------  -----------------  -----------------
         O           -2.110019062956     0.305819130501    -0.215389980577    15.994914619570
         N            0.166100937044     0.442699130501     0.090367019423    14.003074004430
         N           -0.917259062956    -1.630934869499     0.129505019423    14.003074004430
         C            1.405734937044    -0.161330169499     0.620450219423    12.000000000000
         C            2.383325937044    -0.532635869499    -0.481346980577    12.000000000000
         C            0.136613937044     1.889245130501    -0.044050980577    12.000000000000
         C           -1.021782062956    -0.241788869499    -0.025466980577    12.000000000000
         H            1.845994937044     0.576096130501     1.292838019423     1.007825032230
         H            1.123940937044    -1.022272869499     1.220605019423     1.007825032230
         H            1.962339937044    -1.287535869499    -1.151881980577     1.007825032230
         H            2.645057937044     0.340251130501    -1.084951980577     1.007825032230
         H            3.302887937044    -0.936414869499    -0.046045980577     1.007825032230
         H            1.001590937044     2.224459130501    -0.623912980577     1.007825032230
         H            0.156566937044     2.380334130501     0.936684019423     1.007825032230
         H           -0.780210062956     2.168635130501    -0.559542980577     1.007825032230
         H           -0.117731062956    -2.072364869499    -0.309538980577     1.007825032230
         H           -1.792204062956    -2.068039869499    -0.139375980577     1.007825032230

  Basis Set: AUG-CC-PVTZ
    Blend: AUG-CC-PVTZ
  Basis Set: (AUG-CC-PVTZ AUX)
    Blend: AUG-CC-PVTZ-JKFIT
	 Reference Energy          =    -341.2044703434117423 [Eh]
	 Singles Energy            =      -0.0000000000000000 [Eh]
	 Same-Spin Energy          =      -0.3488242149172127 [Eh]
	 Opposite-Spin Energy      =      -1.1396264732704426 [Eh]
	 Correlation Energy        =      -1.4884506881876554 [Eh]
	 Total Energy              =    -342.6929210315993828 [Eh]

	 ================> DF-SCS-MP2 Energies <==================
	-----------------------------------------------------------
	 SCS Same-Spin Scale       =       0.3333333333333333 [-]
	 SCS Opposite-Spin Scale   =       1.2000000000000000 [-]
	 SCS Same-Spin Energy      =      -0.1162747383057375 [Eh]
	 SCS Opposite-Spin Energy  =      -1.3675517679245310 [Eh]
	 SCS Correlation Energy    =      -1.4838265062302687 [Eh]
	 SCS Total Energy          =    -342.6882968496420290 [Eh]
	-----------------------------------------------------------

  Dipole Moment: [D]
     X:     3.8785      Y:    -1.1809      Z:    -0.1689     Total:     4.0578

*** Psi4 exiting successfully. Buy a developer a beer!
