                               Psi4 1.4a3.dev225

  ==> Input File <==

--------------------------------------------------------------------------
#psi4
#
memory 32 gb

molecule  {
0 1
  O       -2.1909590     0.3022110    -0.2104850
  N        0.0851610     0.4390910     0.0952720
  N       -0.9981990    -1.6345430     0.1344100
  C        1.3080130    -0.1567610     0.6181790
  C        2.3023860    -0.5362440    -0.4764420
  C        0.0556740     1.8856370    -0.0391460
  C       -1.1027220    -0.2453970    -0.0205620
  H        1.7650550     0.5724880     1.2977430
  H        1.0430010    -1.0258810     1.2255100
  H        1.8814000    -1.2911440    -1.1469770
  H        2.5824579     0.3341217    -1.0754393
  H        3.2219480    -0.9400230    -0.0411410
  H        0.9206510     2.2208510    -0.6190080
  H        0.0756270     2.3767260     0.9415890
  H       -0.8611500     2.1650270    -0.5546380
  H       -0.1986710    -2.0759730    -0.3046340
  H       -1.8731440    -2.0716480    -0.1344710
units angstrom
no_reorient  #important for SAPT in psi4, default
symmetry c1  #important for SAPT in psi4, default
}

set PROPERTIES_ORIGIN ["COM"]
properties('MP2/aug-cc-pvtz', properties = ['dipole'])
--------------------------------------------------------------------------

    Molecular point group: c1
  Charge       = 0
  Multiplicity = 1
  Basis Set: AUG-CC-PVTZ
    Blend: AUG-CC-PVTZ
  Basis Set: (AUG-CC-PVTZ AUX)
    Blend: AUG-CC-PVTZ-JKFIT

    Orbital Energies [Eh]
    ---------------------

    Doubly Occupied:

       1A    -20.505592     2A    -15.581872     3A    -15.577536
       4A    -11.372390     5A    -11.274421     6A    -11.252752
       7A    -11.233002     8A     -1.379438     9A     -1.249379
      10A     -1.190051    11A     -1.033700    12A     -0.944227
      13A     -0.876429    14A     -0.762293    15A     -0.727730
      16A     -0.684423    17A     -0.639819    18A     -0.633148
      19A     -0.604164    20A     -0.588219    21A     -0.560311
      22A     -0.556952    23A     -0.537083    24A     -0.525623
      25A     -0.505586    26A     -0.440955    27A     -0.417851
      28A     -0.373270

  @DF-RHF Final Energy:  -341.20480268113357

   => Energetics <=

    Nuclear Repulsion Energy =            326.2904940207845357
    One-Electron Energy =               -1110.9341666692680519
    Two-Electron Energy =                 443.4388699673499445
    Total Energy =                       -341.2048026811335717
  Basis Set: (AUG-CC-PVTZ AUX)
    Blend: AUG-CC-PVTZ-RI
    Molecular point group: c1

    Geometry (in Angstrom), charge = 0, multiplicity = 1:

       Center              X                  Y                   Z               Mass
    ------------   -----------------  -----------------  -----------------  -----------------
         O           -2.108227313145     0.304882735379    -0.214591869361    15.994914619570
         N            0.167892686855     0.441762735379     0.091165130639    14.003074004430
         N           -0.915467313145    -1.631871264621     0.130303130639    14.003074004430
         C            1.390744686855    -0.154089264621     0.614072130639    12.000000000000
         C            2.385117686855    -0.533572264621    -0.480548869361    12.000000000000
         C            0.138405686855     1.888308735379    -0.043252869361    12.000000000000
         C           -1.019990313145    -0.242725264621    -0.024668869361    12.000000000000
         H            1.847786686855     0.575159735379     1.293636130639     1.007825032230
         H            1.125732686855    -1.023209264621     1.221403130639     1.007825032230
         H            1.964131686855    -1.288472264621    -1.151083869361     1.007825032230
         H            2.665189586855     0.336793435379    -1.079546169361     1.007825032230
         H            3.304679686855    -0.937351264621    -0.045247869361     1.007825032230
         H            1.003382686855     2.223522735379    -0.623114869361     1.007825032230
         H            0.158358686855     2.379397735379     0.937482130639     1.007825032230
         H           -0.778418313145     2.167698735379    -0.558744869361     1.007825032230
         H           -0.115939313145    -2.073301264621    -0.308740869361     1.007825032230
         H           -1.790412313145    -2.068976264621    -0.138577869361     1.007825032230

  Basis Set: AUG-CC-PVTZ
    Blend: AUG-CC-PVTZ
  Basis Set: (AUG-CC-PVTZ AUX)
    Blend: AUG-CC-PVTZ-JKFIT
	 Reference Energy          =    -341.2048026811335717 [Eh]
	 Singles Energy            =      -0.0000000000000000 [Eh]
	 Same-Spin Energy          =      -0.3488941876729674 [Eh]
	 Opposite-Spin Energy      =      -1.1396068429304782 [Eh]
	 Correlation Energy        =      -1.4885010306034456 [Eh]
	 Total Energy              =    -342.6933037117370304 [Eh]

	 ================> DF-SCS-MP2 Energies <==================
	-----------------------------------------------------------
	 SCS Same-Spin Scale       =       0.3333333333333333 [-]
	 SCS Opposite-Spin Scale   =       1.2000000000000000 [-]
	 SCS Same-Spin Energy      =      -0.1162980625576558 [Eh]
	 SCS Opposite-Spin Energy  =      -1.3675282115165739 [Eh]
	 SCS Correlation Energy    =      -1.4838262740742296 [Eh]
	 SCS Total Energy          =    -342.6886289552077756 [Eh]
	-----------------------------------------------------------

  Dipole Moment: [D]
     X:     3.8209      Y:    -1.1634      Z:    -0.1778     Total:     3.9981

*** Psi4 exiting successfully. Buy a developer a beer!
