                               Psi4 1.4a3.dev225

  ==> Input File <==

--------------------------------------------------------------------------
#psi4
#
memory 32 gb

molecule  {
0 1
  O       -2.1909590     0.3022110    -0.2104850
  N        0.0851610     0.4390910     0.0952720
  N       -0.9981990    -1.6345430     0.1344100
  C        1.3440060    -0.1226911     0.6377671
  C        2.3023860    -0.5362440    -0.4764420
  C        0.0556740     1.8856370    -0.0391460
  C       -1.1027220    -0.2453970    -0.0205620
  H        1.7650550     0.5724880     1.2977430
  H        1.0430010    -1.0258810     1.2255100
  H        1.8814000    -1.2911440    -1.1469770
  H        2.5641180     0.3366430    -1.0800470
  H        3.2219480    -0.9400230    -0.0411410
  H        0.9206510     2.2208510    -0.6190080
  H        0.0756270     2.3767260     0.9415890
  H       -0.8611500     2.1650270    -0.5546380
  H       -0.1986710    -2.0759730    -0.3046340
  H       -1.8731440    -2.0716480    -0.1344710
units angstrom
no_reorient  #important for SAPT in psi4, default
symmetry c1  #important for SAPT in psi4, default
}

set PROPERTIES_ORIGIN ["COM"]
properties('MP2/aug-cc-pvtz', properties = ['dipole'])
--------------------------------------------------------------------------

    Molecular point group: c1
  Charge       = 0
  Multiplicity = 1
  Basis Set: AUG-CC-PVTZ
    Blend: AUG-CC-PVTZ
  Basis Set: (AUG-CC-PVTZ AUX)
    Blend: AUG-CC-PVTZ-JKFIT

    Orbital Energies [Eh]
    ---------------------

    Doubly Occupied:

       1A    -20.505158     2A    -15.580719     3A    -15.576887
       4A    -11.372252     5A    -11.274800     6A    -11.251262
       7A    -11.234031     8A     -1.378366     9A     -1.244741
      10A     -1.188869    11A     -1.034912    12A     -0.941842
      13A     -0.878073    14A     -0.761543    15A     -0.723889
      16A     -0.684829    17A     -0.638793    18A     -0.635770
      19A     -0.604861    20A     -0.586957    21A     -0.558552
      22A     -0.556389    23A     -0.542496    24A     -0.524653
      25A     -0.501957    26A     -0.440338    27A     -0.417924
      28A     -0.372868

  @DF-RHF Final Energy:  -341.20140293540430

   => Energetics <=

    Nuclear Repulsion Energy =            325.7933552848426757
    One-Electron Energy =               -1109.9620536398540480
    Two-Electron Energy =                 442.9672954196071260
    Total Energy =                       -341.2014029354043032
  Basis Set: (AUG-CC-PVTZ AUX)
    Blend: AUG-CC-PVTZ-RI
    Molecular point group: c1

    Geometry (in Angstrom), charge = 0, multiplicity = 1:

       Center              X                  Y                   Z               Mass
    ------------   -----------------  -----------------  -----------------  -----------------
         O           -2.112277424551     0.300852733438    -0.216849069551    15.994914619570
         N            0.163842575449     0.437732733438     0.088907930449    14.003074004430
         N           -0.919517424551    -1.635901266562     0.128045930449    14.003074004430
         C            1.422687575449    -0.124049366562     0.631403030449    12.000000000000
         C            2.381067575449    -0.537602266562    -0.482806069551    12.000000000000
         C            0.134355575449     1.884278733438    -0.045510069551    12.000000000000
         C           -1.024040424551    -0.246755266562    -0.026926069551    12.000000000000
         H            1.843736575449     0.571129733438     1.291378930449     1.007825032230
         H            1.121682575449    -1.027239266562     1.219145930449     1.007825032230
         H            1.960081575449    -1.292502266562    -1.153341069551     1.007825032230
         H            2.642799575449     0.335284733438    -1.086411069551     1.007825032230
         H            3.300629575449    -0.941381266562    -0.047505069551     1.007825032230
         H            0.999332575449     2.219492733438    -0.625372069551     1.007825032230
         H            0.154308575449     2.375367733438     0.935224930449     1.007825032230
         H           -0.782468424551     2.163668733438    -0.561002069551     1.007825032230
         H           -0.119989424551    -2.077331266562    -0.310998069551     1.007825032230
         H           -1.794462424551    -2.073006266562    -0.140835069551     1.007825032230

  Basis Set: AUG-CC-PVTZ
    Blend: AUG-CC-PVTZ
  Basis Set: (AUG-CC-PVTZ AUX)
    Blend: AUG-CC-PVTZ-JKFIT
	 Reference Energy          =    -341.2014029354043032 [Eh]
	 Singles Energy            =      -0.0000000000000000 [Eh]
	 Same-Spin Energy          =      -0.3488223570009441 [Eh]
	 Opposite-Spin Energy      =      -1.1397925410535765 [Eh]
	 Correlation Energy        =      -1.4886148980545206 [Eh]
	 Total Energy              =    -342.6900178334587963 [Eh]

	 ================> DF-SCS-MP2 Energies <==================
	-----------------------------------------------------------
	 SCS Same-Spin Scale       =       0.3333333333333333 [-]
	 SCS Opposite-Spin Scale   =       1.2000000000000000 [-]
	 SCS Same-Spin Energy      =      -0.1162741190003147 [Eh]
	 SCS Opposite-Spin Energy  =      -1.3677510492642917 [Eh]
	 SCS Correlation Energy    =      -1.4840251682646064 [Eh]
	 SCS Total Energy          =    -342.6854281036689258 [Eh]
	-----------------------------------------------------------

  Dipole Moment: [D]
     X:     3.8871      Y:    -1.1671      Z:    -0.1511     Total:     4.0614

*** Psi4 exiting successfully. Buy a developer a beer!
