                               Psi4 1.4a3.dev225

  ==> Input File <==

--------------------------------------------------------------------------
#psi4
#
memory 32 gb

molecule  {
0 1
  O       -2.1909590     0.3022110    -0.2104850
  N        0.0851610     0.4390910     0.0952720
  N       -0.9981990    -1.6345430     0.1344100
  C        1.3080130    -0.1567610     0.6181790
  C        2.3023860    -0.5362440    -0.4764420
  C        0.0556740     1.8856370    -0.0391460
  C       -1.1027220    -0.2453970    -0.0205620
  H        1.7650550     0.5724880     1.2977430
  H        1.0430010    -1.0258810     1.2255100
  H        1.8814000    -1.2911440    -1.1469770
  H        2.5641180     0.3366430    -1.0800470
  H        3.2387500    -0.9474007    -0.0331873
  H        0.9206510     2.2208510    -0.6190080
  H        0.0756270     2.3767260     0.9415890
  H       -0.8611500     2.1650270    -0.5546380
  H       -0.1986710    -2.0759730    -0.3046340
  H       -1.8731440    -2.0716480    -0.1344710
units angstrom
no_reorient  #important for SAPT in psi4, default
symmetry c1  #important for SAPT in psi4, default
}

set PROPERTIES_ORIGIN ["COM"]
properties('MP2/aug-cc-pvtz', properties = ['dipole'])
--------------------------------------------------------------------------

    Molecular point group: c1
  Charge       = 0
  Multiplicity = 1
  Basis Set: AUG-CC-PVTZ
    Blend: AUG-CC-PVTZ
  Basis Set: (AUG-CC-PVTZ AUX)
    Blend: AUG-CC-PVTZ-JKFIT

    Orbital Energies [Eh]
    ---------------------

    Doubly Occupied:

       1A    -20.505738     2A    -15.582101     3A    -15.577618
       4A    -11.372536     5A    -11.274472     6A    -11.252926
       7A    -11.235458     8A     -1.379581     9A     -1.249560
      10A     -1.190159    11A     -1.032986    12A     -0.944250
      13A     -0.875165    14A     -0.762424    15A     -0.727877
      16A     -0.684402    17A     -0.639569    18A     -0.632897
      19A     -0.604094    20A     -0.588156    21A     -0.559466
      22A     -0.556722    23A     -0.537098    24A     -0.524418
      25A     -0.505561    26A     -0.441066    27A     -0.417948
      28A     -0.373429

  @DF-RHF Final Energy:  -341.20430992044095

   => Energetics <=

    Nuclear Repulsion Energy =            326.2292740358361698
    One-Electron Energy =               -1110.8118159172634023
    Two-Electron Energy =                 443.3782319609862839
    Total Energy =                       -341.2043099204409486
  Basis Set: (AUG-CC-PVTZ AUX)
    Blend: AUG-CC-PVTZ-RI
    Molecular point group: c1

    Geometry (in Angstrom), charge = 0, multiplicity = 1:

       Center              X                  Y                   Z               Mass
    ------------   -----------------  -----------------  -----------------  -----------------
         O           -2.108212129519     0.304930682424    -0.214624904287    15.994914619570
         N            0.167907870481     0.441810682424     0.091132095713    14.003074004430
         N           -0.915452129519    -1.631823317576     0.130270095713    14.003074004430
         C            1.390759870481    -0.154041317576     0.614039095713    12.000000000000
         C            2.385132870481    -0.533524317576    -0.480581904287    12.000000000000
         C            0.138420870481     1.888356682424    -0.043285904287    12.000000000000
         C           -1.019975129519    -0.242677317576    -0.024701904287    12.000000000000
         H            1.847801870481     0.575207682424     1.293603095713     1.007825032230
         H            1.125747870481    -1.023161317576     1.221370095713     1.007825032230
         H            1.964146870481    -1.288424317576    -1.151116904287     1.007825032230
         H            2.646864870481     0.339362682424    -1.084186904287     1.007825032230
         H            3.321496870481    -0.944681017576    -0.037327204287     1.007825032230
         H            1.003397870481     2.223570682424    -0.623147904287     1.007825032230
         H            0.158373870481     2.379445682424     0.937449095713     1.007825032230
         H           -0.778403129519     2.167746682424    -0.558777904287     1.007825032230
         H           -0.115924129519    -2.073253317576    -0.308773904287     1.007825032230
         H           -1.790397129519    -2.068928317576    -0.138610904287     1.007825032230

  Basis Set: AUG-CC-PVTZ
    Blend: AUG-CC-PVTZ
  Basis Set: (AUG-CC-PVTZ AUX)
    Blend: AUG-CC-PVTZ-JKFIT
	 Reference Energy          =    -341.2043099204409486 [Eh]
	 Singles Energy            =      -0.0000000000000000 [Eh]
	 Same-Spin Energy          =      -0.3488943166785400 [Eh]
	 Opposite-Spin Energy      =      -1.1397455816632811 [Eh]
	 Correlation Energy        =      -1.4886398983418212 [Eh]
	 Total Energy              =    -342.6929498187827789 [Eh]

	 ================> DF-SCS-MP2 Energies <==================
	-----------------------------------------------------------
	 SCS Same-Spin Scale       =       0.3333333333333333 [-]
	 SCS Opposite-Spin Scale   =       1.2000000000000000 [-]
	 SCS Same-Spin Energy      =      -0.1162981055595133 [Eh]
	 SCS Opposite-Spin Energy  =      -1.3676946979959372 [Eh]
	 SCS Correlation Energy    =      -1.4839928035554506 [Eh]
	 SCS Total Energy          =    -342.6883027239964008 [Eh]
	-----------------------------------------------------------

  Dipole Moment: [D]
     X:     3.8005      Y:    -1.1591      Z:    -0.1812     Total:     3.9775

*** Psi4 exiting successfully. Buy a developer a beer!
