                               Psi4 1.4a3.dev225

  ==> Input File <==

--------------------------------------------------------------------------
#psi4
#
memory 32 gb

molecule  {
0 1
  O       -2.1909590     0.3022110    -0.2104850
  N        0.0851610     0.4390910     0.0952720
  N       -0.9981990    -1.6345430     0.1344100
  C        1.3080130    -0.1567610     0.6181790
  C        2.3023860    -0.5362440    -0.4764420
  C        0.0516154     2.0847381    -0.0576472
  C       -1.1027220    -0.2453970    -0.0205620
  H        1.7650550     0.5724880     1.2977430
  H        1.0430010    -1.0258810     1.2255100
  H        1.8814000    -1.2911440    -1.1469770
  H        2.5641180     0.3366430    -1.0800470
  H        3.2219480    -0.9400230    -0.0411410
  H        0.9206510     2.2208510    -0.6190080
  H        0.0756270     2.3767260     0.9415890
  H       -0.8611500     2.1650270    -0.5546380
  H       -0.1986710    -2.0759730    -0.3046340
  H       -1.8731440    -2.0716480    -0.1344710
units angstrom
no_reorient  #important for SAPT in psi4, default
symmetry c1  #important for SAPT in psi4, default
}

set PROPERTIES_ORIGIN ["COM"]
properties('MP2/aug-cc-pvtz', properties = ['dipole'])
--------------------------------------------------------------------------

    Molecular point group: c1
  Charge       = 0
  Multiplicity = 1
  Basis Set: AUG-CC-PVTZ
    Blend: AUG-CC-PVTZ
  Basis Set: (AUG-CC-PVTZ AUX)
    Blend: AUG-CC-PVTZ-JKFIT

    Orbital Energies [Eh]
    ---------------------

    Doubly Occupied:

       1A    -20.499301     2A    -15.573569     3A    -15.572226
       4A    -11.365505     5A    -11.269182     6A    -11.262715
       7A    -11.229755     8A     -1.370461     9A     -1.226776
      10A     -1.174938    11A     -1.023960    12A     -0.956176
      13A     -0.868152    14A     -0.754712    15A     -0.716721
      16A     -0.675131    17A     -0.639637    18A     -0.628142
      19A     -0.605077    20A     -0.592076    21A     -0.570259
      22A     -0.561299    23A     -0.533542    24A     -0.522478
      25A     -0.487028    26A     -0.435973    27A     -0.412133
      28A     -0.369612

  @DF-RHF Final Energy:  -341.17726909387335

   => Energetics <=

    Nuclear Repulsion Energy =            322.6925654750388048
    One-Electron Energy =               -1103.9466020219283564
    Two-Electron Energy =                 440.0767674530162026
    Total Energy =                       -341.1772690938733490
  Basis Set: (AUG-CC-PVTZ AUX)
    Blend: AUG-CC-PVTZ-RI
    Molecular point group: c1

    Geometry (in Angstrom), charge = 0, multiplicity = 1:

       Center              X                  Y                   Z               Mass
    ------------   -----------------  -----------------  -----------------  -----------------
         O           -2.107569132673     0.281452383429    -0.212371457126    15.994914619570
         N            0.168550867327     0.418332383429     0.093385542874    14.003074004430
         N           -0.914809132673    -1.655301616571     0.132523542874    14.003074004430
         C            1.391402867327    -0.177519616571     0.616292542874    12.000000000000
         C            2.385775867327    -0.557002616571    -0.478328457126    12.000000000000
         C            0.135005267327     2.063979483429    -0.059533657126    12.000000000000
         C           -1.019332132673    -0.266155616571    -0.022448457126    12.000000000000
         H            1.848444867327     0.551729383429     1.295856542874     1.007825032230
         H            1.126390867327    -1.046639616571     1.223623542874     1.007825032230
         H            1.964789867327    -1.311902616571    -1.148863457126     1.007825032230
         H            2.647507867327     0.315884383429    -1.081933457126     1.007825032230
         H            3.305337867327    -0.960781616571    -0.043027457126     1.007825032230
         H            1.004040867327     2.200092383429    -0.620894457126     1.007825032230
         H            0.159016867327     2.355967383429     0.939702542874     1.007825032230
         H           -0.777760132673     2.144268383429    -0.556524457126     1.007825032230
         H           -0.115281132673    -2.096731616571    -0.306520457126     1.007825032230
         H           -1.789754132673    -2.092406616571    -0.136357457126     1.007825032230

  Basis Set: AUG-CC-PVTZ
    Blend: AUG-CC-PVTZ
  Basis Set: (AUG-CC-PVTZ AUX)
    Blend: AUG-CC-PVTZ-JKFIT
	 Reference Energy          =    -341.1772690938733490 [Eh]
	 Singles Energy            =      -0.0000000000000000 [Eh]
	 Same-Spin Energy          =      -0.3487728267201753 [Eh]
	 Opposite-Spin Energy      =      -1.1413633672784447 [Eh]
	 Correlation Energy        =      -1.4901361939986200 [Eh]
	 Total Energy              =    -342.6674052878719863 [Eh]

	 ================> DF-SCS-MP2 Energies <==================
	-----------------------------------------------------------
	 SCS Same-Spin Scale       =       0.3333333333333333 [-]
	 SCS Opposite-Spin Scale   =       1.2000000000000000 [-]
	 SCS Same-Spin Energy      =      -0.1162576089067251 [Eh]
	 SCS Opposite-Spin Energy  =      -1.3696360407341335 [Eh]
	 SCS Correlation Energy    =      -1.4858936496408586 [Eh]
	 SCS Total Energy          =    -342.6631627435141922 [Eh]
	-----------------------------------------------------------

  Dipole Moment: [D]
     X:     3.9053      Y:    -0.6740      Z:    -0.1562     Total:     3.9661

*** Psi4 exiting successfully. Buy a developer a beer!
