                               Psi4 1.4a3.dev225

  ==> Input File <==

--------------------------------------------------------------------------
#psi4
#
memory 32 gb

molecule  {
0 1
  O       -2.1909590     0.3022110    -0.2104850
  N        0.0851610     0.4390910     0.0952720
  N       -0.9981990    -1.6345430     0.1344100
  C        1.3080130    -0.1567610     0.6181790
  C        2.3023860    -0.5362440    -0.4764420
  C        0.0556740     1.8856370    -0.0391460
  C       -1.0989935    -0.2949504    -0.0150339
  H        1.7650550     0.5724880     1.2977430
  H        1.0430010    -1.0258810     1.2255100
  H        1.8814000    -1.2911440    -1.1469770
  H        2.5641180     0.3366430    -1.0800470
  H        3.2219480    -0.9400230    -0.0411410
  H        0.9206510     2.2208510    -0.6190080
  H        0.0756270     2.3767260     0.9415890
  H       -0.8611500     2.1650270    -0.5546380
  H       -0.1986710    -2.0759730    -0.3046340
  H       -1.8731440    -2.0716480    -0.1344710
units angstrom
no_reorient  #important for SAPT in psi4, default
symmetry c1  #important for SAPT in psi4, default
}

set PROPERTIES_ORIGIN ["COM"]
properties('MP2/aug-cc-pvtz', properties = ['dipole'])
--------------------------------------------------------------------------

    Molecular point group: c1
  Charge       = 0
  Multiplicity = 1
  Basis Set: AUG-CC-PVTZ
    Blend: AUG-CC-PVTZ
  Basis Set: (AUG-CC-PVTZ AUX)
    Blend: AUG-CC-PVTZ-JKFIT

    Orbital Energies [Eh]
    ---------------------

    Doubly Occupied:

       1A    -20.500360     2A    -15.586877     3A    -15.579242
       4A    -11.373876     5A    -11.272021     6A    -11.250851
       7A    -11.232234     8A     -1.367893     9A     -1.241545
      10A     -1.207186    11A     -1.030592    12A     -0.941453
      13A     -0.872188    14A     -0.774324    15A     -0.734584
      16A     -0.685410    17A     -0.636538    18A     -0.634678
      19A     -0.595166    20A     -0.590022    21A     -0.560099
      22A     -0.558366    23A     -0.535614    24A     -0.520355
      25A     -0.503829    26A     -0.434711    27A     -0.419556
      28A     -0.368249

  @DF-RHF Final Energy:  -341.19962832745045

   => Energetics <=

    Nuclear Repulsion Energy =            326.1335582257297006
    One-Electron Energy =               -1110.6507384462818209
    Two-Electron Energy =                 443.3175518931016086
    Total Energy =                       -341.1996283274504549
  Basis Set: (AUG-CC-PVTZ AUX)
    Blend: AUG-CC-PVTZ-RI
    Molecular point group: c1

    Geometry (in Angstrom), charge = 0, multiplicity = 1:

       Center              X                  Y                   Z               Mass
    ------------   -----------------  -----------------  -----------------  -----------------
         O           -2.108484550277     0.310683124837    -0.215196237110    15.994914619570
         N            0.167635449723     0.447563124837     0.090560762890    14.003074004430
         N           -0.915724550277    -1.626070875163     0.129698762890    14.003074004430
         C            1.390487449723    -0.148288875163     0.613467762890    12.000000000000
         C            2.384860449723    -0.527771875163    -0.481153237110    12.000000000000
         C            0.138148449723     1.894109124837    -0.043857237110    12.000000000000
         C           -1.016519050277    -0.286478275163    -0.019745137110    12.000000000000
         H            1.847529449723     0.580960124837     1.293031762890     1.007825032230
         H            1.125475449723    -1.017408875163     1.220798762890     1.007825032230
         H            1.963874449723    -1.282671875163    -1.151688237110     1.007825032230
         H            2.646592449723     0.345115124837    -1.084758237110     1.007825032230
         H            3.304422449723    -0.931550875163    -0.045852237110     1.007825032230
         H            1.003125449723     2.229323124837    -0.623719237110     1.007825032230
         H            0.158101449723     2.385198124837     0.936877762890     1.007825032230
         H           -0.778675550277     2.173499124837    -0.559349237110     1.007825032230
         H           -0.116196550277    -2.067500875163    -0.309345237110     1.007825032230
         H           -1.790669550277    -2.063175875163    -0.139182237110     1.007825032230

  Basis Set: AUG-CC-PVTZ
    Blend: AUG-CC-PVTZ
  Basis Set: (AUG-CC-PVTZ AUX)
    Blend: AUG-CC-PVTZ-JKFIT
	 Reference Energy          =    -341.1996283274504549 [Eh]
	 Singles Energy            =      -0.0000000000000000 [Eh]
	 Same-Spin Energy          =      -0.3494980887140827 [Eh]
	 Opposite-Spin Energy      =      -1.1404308667643264 [Eh]
	 Correlation Energy        =      -1.4899289554784090 [Eh]
	 Total Energy              =    -342.6895572829288881 [Eh]

	 ================> DF-SCS-MP2 Energies <==================
	-----------------------------------------------------------
	 SCS Same-Spin Scale       =       0.3333333333333333 [-]
	 SCS Opposite-Spin Scale   =       1.2000000000000000 [-]
	 SCS Same-Spin Energy      =      -0.1164993629046942 [Eh]
	 SCS Opposite-Spin Energy  =      -1.3685170401171916 [Eh]
	 SCS Correlation Energy    =      -1.4850164030218858 [Eh]
	 SCS Total Energy          =    -342.6846447304723142 [Eh]
	-----------------------------------------------------------

  Dipole Moment: [D]
     X:     3.8046      Y:    -1.5578      Z:    -0.1546     Total:     4.1141

*** Psi4 exiting successfully. Buy a developer a beer!
