                               Psi4 1.4a3.dev225

  ==> Input File <==

--------------------------------------------------------------------------
#psi4
#
memory 32 gb

molecule  {
0 1
  O       -2.1909590     0.3022110    -0.2104850
  N        0.0851610     0.4390910     0.0952720
  N       -0.9981990    -1.6345430     0.1344100
  C        1.3080894    -0.2074801     0.6345345
  C        2.3023860    -0.5362440    -0.4764420
  C        0.0556740     1.8856370    -0.0391460
  C       -1.1027220    -0.2453970    -0.0205620
  H        1.7650550     0.5724880     1.2977430
  H        1.0430010    -1.0258810     1.2255100
  H        1.8814000    -1.2911440    -1.1469770
  H        2.5641180     0.3366430    -1.0800470
  H        3.2219480    -0.9400230    -0.0411410
  H        0.9206510     2.2208510    -0.6190080
  H        0.0756270     2.3767260     0.9415890
  H       -0.8611500     2.1650270    -0.5546380
  H       -0.1986710    -2.0759730    -0.3046340
  H       -1.8731440    -2.0716480    -0.1344710
units angstrom
no_reorient  #important for SAPT in psi4, default
symmetry c1  #important for SAPT in psi4, default
}

set PROPERTIES_ORIGIN ["COM"]
properties('MP2/aug-cc-pvtz', properties = ['dipole'])
--------------------------------------------------------------------------

    Molecular point group: c1
  Charge       = 0
  Multiplicity = 1
  Basis Set: AUG-CC-PVTZ
    Blend: AUG-CC-PVTZ
  Basis Set: (AUG-CC-PVTZ AUX)
    Blend: AUG-CC-PVTZ-JKFIT

    Orbital Energies [Eh]
    ---------------------

    Doubly Occupied:

       1A    -20.504126     2A    -15.581061     3A    -15.577068
       4A    -11.370364     5A    -11.274984     6A    -11.252793
       7A    -11.234184     8A     -1.377840     9A     -1.244595
      10A     -1.188421    11A     -1.035465    12A     -0.943284
      13A     -0.874803    14A     -0.762395    15A     -0.729248
      16A     -0.681876    17A     -0.637281    18A     -0.631583
      19A     -0.603053    20A     -0.590090    21A     -0.561119
      22A     -0.556799    23A     -0.541275    24A     -0.520300
      25A     -0.510017    26A     -0.439576    27A     -0.417078
      28A     -0.372399

  @DF-RHF Final Energy:  -341.20163827590022

   => Energetics <=

    Nuclear Repulsion Energy =            325.9788461024306798
    One-Electron Energy =               -1110.3348152901110097
    Two-Electron Energy =                 443.1543309117801073
    Total Energy =                       -341.2016382759002227
  Basis Set: (AUG-CC-PVTZ AUX)
    Blend: AUG-CC-PVTZ-RI
    Molecular point group: c1

    Geometry (in Angstrom), charge = 0, multiplicity = 1:

       Center              X                  Y                   Z               Mass
    ------------   -----------------  -----------------  -----------------  -----------------
         O           -2.108055225287     0.310820159458    -0.216469059156    15.994914619570
         N            0.168064774713     0.447700159458     0.089287940844    14.003074004430
         N           -0.915295225287    -1.625933840542     0.128425940844    14.003074004430
         C            1.390993174713    -0.198870940542     0.628550440844    12.000000000000
         C            2.385289774713    -0.527634840542    -0.482426059156    12.000000000000
         C            0.138577774713     1.894246159458    -0.045130059156    12.000000000000
         C           -1.019818225287    -0.236787840542    -0.026546059156    12.000000000000
         H            1.847958774713     0.581097159458     1.291758940844     1.007825032230
         H            1.125904774713    -1.017271840542     1.219525940844     1.007825032230
         H            1.964303774713    -1.282534840542    -1.152961059156     1.007825032230
         H            2.647021774713     0.345252159458    -1.086031059156     1.007825032230
         H            3.304851774713    -0.931413840542    -0.047125059156     1.007825032230
         H            1.003554774713     2.229460159458    -0.624992059156     1.007825032230
         H            0.158530774713     2.385335159458     0.935604940844     1.007825032230
         H           -0.778246225287     2.173636159458    -0.560622059156     1.007825032230
         H           -0.115767225287    -2.067363840542    -0.310618059156     1.007825032230
         H           -1.790240225287    -2.063038840542    -0.140455059156     1.007825032230

  Basis Set: AUG-CC-PVTZ
    Blend: AUG-CC-PVTZ
  Basis Set: (AUG-CC-PVTZ AUX)
    Blend: AUG-CC-PVTZ-JKFIT
	 Reference Energy          =    -341.2016382759002227 [Eh]
	 Singles Energy            =      -0.0000000000000000 [Eh]
	 Same-Spin Energy          =      -0.3487525681397968 [Eh]
	 Opposite-Spin Energy      =      -1.1396457367127111 [Eh]
	 Correlation Energy        =      -1.4883983048525078 [Eh]
	 Total Energy              =    -342.6900365807527464 [Eh]

	 ================> DF-SCS-MP2 Energies <==================
	-----------------------------------------------------------
	 SCS Same-Spin Scale       =       0.3333333333333333 [-]
	 SCS Opposite-Spin Scale   =       1.2000000000000000 [-]
	 SCS Same-Spin Energy      =      -0.1162508560465989 [Eh]
	 SCS Opposite-Spin Energy  =      -1.3675748840552533 [Eh]
	 SCS Correlation Energy    =      -1.4838257401018522 [Eh]
	 SCS Total Energy          =    -342.6854640160020722 [Eh]
	-----------------------------------------------------------

  Dipole Moment: [D]
     X:     3.8787      Y:    -1.1930      Z:    -0.1664     Total:     4.0614

*** Psi4 exiting successfully. Buy a developer a beer!
