                               Psi4 1.4a3.dev225

  ==> Input File <==

--------------------------------------------------------------------------
#psi4
#
memory 32 gb

molecule  {
0 1
  O       -2.1909590     0.3022110    -0.2104850
  N        0.0851610     0.4390910     0.0952720
  N       -0.9981990    -1.6345430     0.1344100
  C        1.3080130    -0.1567610     0.6181790
  C        2.3023860    -0.5362440    -0.4764420
  C        0.2060398     1.8828158    -0.0164422
  C       -1.1027220    -0.2453970    -0.0205620
  H        1.7650550     0.5724880     1.2977430
  H        1.0430010    -1.0258810     1.2255100
  H        1.8814000    -1.2911440    -1.1469770
  H        2.5641180     0.3366430    -1.0800470
  H        3.2219480    -0.9400230    -0.0411410
  H        0.9206510     2.2208510    -0.6190080
  H        0.0756270     2.3767260     0.9415890
  H       -0.8611500     2.1650270    -0.5546380
  H       -0.1986710    -2.0759730    -0.3046340
  H       -1.8731440    -2.0716480    -0.1344710
units angstrom
no_reorient  #important for SAPT in psi4, default
symmetry c1  #important for SAPT in psi4, default
}

set PROPERTIES_ORIGIN ["COM"]
properties('MP2/aug-cc-pvtz', properties = ['dipole'])
--------------------------------------------------------------------------

    Molecular point group: c1
  Charge       = 0
  Multiplicity = 1
  Basis Set: AUG-CC-PVTZ
    Blend: AUG-CC-PVTZ
  Basis Set: (AUG-CC-PVTZ AUX)
    Blend: AUG-CC-PVTZ-JKFIT

    Orbital Energies [Eh]
    ---------------------

    Doubly Occupied:

       1A    -20.506545     2A    -15.583069     3A    -15.579193
       4A    -11.375622     5A    -11.271323     6A    -11.255186
       7A    -11.232768     8A     -1.379395     9A     -1.250937
      10A     -1.191245    11A     -1.030833    12A     -0.950749
      13A     -0.875570    14A     -0.765715    15A     -0.726789
      16A     -0.688534    17A     -0.647489    18A     -0.632307
      19A     -0.604943    20A     -0.593075    21A     -0.578878
      22A     -0.554522    23A     -0.533062    24A     -0.516473
      25A     -0.476763    26A     -0.440002    27A     -0.418633
      28A     -0.376359

  @DF-RHF Final Energy:  -341.17859764563462

   => Energetics <=

    Nuclear Repulsion Energy =            326.1785194170149111
    One-Electron Energy =               -1110.6422746061089128
    Two-Electron Energy =                 443.2851575434593201
    Total Energy =                       -341.1785976456346248
  Basis Set: (AUG-CC-PVTZ AUX)
    Blend: AUG-CC-PVTZ-RI
    Molecular point group: c1

    Geometry (in Angstrom), charge = 0, multiplicity = 1:

       Center              X                  Y                   Z               Mass
    ------------   -----------------  -----------------  -----------------  -----------------
         O           -2.125722593413     0.305189490683    -0.217215337690    15.994914619570
         N            0.150397406587     0.442069490683     0.088541662310    14.003074004430
         N           -0.932962593413    -1.631564509317     0.127679662310    14.003074004430
         C            1.373249406587    -0.153782509317     0.611448662310    12.000000000000
         C            2.367622406587    -0.533265509317    -0.483172337690    12.000000000000
         C            0.271276206587     1.885794290683    -0.023172537690    12.000000000000
         C           -1.037485593413    -0.242418509317    -0.027292337690    12.000000000000
         H            1.830291406587     0.575466490683     1.291012662310     1.007825032230
         H            1.108237406587    -1.022902509317     1.218779662310     1.007825032230
         H            1.946636406587    -1.288165509317    -1.153707337690     1.007825032230
         H            2.629354406587     0.339621490683    -1.086777337690     1.007825032230
         H            3.287184406587    -0.937044509317    -0.047871337690     1.007825032230
         H            0.985887406587     2.223829490683    -0.625738337690     1.007825032230
         H            0.140863406587     2.379704490683     0.934858662310     1.007825032230
         H           -0.795913593413     2.168005490683    -0.561368337690     1.007825032230
         H           -0.133434593413    -2.072994509317    -0.311364337690     1.007825032230
         H           -1.807907593413    -2.068669509317    -0.141201337690     1.007825032230

  Basis Set: AUG-CC-PVTZ
    Blend: AUG-CC-PVTZ
  Basis Set: (AUG-CC-PVTZ AUX)
    Blend: AUG-CC-PVTZ-JKFIT
	 Reference Energy          =    -341.1785976456346248 [Eh]
	 Singles Energy            =      -0.0000000000000000 [Eh]
	 Same-Spin Energy          =      -0.3498787830373215 [Eh]
	 Opposite-Spin Energy      =      -1.1417384328854334 [Eh]
	 Correlation Energy        =      -1.4916172159227550 [Eh]
	 Total Energy              =    -342.6702148615573833 [Eh]

	 ================> DF-SCS-MP2 Energies <==================
	-----------------------------------------------------------
	 SCS Same-Spin Scale       =       0.3333333333333333 [-]
	 SCS Opposite-Spin Scale   =       1.2000000000000000 [-]
	 SCS Same-Spin Energy      =      -0.1166262610124405 [Eh]
	 SCS Opposite-Spin Energy  =      -1.3700861194625200 [Eh]
	 SCS Correlation Energy    =      -1.4867123804749605 [Eh]
	 SCS Total Energy          =    -342.6653100261095801 [Eh]
	-----------------------------------------------------------

  Dipole Moment: [D]
     X:     3.8041      Y:    -1.1894      Z:    -0.1827     Total:     3.9899

*** Psi4 exiting successfully. Buy a developer a beer!
