                               Psi4 1.4a3.dev225

  ==> Input File <==

--------------------------------------------------------------------------
#psi4
#
memory 32 gb

molecule  {
0 1
  O       -2.1909590     0.3022110    -0.2104850
  N        0.0851610     0.4390910     0.0952720
  N       -0.9981990    -1.6345430     0.1344100
  C        1.3080130    -0.1567610     0.6181790
  C        2.3023860    -0.5362440    -0.4764420
  C        0.0556740     1.8856370    -0.0391460
  C       -1.1027220    -0.2453970    -0.0205620
  H        1.7650550     0.5724880     1.2977430
  H        0.9945044    -1.1849280     1.3366502
  H        1.8814000    -1.2911440    -1.1469770
  H        2.5641180     0.3366430    -1.0800470
  H        3.2219480    -0.9400230    -0.0411410
  H        0.9206510     2.2208510    -0.6190080
  H        0.0756270     2.3767260     0.9415890
  H       -0.8611500     2.1650270    -0.5546380
  H       -0.1986710    -2.0759730    -0.3046340
  H       -1.8731440    -2.0716480    -0.1344710
units angstrom
no_reorient  #important for SAPT in psi4, default
symmetry c1  #important for SAPT in psi4, default
}

set PROPERTIES_ORIGIN ["COM"]
properties('MP2/aug-cc-pvtz', properties = ['dipole'])
--------------------------------------------------------------------------

    Molecular point group: c1
  Charge       = 0
  Multiplicity = 1
  Basis Set: AUG-CC-PVTZ
    Blend: AUG-CC-PVTZ
  Basis Set: (AUG-CC-PVTZ AUX)
    Blend: AUG-CC-PVTZ-JKFIT

    Orbital Energies [Eh]
    ---------------------

    Doubly Occupied:

       1A    -20.506083     2A    -15.584325     3A    -15.576818
       4A    -11.372893     5A    -11.295111     6A    -11.254546
       7A    -11.234991     8A     -1.379895     9A     -1.249645
      10A     -1.189898    11A     -1.029416    12A     -0.945054
      13A     -0.870714    14A     -0.758678    15A     -0.719787
      16A     -0.683357    17A     -0.641045    18A     -0.626559
      19A     -0.603884    20A     -0.587286    21A     -0.561024
      22A     -0.557651    23A     -0.535189    24A     -0.526859
      25A     -0.484676    26A     -0.441311    27A     -0.415941
      28A     -0.373743

  @DF-RHF Final Energy:  -341.18377958375669

   => Energetics <=

    Nuclear Repulsion Energy =            325.5027565949800987
    One-Electron Energy =               -1109.3603068894392436
    Two-Electron Energy =                 442.6737707107023994
    Total Energy =                       -341.1837795837566887
  Basis Set: (AUG-CC-PVTZ AUX)
    Blend: AUG-CC-PVTZ-RI
    Molecular point group: c1

    Geometry (in Angstrom), charge = 0, multiplicity = 1:

       Center              X                  Y                   Z               Mass
    ------------   -----------------  -----------------  -----------------  -----------------
         O           -2.107567439015     0.306428107444    -0.215643660533    15.994914619570
         N            0.168552560985     0.443308107444     0.090113339467    14.003074004430
         N           -0.914807439015    -1.630325892556     0.129251339467    14.003074004430
         C            1.391404560985    -0.152543892556     0.613020339467    12.000000000000
         C            2.385777560985    -0.532026892556    -0.481600660533    12.000000000000
         C            0.139065560985     1.889854107444    -0.044304660533    12.000000000000
         C           -1.019330439015    -0.241179892556    -0.025720660533    12.000000000000
         H            1.848446560985     0.576705107444     1.292584339467     1.007825032230
         H            1.077895960985    -1.180710892556     1.331491539467     1.007825032230
         H            1.964791560985    -1.286926892556    -1.152135660533     1.007825032230
         H            2.647509560985     0.340860107444    -1.085205660533     1.007825032230
         H            3.305339560985    -0.935805892556    -0.046299660533     1.007825032230
         H            1.004042560985     2.225068107444    -0.624166660533     1.007825032230
         H            0.159018560985     2.380943107444     0.936430339467     1.007825032230
         H           -0.777758439015     2.169244107444    -0.559796660533     1.007825032230
         H           -0.115279439015    -2.071755892556    -0.309792660533     1.007825032230
         H           -1.789752439015    -2.067430892556    -0.139629660533     1.007825032230

  Basis Set: AUG-CC-PVTZ
    Blend: AUG-CC-PVTZ
  Basis Set: (AUG-CC-PVTZ AUX)
    Blend: AUG-CC-PVTZ-JKFIT
	 Reference Energy          =    -341.1837795837566887 [Eh]
	 Singles Energy            =      -0.0000000000000000 [Eh]
	 Same-Spin Energy          =      -0.3494402791274468 [Eh]
	 Opposite-Spin Energy      =      -1.1418090914919776 [Eh]
	 Correlation Energy        =      -1.4912493706194243 [Eh]
	 Total Energy              =    -342.6750289543761028 [Eh]

	 ================> DF-SCS-MP2 Energies <==================
	-----------------------------------------------------------
	 SCS Same-Spin Scale       =       0.3333333333333333 [-]
	 SCS Opposite-Spin Scale   =       1.2000000000000000 [-]
	 SCS Same-Spin Energy      =      -0.1164800930424823 [Eh]
	 SCS Opposite-Spin Energy  =      -1.3701709097903731 [Eh]
	 SCS Correlation Energy    =      -1.4866510028328555 [Eh]
	 SCS Total Energy          =    -342.6704305865895321 [Eh]
	-----------------------------------------------------------

  Dipole Moment: [D]
     X:     3.7818      Y:    -1.0984      Z:    -0.2635     Total:     3.9469

*** Psi4 exiting successfully. Buy a developer a beer!
