                               Psi4 1.4a3.dev225

  ==> Input File <==

--------------------------------------------------------------------------
#psi4
#
memory 32 gb

molecule  {
0 1
  O       -2.1909590     0.3022110    -0.2104850
  N        0.0851610     0.4390910     0.0952720
  N       -0.9981990    -1.6345430     0.1344100
  C        1.3080130    -0.1567610     0.6181790
  C        2.3023860    -0.5362440    -0.4764420
  C        0.0556740     1.8856370    -0.0391460
  C       -1.1027220    -0.2453970    -0.0205620
  H        1.7650550     0.5724880     1.2977430
  H        1.0430010    -1.0258810     1.2255100
  H        1.8814000    -1.2911440    -1.1469770
  H        2.5641180     0.3366430    -1.0800470
  H        3.3899680    -1.0138005     0.0383961
  H        0.9206510     2.2208510    -0.6190080
  H        0.0756270     2.3767260     0.9415890
  H       -0.8611500     2.1650270    -0.5546380
  H       -0.1986710    -2.0759730    -0.3046340
  H       -1.8731440    -2.0716480    -0.1344710
units angstrom
no_reorient  #important for SAPT in psi4, default
symmetry c1  #important for SAPT in psi4, default
}

set PROPERTIES_ORIGIN ["COM"]
properties('MP2/aug-cc-pvtz', properties = ['dipole'])
--------------------------------------------------------------------------

    Molecular point group: c1
  Charge       = 0
  Multiplicity = 1
  Basis Set: AUG-CC-PVTZ
    Blend: AUG-CC-PVTZ
  Basis Set: (AUG-CC-PVTZ AUX)
    Blend: AUG-CC-PVTZ-JKFIT

    Orbital Energies [Eh]
    ---------------------

    Doubly Occupied:

       1A    -20.507162     2A    -15.584252     3A    -15.578734
       4A    -11.374001     5A    -11.276544     6A    -11.256053
       7A    -11.254218     8A     -1.380997     9A     -1.251290
      10A     -1.191410    11A     -1.029090    12A     -0.944791
      13A     -0.868454    14A     -0.763698    15A     -0.729223
      16A     -0.684310    17A     -0.639583    18A     -0.633861
      19A     -0.605508    20A     -0.585885    21A     -0.559612
      22A     -0.548455    23A     -0.539275    24A     -0.512778
      25A     -0.498835    26A     -0.442075    27A     -0.419119
      28A     -0.375108

  @DF-RHF Final Energy:  -341.18488534415178

   => Energetics <=

    Nuclear Repulsion Energy =            325.5168897041882019
    One-Electron Energy =               -1109.3349072657292709
    Two-Electron Energy =                 442.6331322173892886
    Total Energy =                       -341.1848853441517804
  Basis Set: (AUG-CC-PVTZ AUX)
    Blend: AUG-CC-PVTZ-RI
    Molecular point group: c1

    Geometry (in Angstrom), charge = 0, multiplicity = 1:

       Center              X                  Y                   Z               Mass
    ------------   -----------------  -----------------  -----------------  -----------------
         O           -2.109705098871     0.305586245032    -0.215331644373    15.994914619570
         N            0.166414901129     0.442466245032     0.090425355627    14.003074004430
         N           -0.916945098871    -1.631167754968     0.129563355627    14.003074004430
         C            1.389266901129    -0.153385754968     0.613332355627    12.000000000000
         C            2.383639901129    -0.532868754968    -0.481288644373    12.000000000000
         C            0.136927901129     1.889012245032    -0.043992644373    12.000000000000
         C           -1.021468098871    -0.242021754968    -0.025408644373    12.000000000000
         H            1.846308901129     0.575863245032     1.292896355627     1.007825032230
         H            1.124254901129    -1.022505754968     1.220663355627     1.007825032230
         H            1.962653901129    -1.287768754968    -1.151823644373     1.007825032230
         H            2.645371901129     0.340018245032    -1.084893644373     1.007825032230
         H            3.471221901129    -1.010425254968     0.033549455627     1.007825032230
         H            1.001904901129     2.224226245032    -0.623854644373     1.007825032230
         H            0.156880901129     2.380101245032     0.936742355627     1.007825032230
         H           -0.779896098871     2.168402245032    -0.559484644373     1.007825032230
         H           -0.117417098871    -2.072597754968    -0.309480644373     1.007825032230
         H           -1.791890098871    -2.068272754968    -0.139317644373     1.007825032230

  Basis Set: AUG-CC-PVTZ
    Blend: AUG-CC-PVTZ
  Basis Set: (AUG-CC-PVTZ AUX)
    Blend: AUG-CC-PVTZ-JKFIT
	 Reference Energy          =    -341.1848853441517804 [Eh]
	 Singles Energy            =      -0.0000000000000000 [Eh]
	 Same-Spin Energy          =      -0.3488297784326992 [Eh]
	 Opposite-Spin Energy      =      -1.1411316539138419 [Eh]
	 Correlation Energy        =      -1.4899614323465411 [Eh]
	 Total Energy              =    -342.6748467764983275 [Eh]

	 ================> DF-SCS-MP2 Energies <==================
	-----------------------------------------------------------
	 SCS Same-Spin Scale       =       0.3333333333333333 [-]
	 SCS Opposite-Spin Scale   =       1.2000000000000000 [-]
	 SCS Same-Spin Energy      =      -0.1162765928108997 [Eh]
	 SCS Opposite-Spin Energy  =      -1.3693579846966102 [Eh]
	 SCS Correlation Energy    =      -1.4856345775075099 [Eh]
	 SCS Total Energy          =    -342.6705199216592632 [Eh]
	-----------------------------------------------------------

  Dipole Moment: [D]
     X:     3.6429      Y:    -1.1009      Z:    -0.2096     Total:     3.8114

*** Psi4 exiting successfully. Buy a developer a beer!
