                               Psi4 1.4a3.dev225

  ==> Input File <==

--------------------------------------------------------------------------
#psi4
#
memory 32 gb

molecule  {
0 1
  O       -2.1909590     0.3022110    -0.2104850
  N        0.0851610     0.4390910     0.0952720
  N       -0.9981990    -1.6345430     0.1344100
  C        1.3080130    -0.1567610     0.6181790
  C        2.3023860    -0.5362440    -0.4764420
  C        0.0556740     1.8856370    -0.0391460
  C       -1.1027220    -0.2453970    -0.0205620
  H        1.7650550     0.5724880     1.2977430
  H        1.0430010    -1.0258810     1.2255100
  H        1.8814000    -1.2911440    -1.1469770
  H        2.5641180     0.3366430    -1.0800470
  H        3.2219480    -0.9400230    -0.0411410
  H        0.9206510     2.2208510    -0.6190080
  H        0.0756270     2.3767260     0.9415890
  H       -0.9032726     2.1778633    -0.5783218
  H       -0.1986710    -2.0759730    -0.3046340
  H       -1.8731440    -2.0716480    -0.1344710
units angstrom
no_reorient  #important for SAPT in psi4, default
symmetry c1  #important for SAPT in psi4, default
}

set PROPERTIES_ORIGIN ["COM"]
properties('MP2/aug-cc-pvtz', properties = ['dipole'])
--------------------------------------------------------------------------

    Molecular point group: c1
  Charge       = 0
  Multiplicity = 1
  Basis Set: AUG-CC-PVTZ
    Blend: AUG-CC-PVTZ
  Basis Set: (AUG-CC-PVTZ AUX)
    Blend: AUG-CC-PVTZ-JKFIT

    Orbital Energies [Eh]
    ---------------------

    Doubly Occupied:

       1A    -20.505575     2A    -15.582230     3A    -15.577597
       4A    -11.372442     5A    -11.274586     6A    -11.257819
       7A    -11.233146     8A     -1.379453     9A     -1.249429
      10A     -1.190012    11A     -1.033402    12A     -0.940821
      13A     -0.876294    14A     -0.761361    15A     -0.726611
      16A     -0.684561    17A     -0.639615    18A     -0.632022
      19A     -0.603404    20A     -0.588960    21A     -0.559295
      22A     -0.556397    23A     -0.535779    24A     -0.521507
      25A     -0.504107    26A     -0.440569    27A     -0.417796
      28A     -0.373390

  @DF-RHF Final Energy:  -341.20246439219193

   => Energetics <=

    Nuclear Repulsion Energy =            326.1148277396716821
    One-Electron Energy =               -1110.5982245905299806
    Two-Electron Energy =                 443.2809324586663706
    Total Energy =                       -341.2024643921919278
  Basis Set: (AUG-CC-PVTZ AUX)
    Blend: AUG-CC-PVTZ-RI
    Molecular point group: c1

    Geometry (in Angstrom), charge = 0, multiplicity = 1:

       Center              X                  Y                   Z               Mass
    ------------   -----------------  -----------------  -----------------  -----------------
         O           -2.107630369266     0.304731110399    -0.214312548497    15.994914619570
         N            0.168489630734     0.441611110399     0.091444451503    14.003074004430
         N           -0.914870369266    -1.632022889601     0.130582451503    14.003074004430
         C            1.391341630734    -0.154240889601     0.614351451503    12.000000000000
         C            2.385714630734    -0.533723889601    -0.480269548497    12.000000000000
         C            0.139002630734     1.888157110399    -0.042973548497    12.000000000000
         C           -1.019393369266    -0.242876889601    -0.024389548497    12.000000000000
         H            1.848383630734     0.575008110399     1.293915451503     1.007825032230
         H            1.126329630734    -1.023360889601     1.221682451503     1.007825032230
         H            1.964728630734    -1.288623889601    -1.150804548497     1.007825032230
         H            2.647446630734     0.339163110399    -1.083874548497     1.007825032230
         H            3.305276630734    -0.937502889601    -0.044968548497     1.007825032230
         H            1.003979630734     2.223371110399    -0.622835548497     1.007825032230
         H            0.158955630734     2.379246110399     0.937761451503     1.007825032230
         H           -0.819943969266     2.180383410399    -0.582149348497     1.007825032230
         H           -0.115342369266    -2.073452889601    -0.308461548497     1.007825032230
         H           -1.789815369266    -2.069127889601    -0.138298548497     1.007825032230

  Basis Set: AUG-CC-PVTZ
    Blend: AUG-CC-PVTZ
  Basis Set: (AUG-CC-PVTZ AUX)
    Blend: AUG-CC-PVTZ-JKFIT
	 Reference Energy          =    -341.2024643921919278 [Eh]
	 Singles Energy            =      -0.0000000000000000 [Eh]
	 Same-Spin Energy          =      -0.3490330227014253 [Eh]
	 Opposite-Spin Energy      =      -1.1401011233762739 [Eh]
	 Correlation Energy        =      -1.4891341460776992 [Eh]
	 Total Energy              =    -342.6915985382696022 [Eh]

	 ================> DF-SCS-MP2 Energies <==================
	-----------------------------------------------------------
	 SCS Same-Spin Scale       =       0.3333333333333333 [-]
	 SCS Opposite-Spin Scale   =       1.2000000000000000 [-]
	 SCS Same-Spin Energy      =      -0.1163443409004751 [Eh]
	 SCS Opposite-Spin Energy  =      -1.3681213480515286 [Eh]
	 SCS Correlation Energy    =      -1.4844656889520038 [Eh]
	 SCS Total Energy          =    -342.6869300811439416 [Eh]
	-----------------------------------------------------------

  Dipole Moment: [D]
     X:     3.8090      Y:    -1.1813      Z:    -0.1746     Total:     3.9918

*** Psi4 exiting successfully. Buy a developer a beer!
