                               Psi4 1.4a3.dev225

  ==> Input File <==

--------------------------------------------------------------------------
#psi4
#
memory 32 gb

molecule  {
0 1
  O       -2.1909590     0.3022110    -0.2104850
  N        0.0851610     0.4390910     0.0952720
  N       -0.9981990    -1.6345430     0.1344100
  C        1.3080130    -0.1567610     0.6181790
  C        2.4326457    -0.5859551    -0.6198339
  C        0.0556740     1.8856370    -0.0391460
  C       -1.1027220    -0.2453970    -0.0205620
  H        1.7650550     0.5724880     1.2977430
  H        1.0430010    -1.0258810     1.2255100
  H        1.8814000    -1.2911440    -1.1469770
  H        2.5641180     0.3366430    -1.0800470
  H        3.2219480    -0.9400230    -0.0411410
  H        0.9206510     2.2208510    -0.6190080
  H        0.0756270     2.3767260     0.9415890
  H       -0.8611500     2.1650270    -0.5546380
  H       -0.1986710    -2.0759730    -0.3046340
  H       -1.8731440    -2.0716480    -0.1344710
units angstrom
no_reorient  #important for SAPT in psi4, default
symmetry c1  #important for SAPT in psi4, default
}

set PROPERTIES_ORIGIN ["COM"]
properties('MP2/aug-cc-pvtz', properties = ['dipole'])
--------------------------------------------------------------------------

    Molecular point group: c1
  Charge       = 0
  Multiplicity = 1
  Basis Set: AUG-CC-PVTZ
    Blend: AUG-CC-PVTZ
  Basis Set: (AUG-CC-PVTZ AUX)
    Blend: AUG-CC-PVTZ-JKFIT

    Orbital Energies [Eh]
    ---------------------

    Doubly Occupied:

       1A    -20.506043     2A    -15.583733     3A    -15.578028
       4A    -11.372672     5A    -11.280749     6A    -11.253318
       7A    -11.229254     8A     -1.379747     9A     -1.247351
      10A     -1.189931    11A     -1.011460    12A     -0.945559
      13A     -0.888287    14A     -0.761376    15A     -0.726093
      16A     -0.681833    17A     -0.634529    18A     -0.631231
      19A     -0.608995    20A     -0.601865    21A     -0.572865
      22A     -0.558871    23A     -0.540970    24A     -0.521031
      25A     -0.488577    26A     -0.441016    27A     -0.418371
      28A     -0.361889

  @DF-RHF Final Energy:  -341.17775843240099

   => Energetics <=

    Nuclear Repulsion Energy =            323.5106543317180581
    One-Electron Energy =               -1105.3455417173147453
    Two-Electron Energy =                 440.6571289531956381
    Total Energy =                       -341.1777584324009922
  Basis Set: (AUG-CC-PVTZ AUX)
    Blend: AUG-CC-PVTZ-RI
    Molecular point group: c1

    Geometry (in Angstrom), charge = 0, multiplicity = 1:

       Center              X                  Y                   Z               Mass
    ------------   -----------------  -----------------  -----------------  -----------------
         O           -2.123359007756     0.310701663363    -0.197689849691    15.994914619570
         N            0.152760992244     0.447581663363     0.108067150309    14.003074004430
         N           -0.930599007756    -1.626052336637     0.147205150309    14.003074004430
         C            1.375612992244    -0.148270336637     0.630974150309    12.000000000000
         C            2.500245692244    -0.577464436637    -0.607038749691    12.000000000000
         C            0.123273992244     1.894127663363    -0.026350849691    12.000000000000
         C           -1.035122007756    -0.236906336637    -0.007766849691    12.000000000000
         H            1.832654992244     0.580978663363     1.310538150309     1.007825032230
         H            1.110600992244    -1.017390336637     1.238305150309     1.007825032230
         H            1.948999992244    -1.282653336637    -1.134181849691     1.007825032230
         H            2.631717992244     0.345133663363    -1.067251849691     1.007825032230
         H            3.289547992244    -0.931532336637    -0.028345849691     1.007825032230
         H            0.988250992244     2.229341663363    -0.606212849691     1.007825032230
         H            0.143226992244     2.385216663363     0.954384150309     1.007825032230
         H           -0.793550007756     2.173517663363    -0.541842849691     1.007825032230
         H           -0.131071007756    -2.067482336637    -0.291838849691     1.007825032230
         H           -1.805544007756    -2.063157336637    -0.121675849691     1.007825032230

  Basis Set: AUG-CC-PVTZ
    Blend: AUG-CC-PVTZ
  Basis Set: (AUG-CC-PVTZ AUX)
    Blend: AUG-CC-PVTZ-JKFIT
	 Reference Energy          =    -341.1777584324009922 [Eh]
	 Singles Energy            =      -0.0000000000000000 [Eh]
	 Same-Spin Energy          =      -0.3490949655219887 [Eh]
	 Opposite-Spin Energy      =      -1.1412625381481050 [Eh]
	 Correlation Energy        =      -1.4903575036700936 [Eh]
	 Total Energy              =    -342.6681159360711035 [Eh]

	 ================> DF-SCS-MP2 Energies <==================
	-----------------------------------------------------------
	 SCS Same-Spin Scale       =       0.3333333333333333 [-]
	 SCS Opposite-Spin Scale   =       1.2000000000000000 [-]
	 SCS Same-Spin Energy      =      -0.1163649885073296 [Eh]
	 SCS Opposite-Spin Energy  =      -1.3695150457777259 [Eh]
	 SCS Correlation Energy    =      -1.4858800342850553 [Eh]
	 SCS Total Energy          =    -342.6636384666860522 [Eh]
	-----------------------------------------------------------

  Dipole Moment: [D]
     X:     3.6674      Y:    -1.1146      Z:    -0.1001     Total:     3.8344

*** Psi4 exiting successfully. Buy a developer a beer!
