                               Psi4 1.4a3.dev225

  ==> Input File <==

--------------------------------------------------------------------------
#psi4
#
memory 32 gb

molecule  {
0 1
  O       -2.1909590     0.3022110    -0.2104850
  N        0.0851610     0.4390910     0.0952720
  N       -0.9981990    -1.6345430     0.1344100
  C        1.3080130    -0.1567610     0.6181790
  C        2.3023860    -0.5362440    -0.4764420
  C        0.0552681     1.9055471    -0.0409961
  C       -1.1027220    -0.2453970    -0.0205620
  H        1.7650550     0.5724880     1.2977430
  H        1.0430010    -1.0258810     1.2255100
  H        1.8814000    -1.2911440    -1.1469770
  H        2.5641180     0.3366430    -1.0800470
  H        3.2219480    -0.9400230    -0.0411410
  H        0.9206510     2.2208510    -0.6190080
  H        0.0756270     2.3767260     0.9415890
  H       -0.8611500     2.1650270    -0.5546380
  H       -0.1986710    -2.0759730    -0.3046340
  H       -1.8731440    -2.0716480    -0.1344710
units angstrom
no_reorient  #important for SAPT in psi4, default
symmetry c1  #important for SAPT in psi4, default
}

set PROPERTIES_ORIGIN ["COM"]
properties('MP2/aug-cc-pvtz', properties = ['dipole'])
--------------------------------------------------------------------------

    Molecular point group: c1
  Charge       = 0
  Multiplicity = 1
  Basis Set: AUG-CC-PVTZ
    Blend: AUG-CC-PVTZ
  Basis Set: (AUG-CC-PVTZ AUX)
    Blend: AUG-CC-PVTZ-JKFIT

    Orbital Energies [Eh]
    ---------------------

    Doubly Occupied:

       1A    -20.504906     2A    -15.581319     3A    -15.576969
       4A    -11.371696     5A    -11.273778     6A    -11.253138
       7A    -11.232684     8A     -1.378372     9A     -1.246325
      10A     -1.188528    11A     -1.032624    12A     -0.945219
      13A     -0.875353    14A     -0.761536    15A     -0.726524
      16A     -0.683362    17A     -0.639046    18A     -0.632096
      19A     -0.603611    20A     -0.585331    21A     -0.563167
      22A     -0.558083    23A     -0.537514    24A     -0.526608
      25A     -0.504946    26A     -0.440461    27A     -0.417299
      28A     -0.373351

  @DF-RHF Final Energy:  -341.20453534250686

   => Energetics <=

    Nuclear Repulsion Energy =            325.9356760131865371
    One-Electron Energy =               -1110.2527224393695633
    Two-Electron Energy =                 443.1125110836761110
    Total Energy =                       -341.2045353425068583
  Basis Set: (AUG-CC-PVTZ AUX)
    Blend: AUG-CC-PVTZ-RI
    Molecular point group: c1

    Geometry (in Angstrom), charge = 0, multiplicity = 1:

       Center              X                  Y                   Z               Mass
    ------------   -----------------  -----------------  -----------------  -----------------
         O           -2.107998528197     0.302517297933    -0.214328888012    15.994914619570
         N            0.168121471803     0.439397297933     0.091428111988    14.003074004430
         N           -0.915238528197    -1.634236702067     0.130566111988    14.003074004430
         C            1.390973471803    -0.156454702067     0.614335111988    12.000000000000
         C            2.385346471803    -0.535937702067    -0.480285888012    12.000000000000
         C            0.138228571803     1.905853397933    -0.044839988012    12.000000000000
         C           -1.019761528197    -0.245090702067    -0.024405888012    12.000000000000
         H            1.848015471803     0.572794297933     1.293899111988     1.007825032230
         H            1.125961471803    -1.025574702067     1.221666111988     1.007825032230
         H            1.964360471803    -1.290837702067    -1.150820888012     1.007825032230
         H            2.647078471803     0.336949297933    -1.083890888012     1.007825032230
         H            3.304908471803    -0.939716702067    -0.044984888012     1.007825032230
         H            1.003611471803     2.221157297933    -0.622851888012     1.007825032230
         H            0.158587471803     2.377032297933     0.937745111988     1.007825032230
         H           -0.778189528197     2.165333297933    -0.558481888012     1.007825032230
         H           -0.115710528197    -2.075666702067    -0.308477888012     1.007825032230
         H           -1.790183528197    -2.071341702067    -0.138314888012     1.007825032230

  Basis Set: AUG-CC-PVTZ
    Blend: AUG-CC-PVTZ
  Basis Set: (AUG-CC-PVTZ AUX)
    Blend: AUG-CC-PVTZ-JKFIT
	 Reference Energy          =    -341.2045353425068583 [Eh]
	 Singles Energy            =      -0.0000000000000000 [Eh]
	 Same-Spin Energy          =      -0.3487760217995944 [Eh]
	 Opposite-Spin Energy      =      -1.1396070512050920 [Eh]
	 Correlation Energy        =      -1.4883830730046863 [Eh]
	 Total Energy              =    -342.6929184155115422 [Eh]

	 ================> DF-SCS-MP2 Energies <==================
	-----------------------------------------------------------
	 SCS Same-Spin Scale       =       0.3333333333333333 [-]
	 SCS Opposite-Spin Scale   =       1.2000000000000000 [-]
	 SCS Same-Spin Energy      =      -0.1162586739331981 [Eh]
	 SCS Opposite-Spin Energy  =      -1.3675284614461103 [Eh]
	 SCS Correlation Energy    =      -1.4837871353793084 [Eh]
	 SCS Total Energy          =    -342.6883224778861745 [Eh]
	-----------------------------------------------------------

  Dipole Moment: [D]
     X:     3.8265      Y:    -1.1076      Z:    -0.1749     Total:     3.9874

*** Psi4 exiting successfully. Buy a developer a beer!
