                               Psi4 1.4a3.dev225

  ==> Input File <==

--------------------------------------------------------------------------
#psi4
#
memory 32 gb

molecule  {
0 1
  O       -2.1909590     0.3022110    -0.2104850
  N        0.0851610     0.4390910     0.0952720
  N       -0.9981990    -1.6345430     0.1344100
  C        1.2732315    -0.1912932     0.5972573
  C        2.3023860    -0.5362440    -0.4764420
  C        0.0556740     1.8856370    -0.0391460
  C       -1.1027220    -0.2453970    -0.0205620
  H        1.7650550     0.5724880     1.2977430
  H        1.0430010    -1.0258810     1.2255100
  H        1.8814000    -1.2911440    -1.1469770
  H        2.5641180     0.3366430    -1.0800470
  H        3.2219480    -0.9400230    -0.0411410
  H        0.9206510     2.2208510    -0.6190080
  H        0.0756270     2.3767260     0.9415890
  H       -0.8611500     2.1650270    -0.5546380
  H       -0.1986710    -2.0759730    -0.3046340
  H       -1.8731440    -2.0716480    -0.1344710
units angstrom
no_reorient  #important for SAPT in psi4, default
symmetry c1  #important for SAPT in psi4, default
}

set PROPERTIES_ORIGIN ["COM"]
properties('MP2/aug-cc-pvtz', properties = ['dipole'])
--------------------------------------------------------------------------

    Molecular point group: c1
  Charge       = 0
  Multiplicity = 1
  Basis Set: AUG-CC-PVTZ
    Blend: AUG-CC-PVTZ
  Basis Set: (AUG-CC-PVTZ AUX)
    Blend: AUG-CC-PVTZ-JKFIT

    Orbital Energies [Eh]
    ---------------------

    Doubly Occupied:

       1A    -20.506079     2A    -15.583250     3A    -15.578234
       4A    -11.372561     5A    -11.274709     6A    -11.254437
       7A    -11.232537     8A     -1.380629     9A     -1.254163
      10A     -1.191236    11A     -1.033177    12A     -0.946868
      13A     -0.875172    14A     -0.763772    15A     -0.731707
      16A     -0.685367    17A     -0.641751    18A     -0.629146
      19A     -0.602629    20A     -0.590967    21A     -0.562722
      22A     -0.558229    23A     -0.537572    24A     -0.526146
      25A     -0.500966    26A     -0.441589    27A     -0.417556
      28A     -0.373215

  @DF-RHF Final Energy:  -341.20165857525802

   => Energetics <=

    Nuclear Repulsion Energy =            326.8293939772403291
    One-Electron Energy =               -1111.9693329182230173
    Two-Electron Energy =                 443.9382803657246654
    Total Energy =                       -341.2016585752580227
  Basis Set: (AUG-CC-PVTZ AUX)
    Blend: AUG-CC-PVTZ-RI
    Molecular point group: c1

    Geometry (in Angstrom), charge = 0, multiplicity = 1:

       Center              X                  Y                   Z               Mass
    ------------   -----------------  -----------------  -----------------  -----------------
         O           -2.103957482190     0.308917297905    -0.212086913675    15.994914619570
         N            0.172162517810     0.445797297905     0.093670086325    14.003074004430
         N           -0.911197482190    -1.627836702095     0.132808086325    14.003074004430
         C            1.360233017810    -0.184586902095     0.595655386325    12.000000000000
         C            2.389387517810    -0.529537702095    -0.478043913675    12.000000000000
         C            0.142675517810     1.892343297905    -0.040747913675    12.000000000000
         C           -1.015720482190    -0.238690702095    -0.022163913675    12.000000000000
         H            1.852056517810     0.579194297905     1.296141086325     1.007825032230
         H            1.130002517810    -1.019174702095     1.223908086325     1.007825032230
         H            1.968401517810    -1.284437702095    -1.148578913675     1.007825032230
         H            2.651119517810     0.343349297905    -1.081648913675     1.007825032230
         H            3.308949517810    -0.933316702095    -0.042742913675     1.007825032230
         H            1.007652517810     2.227557297905    -0.620609913675     1.007825032230
         H            0.162628517810     2.383432297905     0.939987086325     1.007825032230
         H           -0.774148482190     2.171733297905    -0.556239913675     1.007825032230
         H           -0.111669482190    -2.069266702095    -0.306235913675     1.007825032230
         H           -1.786142482190    -2.064941702095    -0.136072913675     1.007825032230

  Basis Set: AUG-CC-PVTZ
    Blend: AUG-CC-PVTZ
  Basis Set: (AUG-CC-PVTZ AUX)
    Blend: AUG-CC-PVTZ-JKFIT
	 Reference Energy          =    -341.2016585752580227 [Eh]
	 Singles Energy            =      -0.0000000000000000 [Eh]
	 Same-Spin Energy          =      -0.3491276995687727 [Eh]
	 Opposite-Spin Energy      =      -1.1398585763486355 [Eh]
	 Correlation Energy        =      -1.4889862759174082 [Eh]
	 Total Energy              =    -342.6906448511754206 [Eh]

	 ================> DF-SCS-MP2 Energies <==================
	-----------------------------------------------------------
	 SCS Same-Spin Scale       =       0.3333333333333333 [-]
	 SCS Opposite-Spin Scale   =       1.2000000000000000 [-]
	 SCS Same-Spin Energy      =      -0.1163758998562575 [Eh]
	 SCS Opposite-Spin Energy  =      -1.3678302916183627 [Eh]
	 SCS Correlation Energy    =      -1.4842061914746203 [Eh]
	 SCS Total Energy          =    -342.6858647667326636 [Eh]
	-----------------------------------------------------------

  Dipole Moment: [D]
     X:     3.7401      Y:    -1.1649      Z:    -0.2175     Total:     3.9234

*** Psi4 exiting successfully. Buy a developer a beer!
