                               Psi4 1.4a3.dev225

  ==> Input File <==

--------------------------------------------------------------------------
#psi4
#
memory 32 gb

molecule  {
0 1
  O       -2.2269853     0.2240570    -0.2099033
  N        0.0851610     0.4390910     0.0952720
  N       -0.9981990    -1.6345430     0.1344100
  C        1.3080130    -0.1567610     0.6181790
  C        2.3023860    -0.5362440    -0.4764420
  C        0.0556740     1.8856370    -0.0391460
  C       -1.1027220    -0.2453970    -0.0205620
  H        1.7650550     0.5724880     1.2977430
  H        1.0430010    -1.0258810     1.2255100
  H        1.8814000    -1.2911440    -1.1469770
  H        2.5641180     0.3366430    -1.0800470
  H        3.2219480    -0.9400230    -0.0411410
  H        0.9206510     2.2208510    -0.6190080
  H        0.0756270     2.3767260     0.9415890
  H       -0.8611500     2.1650270    -0.5546380
  H       -0.1986710    -2.0759730    -0.3046340
  H       -1.8731440    -2.0716480    -0.1344710
units angstrom
no_reorient  #important for SAPT in psi4, default
symmetry c1  #important for SAPT in psi4, default
}

set PROPERTIES_ORIGIN ["COM"]
properties('MP2/aug-cc-pvtz', properties = ['dipole'])
--------------------------------------------------------------------------

    Molecular point group: c1
  Charge       = 0
  Multiplicity = 1
  Basis Set: AUG-CC-PVTZ
    Blend: AUG-CC-PVTZ
  Basis Set: (AUG-CC-PVTZ AUX)
    Blend: AUG-CC-PVTZ-JKFIT

    Orbital Energies [Eh]
    ---------------------

    Doubly Occupied:

       1A    -20.505497     2A    -15.586072     3A    -15.571844
       4A    -11.372130     5A    -11.276291     6A    -11.256190
       7A    -11.234062     8A     -1.379234     9A     -1.252998
      10A     -1.184648    11A     -1.035745    12A     -0.946632
      13A     -0.878160    14A     -0.761501    15A     -0.726312
      16A     -0.683630    17A     -0.641040    18A     -0.632672
      19A     -0.603746    20A     -0.589663    21A     -0.562237
      22A     -0.558312    23A     -0.538363    24A     -0.528215
      25A     -0.507058    26A     -0.440109    27A     -0.413438
      28A     -0.376593

  @DF-RHF Final Energy:  -341.20350404622360

   => Energetics <=

    Nuclear Repulsion Energy =            325.9697554993844619
    One-Electron Energy =               -1110.2617360246952103
    Two-Electron Energy =                 443.0884764790870918
    Total Energy =                       -341.2035040462235997
  Basis Set: (AUG-CC-PVTZ AUX)
    Blend: AUG-CC-PVTZ-RI
    Molecular point group: c1

    Geometry (in Angstrom), charge = 0, multiplicity = 1:

       Center              X                  Y                   Z               Mass
    ------------   -----------------  -----------------  -----------------  -----------------
         O           -2.138427545299     0.238949874921    -0.214055824903    15.994914619570
         N            0.173718754701     0.453983874921     0.091119475097    14.003074004430
         N           -0.909641245299    -1.619650125079     0.130257475097    14.003074004430
         C            1.396570754701    -0.141868125079     0.614026475097    12.000000000000
         C            2.390943754701    -0.521351125079    -0.480594524903    12.000000000000
         C            0.144231754701     1.900529874921    -0.043298524903    12.000000000000
         C           -1.014164245299    -0.230504125079    -0.024714524903    12.000000000000
         H            1.853612754701     0.587380874921     1.293590475097     1.007825032230
         H            1.131558754701    -1.010988125079     1.221357475097     1.007825032230
         H            1.969957754701    -1.276251125079    -1.151129524903     1.007825032230
         H            2.652675754701     0.351535874921    -1.084199524903     1.007825032230
         H            3.310505754701    -0.925130125079    -0.045293524903     1.007825032230
         H            1.009208754701     2.235743874921    -0.623160524903     1.007825032230
         H            0.164184754701     2.391618874921     0.937436475097     1.007825032230
         H           -0.772592245299     2.179919874921    -0.558790524903     1.007825032230
         H           -0.110113245299    -2.061080125079    -0.308786524903     1.007825032230
         H           -1.784586245299    -2.056755125079    -0.138623524903     1.007825032230

  Basis Set: AUG-CC-PVTZ
    Blend: AUG-CC-PVTZ
  Basis Set: (AUG-CC-PVTZ AUX)
    Blend: AUG-CC-PVTZ-JKFIT
	 Reference Energy          =    -341.2035040462235997 [Eh]
	 Singles Energy            =      -0.0000000000000000 [Eh]
	 Same-Spin Energy          =      -0.3487786737125454 [Eh]
	 Opposite-Spin Energy      =      -1.1395856369313344 [Eh]
	 Correlation Energy        =      -1.4883643106438798 [Eh]
	 Total Energy              =    -342.6918683568674737 [Eh]

	 ================> DF-SCS-MP2 Energies <==================
	-----------------------------------------------------------
	 SCS Same-Spin Scale       =       0.3333333333333333 [-]
	 SCS Opposite-Spin Scale   =       1.2000000000000000 [-]
	 SCS Same-Spin Energy      =      -0.1162595579041818 [Eh]
	 SCS Opposite-Spin Energy  =      -1.3675027643176012 [Eh]
	 SCS Correlation Energy    =      -1.4837623222217831 [Eh]
	 SCS Total Energy          =    -342.6872663684453642 [Eh]
	-----------------------------------------------------------

  Dipole Moment: [D]
     X:     3.9615      Y:    -0.9243      Z:    -0.1748     Total:     4.0716

*** Psi4 exiting successfully. Buy a developer a beer!
