                               Psi4 1.4a3.dev225

  ==> Input File <==

--------------------------------------------------------------------------
#psi4
#
memory 32 gb

molecule  {
0 1
  O       -2.1909590     0.3022110    -0.2104850
  N        0.0851610     0.4390910     0.0952720
  N       -0.9981990    -1.6345430     0.1344100
  C        1.3080130    -0.1567610     0.6181790
  C        2.3023860    -0.5362440    -0.4764420
  C        0.0556740     1.8856370    -0.0391460
  C       -1.1027220    -0.2453970    -0.0205620
  H        1.7650550     0.5724880     1.2977430
  H        1.0430010    -1.0258810     1.2255100
  H        1.8814000    -1.2911440    -1.1469770
  H        2.5641180     0.3366430    -1.0800470
  H        3.0539280    -0.8662455    -0.1206781
  H        0.9206510     2.2208510    -0.6190080
  H        0.0756270     2.3767260     0.9415890
  H       -0.8611500     2.1650270    -0.5546380
  H       -0.1986710    -2.0759730    -0.3046340
  H       -1.8731440    -2.0716480    -0.1344710
units angstrom
no_reorient  #important for SAPT in psi4, default
symmetry c1  #important for SAPT in psi4, default
}

set PROPERTIES_ORIGIN ["COM"]
properties('MP2/aug-cc-pvtz', properties = ['dipole'])
--------------------------------------------------------------------------

    Molecular point group: c1
  Charge       = 0
  Multiplicity = 1
  Basis Set: AUG-CC-PVTZ
    Blend: AUG-CC-PVTZ
  Basis Set: (AUG-CC-PVTZ AUX)
    Blend: AUG-CC-PVTZ-JKFIT

    Orbital Energies [Eh]
    ---------------------

    Doubly Occupied:

       1A    -20.504642     2A    -15.580494     3A    -15.576800
       4A    -11.371425     5A    -11.273002     6A    -11.251974
       7A    -11.208157     8A     -1.378503     9A     -1.248328
      10A     -1.189259    11A     -1.047356    12A     -0.945632
      13A     -0.890781    14A     -0.761517    15A     -0.726905
      16A     -0.687078    17A     -0.645703    18A     -0.632732
      19A     -0.606716    20A     -0.598696    21A     -0.571395
      22A     -0.557024    23A     -0.535660    24A     -0.530838
      25A     -0.505080    26A     -0.440251    27A     -0.417082
      28A     -0.372116

  @DF-RHF Final Energy:  -341.17088040560697

   => Energetics <=

    Nuclear Repulsion Energy =            327.3479644213293795
    One-Electron Energy =               -1112.9273961966193838
    Two-Electron Energy =                 444.4085513696830390
    Total Energy =                       -341.1708804056069653
  Basis Set: (AUG-CC-PVTZ AUX)
    Blend: AUG-CC-PVTZ-RI
    Molecular point group: c1

    Geometry (in Angstrom), charge = 0, multiplicity = 1:

       Center              X                  Y                   Z               Mass
    ------------   -----------------  -----------------  -----------------  -----------------
         O           -2.106387389199     0.304129440334    -0.213761111068    15.994914619570
         N            0.169732610801     0.441009440334     0.091995888932    14.003074004430
         N           -0.913627389199    -1.632624559666     0.131133888932    14.003074004430
         C            1.392584610801    -0.154842559666     0.614902888932    12.000000000000
         C            2.386957610801    -0.534325559666    -0.479718111068    12.000000000000
         C            0.140245610801     1.887555440334    -0.042422111068    12.000000000000
         C           -1.018150389199    -0.243478559666    -0.023838111068    12.000000000000
         H            1.849626610801     0.574406440334     1.294466888932     1.007825032230
         H            1.127572610801    -1.023962559666     1.222233888932     1.007825032230
         H            1.965971610801    -1.289225559666    -1.150253111068     1.007825032230
         H            2.648689610801     0.338561440334    -1.083323111068     1.007825032230
         H            3.138499610801    -0.864327059666    -0.123954211068     1.007825032230
         H            1.005222610801     2.222769440334    -0.622284111068     1.007825032230
         H            0.160198610801     2.378644440334     0.938312888932     1.007825032230
         H           -0.776578389199     2.166945440334    -0.557914111068     1.007825032230
         H           -0.114099389199    -2.074054559666    -0.307910111068     1.007825032230
         H           -1.788572389199    -2.069729559666    -0.137747111068     1.007825032230

  Basis Set: AUG-CC-PVTZ
    Blend: AUG-CC-PVTZ
  Basis Set: (AUG-CC-PVTZ AUX)
    Blend: AUG-CC-PVTZ-JKFIT
	 Reference Energy          =    -341.1708804056069653 [Eh]
	 Singles Energy            =      -0.0000000000000000 [Eh]
	 Same-Spin Energy          =      -0.3490677102335150 [Eh]
	 Opposite-Spin Energy      =      -1.1390614737939790 [Eh]
	 Correlation Energy        =      -1.4881291840274939 [Eh]
	 Total Energy              =    -342.6590095896344792 [Eh]

	 ================> DF-SCS-MP2 Energies <==================
	-----------------------------------------------------------
	 SCS Same-Spin Scale       =       0.3333333333333333 [-]
	 SCS Opposite-Spin Scale   =       1.2000000000000000 [-]
	 SCS Same-Spin Energy      =      -0.1163559034111717 [Eh]
	 SCS Opposite-Spin Energy  =      -1.3668737685527748 [Eh]
	 SCS Correlation Energy    =      -1.4832296719639464 [Eh]
	 SCS Total Energy          =    -342.6541100775709197 [Eh]
	-----------------------------------------------------------

  Dipole Moment: [D]
     X:     3.9208      Y:    -1.2027      Z:    -0.1628     Total:     4.1044

*** Psi4 exiting successfully. Buy a developer a beer!
