                               Psi4 1.4a3.dev225

  ==> Input File <==

--------------------------------------------------------------------------
#psi4
#
memory 32 gb

molecule  {
0 1
  O       -2.1909590     0.3022110    -0.2104850
  N        0.0851610     0.4390910     0.0952720
  N       -0.9981990    -1.6345430     0.1344100
  C        1.2904681    -0.1739719     0.6078833
  C        2.3023860    -0.5362440    -0.4764420
  C        0.0556740     1.8856370    -0.0391460
  C       -1.1027220    -0.2453970    -0.0205620
  H        1.7650550     0.5724880     1.2977430
  H        1.0430010    -1.0258810     1.2255100
  H        1.8814000    -1.2911440    -1.1469770
  H        2.5641180     0.3366430    -1.0800470
  H        3.2219480    -0.9400230    -0.0411410
  H        0.9206510     2.2208510    -0.6190080
  H        0.0756270     2.3767260     0.9415890
  H       -0.8611500     2.1650270    -0.5546380
  H       -0.1986710    -2.0759730    -0.3046340
  H       -1.8731440    -2.0716480    -0.1344710
units angstrom
no_reorient  #important for SAPT in psi4, default
symmetry c1  #important for SAPT in psi4, default
}

set PROPERTIES_ORIGIN ["COM"]
properties('MP2/aug-cc-pvtz', properties = ['dipole'])
--------------------------------------------------------------------------

    Molecular point group: c1
  Charge       = 0
  Multiplicity = 1
  Basis Set: AUG-CC-PVTZ
    Blend: AUG-CC-PVTZ
  Basis Set: (AUG-CC-PVTZ AUX)
    Blend: AUG-CC-PVTZ-JKFIT

    Orbital Energies [Eh]
    ---------------------

    Doubly Occupied:

       1A    -20.505841     2A    -15.582557     3A    -15.577865
       4A    -11.372480     5A    -11.274381     6A    -11.253615
       7A    -11.232714     8A     -1.380029     9A     -1.251779
      10A     -1.190640    11A     -1.033402    12A     -0.945547
      13A     -0.875642    14A     -0.762953    15A     -0.729738
      16A     -0.684806    17A     -0.640713    18A     -0.630948
      19A     -0.603397    20A     -0.589867    21A     -0.561531
      22A     -0.557714    23A     -0.536792    24A     -0.525387
      25A     -0.504384    26A     -0.441279    27A     -0.417729
      28A     -0.373313

  @DF-RHF Final Energy:  -341.20400646773015

   => Energetics <=

    Nuclear Repulsion Energy =            326.5756463310743243
    One-Electron Energy =               -1111.4852121992246339
    Two-Electron Energy =                 443.7055594004202135
    Total Energy =                       -341.2040064677301530
  Basis Set: (AUG-CC-PVTZ AUX)
    Blend: AUG-CC-PVTZ-RI
    Molecular point group: c1

    Geometry (in Angstrom), charge = 0, multiplicity = 1:

       Center              X                  Y                   Z               Mass
    ------------   -----------------  -----------------  -----------------  -----------------
         O           -2.105983741909     0.306881081222    -0.213336060013    15.994914619570
         N            0.170136258091     0.443761081222     0.092420939987    14.003074004430
         N           -0.913223741909    -1.629872918778     0.131558939987    14.003074004430
         C            1.375443358091    -0.169301818778     0.605032239987    12.000000000000
         C            2.387361258091    -0.531573918778    -0.479293060013    12.000000000000
         C            0.140649258091     1.890307081222    -0.041997060013    12.000000000000
         C           -1.017746741909    -0.240726918778    -0.023413060013    12.000000000000
         H            1.850030258091     0.577158081222     1.294891939987     1.007825032230
         H            1.127976258091    -1.021210918778     1.222658939987     1.007825032230
         H            1.966375258091    -1.286473918778    -1.149828060013     1.007825032230
         H            2.649093258091     0.341313081222    -1.082898060013     1.007825032230
         H            3.306923258091    -0.935352918778    -0.043992060013     1.007825032230
         H            1.005626258091     2.225521081222    -0.621859060013     1.007825032230
         H            0.160602258091     2.381396081222     0.938737939987     1.007825032230
         H           -0.776174741909     2.169697081222    -0.557489060013     1.007825032230
         H           -0.113695741909    -2.071302918778    -0.307485060013     1.007825032230
         H           -1.788168741909    -2.066977918778    -0.137322060013     1.007825032230

  Basis Set: AUG-CC-PVTZ
    Blend: AUG-CC-PVTZ
  Basis Set: (AUG-CC-PVTZ AUX)
    Blend: AUG-CC-PVTZ-JKFIT
	 Reference Energy          =    -341.2040064677301530 [Eh]
	 Singles Energy            =      -0.0000000000000000 [Eh]
	 Same-Spin Energy          =      -0.3489964938879649 [Eh]
	 Opposite-Spin Energy      =      -1.1396910904198716 [Eh]
	 Correlation Energy        =      -1.4886875843078364 [Eh]
	 Total Energy              =    -342.6926940520380072 [Eh]

	 ================> DF-SCS-MP2 Energies <==================
	-----------------------------------------------------------
	 SCS Same-Spin Scale       =       0.3333333333333333 [-]
	 SCS Opposite-Spin Scale   =       1.2000000000000000 [-]
	 SCS Same-Spin Energy      =      -0.1163321646293216 [Eh]
	 SCS Opposite-Spin Energy  =      -1.3676293085038458 [Eh]
	 SCS Correlation Energy    =      -1.4839614731331674 [Eh]
	 SCS Total Energy          =    -342.6879679408633024 [Eh]
	-----------------------------------------------------------

  Dipole Moment: [D]
     X:     3.7778      Y:    -1.1643      Z:    -0.1967     Total:     3.9580

*** Psi4 exiting successfully. Buy a developer a beer!
