                               Psi4 1.4a3.dev225

  ==> Input File <==

--------------------------------------------------------------------------
#psi4
#
memory 32 gb

molecule  {
0 1
  O       -2.1909590     0.3022110    -0.2104850
  N        0.0851610     0.4390910     0.0952720
  N       -0.9981990    -1.6345430     0.1344100
  C        1.3080130    -0.1567610     0.6181790
  C        2.3023860    -0.5362440    -0.4764420
  C        0.0556740     1.8856370    -0.0391460
  C       -1.1027220    -0.2453970    -0.0205620
  H        1.7650550     0.5724880     1.2977430
  H        1.0430010    -1.0258810     1.2255100
  H        1.8814000    -1.2911440    -1.1469770
  H        2.5641180     0.3366430    -1.0800470
  H        3.2219480    -0.9400230    -0.0411410
  H        0.9206510     2.2208510    -0.6190080
  H        0.0756270     2.3767260     0.9415890
  H       -0.7769049     2.1393544    -0.5072705
  H       -0.1986710    -2.0759730    -0.3046340
  H       -1.8731440    -2.0716480    -0.1344710
units angstrom
no_reorient  #important for SAPT in psi4, default
symmetry c1  #important for SAPT in psi4, default
}

set PROPERTIES_ORIGIN ["COM"]
properties('MP2/aug-cc-pvtz', properties = ['dipole'])
--------------------------------------------------------------------------

    Molecular point group: c1
  Charge       = 0
  Multiplicity = 1
  Basis Set: AUG-CC-PVTZ
    Blend: AUG-CC-PVTZ
  Basis Set: (AUG-CC-PVTZ AUX)
    Blend: AUG-CC-PVTZ-JKFIT

    Orbital Energies [Eh]
    ---------------------

    Doubly Occupied:

       1A    -20.505689     2A    -15.581394     3A    -15.577398
       4A    -11.372373     5A    -11.273804     6A    -11.242285
       7A    -11.232830     8A     -1.379481     9A     -1.249559
      10A     -1.190246    11A     -1.035025    12A     -0.953190
      13A     -0.876248    14A     -0.765091    15A     -0.730365
      16A     -0.684468    17A     -0.640804    18A     -0.634854
      19A     -0.605715    20A     -0.588646    21A     -0.566434
      22A     -0.557766    23A     -0.540717    24A     -0.529877
      25A     -0.506673    26A     -0.441472    27A     -0.417885
      28A     -0.373116

  @DF-RHF Final Energy:  -341.19880917896074

   => Energetics <=

    Nuclear Repulsion Energy =            326.7640108211777488
    One-Electron Energy =               -1111.8188256798448492
    Two-Electron Energy =                 443.8560056797063567
    Total Energy =                       -341.1988091789607438
  Basis Set: (AUG-CC-PVTZ AUX)
    Blend: AUG-CC-PVTZ-RI
    Molecular point group: c1

    Geometry (in Angstrom), charge = 0, multiplicity = 1:

       Center              X                  Y                   Z               Mass
    ------------   -----------------  -----------------  -----------------  -----------------
         O           -2.108877992586     0.305111307251    -0.215014035180    15.994914619570
         N            0.167242007414     0.441991307251     0.090742964820    14.003074004430
         N           -0.916117992586    -1.631642692749     0.129880964820    14.003074004430
         C            1.390094007414    -0.153860692749     0.613649964820    12.000000000000
         C            2.384467007414    -0.533343692749    -0.480971035180    12.000000000000
         C            0.137755007414     1.888537307251    -0.043675035180    12.000000000000
         C           -1.020640992586    -0.242496692749    -0.025091035180    12.000000000000
         H            1.847136007414     0.575388307251     1.293213964820     1.007825032230
         H            1.125082007414    -1.022980692749     1.220980964820     1.007825032230
         H            1.963481007414    -1.288243692749    -1.151506035180     1.007825032230
         H            2.646199007414     0.339543307251    -1.084576035180     1.007825032230
         H            3.304029007414    -0.937122692749    -0.045670035180     1.007825032230
         H            1.002732007414     2.223751307251    -0.623537035180     1.007825032230
         H            0.157708007414     2.379626307251     0.937059964820     1.007825032230
         H           -0.694823892586     2.142254707251    -0.511799535180     1.007825032230
         H           -0.116589992586    -2.073072692749    -0.309163035180     1.007825032230
         H           -1.791062992586    -2.068747692749    -0.139000035180     1.007825032230

  Basis Set: AUG-CC-PVTZ
    Blend: AUG-CC-PVTZ
  Basis Set: (AUG-CC-PVTZ AUX)
    Blend: AUG-CC-PVTZ-JKFIT
	 Reference Energy          =    -341.1988091789607438 [Eh]
	 Singles Energy            =      -0.0000000000000000 [Eh]
	 Same-Spin Energy          =      -0.3486920943946322 [Eh]
	 Opposite-Spin Energy      =      -1.1389050215215912 [Eh]
	 Correlation Energy        =      -1.4875971159162233 [Eh]
	 Total Energy              =    -342.6864062948769742 [Eh]

	 ================> DF-SCS-MP2 Energies <==================
	-----------------------------------------------------------
	 SCS Same-Spin Scale       =       0.3333333333333333 [-]
	 SCS Opposite-Spin Scale   =       1.2000000000000000 [-]
	 SCS Same-Spin Energy      =      -0.1162306981315441 [Eh]
	 SCS Opposite-Spin Energy  =      -1.3666860258259095 [Eh]
	 SCS Correlation Energy    =      -1.4829167239574534 [Eh]
	 SCS Total Energy          =    -342.6817259029181741 [Eh]
	-----------------------------------------------------------

  Dipole Moment: [D]
     X:     3.8293      Y:    -1.1367      Z:    -0.1836     Total:     3.9986

*** Psi4 exiting successfully. Buy a developer a beer!
