                               Psi4 1.4a3.dev225

  ==> Input File <==

--------------------------------------------------------------------------
#psi4
#
memory 32 gb

molecule  {
0 1
  O       -2.1909590     0.3022110    -0.2104850
  N        0.0851610     0.4390910     0.0952720
  N       -0.9981990    -1.6345430     0.1344100
  C        1.3084292    -0.1315710     0.6094998
  C        2.3023860    -0.5362440    -0.4764420
  C        0.0556740     1.8856370    -0.0391460
  C       -1.1027220    -0.2453970    -0.0205620
  H        1.7650550     0.5724880     1.2977430
  H        1.0430010    -1.0258810     1.2255100
  H        1.8814000    -1.2911440    -1.1469770
  H        2.5641180     0.3366430    -1.0800470
  H        3.2219480    -0.9400230    -0.0411410
  H        0.9206510     2.2208510    -0.6190080
  H        0.0756270     2.3767260     0.9415890
  H       -0.8611500     2.1650270    -0.5546380
  H       -0.1986710    -2.0759730    -0.3046340
  H       -1.8731440    -2.0716480    -0.1344710
units angstrom
no_reorient  #important for SAPT in psi4, default
symmetry c1  #important for SAPT in psi4, default
}

set PROPERTIES_ORIGIN ["COM"]
properties('MP2/aug-cc-pvtz', properties = ['dipole'])
--------------------------------------------------------------------------

    Molecular point group: c1
  Charge       = 0
  Multiplicity = 1
  Basis Set: AUG-CC-PVTZ
    Blend: AUG-CC-PVTZ
  Basis Set: (AUG-CC-PVTZ AUX)
    Blend: AUG-CC-PVTZ-JKFIT

    Orbital Energies [Eh]
    ---------------------

    Doubly Occupied:

       1A    -20.506361     2A    -15.582356     3A    -15.577746
       4A    -11.373446     5A    -11.274286     6A    -11.252843
       7A    -11.232636     8A     -1.380274     9A     -1.251909
      10A     -1.190822    11A     -1.033098    12A     -0.944780
      13A     -0.877467    14A     -0.762466    15A     -0.727129
      16A     -0.686214    17A     -0.641095    18A     -0.633206
      19A     -0.604615    20A     -0.588084    21A     -0.560636
      22A     -0.557464    23A     -0.536033    24A     -0.527933
      25A     -0.500941    26A     -0.441662    27A     -0.418141
      28A     -0.373582

  @DF-RHF Final Energy:  -341.20385243821909

   => Energetics <=

    Nuclear Repulsion Energy =            326.4819294956301974
    One-Electron Energy =               -1111.2971091116219213
    Two-Electron Energy =                 443.6113271777726368
    Total Energy =                       -341.2038524382190872
  Basis Set: (AUG-CC-PVTZ AUX)
    Blend: AUG-CC-PVTZ-RI
    Molecular point group: c1

    Geometry (in Angstrom), charge = 0, multiplicity = 1:

       Center              X                  Y                   Z               Mass
    ------------   -----------------  -----------------  -----------------  -----------------
         O           -2.108095170697     0.301896615856    -0.213526088722    15.994914619570
         N            0.168024829303     0.438776615856     0.092230911278    14.003074004430
         N           -0.915335170697    -1.634857384144     0.131368911278    14.003074004430
         C            1.391293029303    -0.131885384144     0.606458711278    12.000000000000
         C            2.385249829303    -0.536558384144    -0.479483088722    12.000000000000
         C            0.138537829303     1.885322615856    -0.042187088722    12.000000000000
         C           -1.019858170697    -0.245711384144    -0.023603088722    12.000000000000
         H            1.847918829303     0.572173615856     1.294701911278     1.007825032230
         H            1.125864829303    -1.026195384144     1.222468911278     1.007825032230
         H            1.964263829303    -1.291458384144    -1.150018088722     1.007825032230
         H            2.646981829303     0.336328615856    -1.083088088722     1.007825032230
         H            3.304811829303    -0.940337384144    -0.044182088722     1.007825032230
         H            1.003514829303     2.220536615856    -0.622049088722     1.007825032230
         H            0.158490829303     2.376411615856     0.938547911278     1.007825032230
         H           -0.778286170697     2.164712615856    -0.557679088722     1.007825032230
         H           -0.115807170697    -2.076287384144    -0.307675088722     1.007825032230
         H           -1.790280170697    -2.071962384144    -0.137512088722     1.007825032230

  Basis Set: AUG-CC-PVTZ
    Blend: AUG-CC-PVTZ
  Basis Set: (AUG-CC-PVTZ AUX)
    Blend: AUG-CC-PVTZ-JKFIT
	 Reference Energy          =    -341.2038524382190872 [Eh]
	 Singles Energy            =      -0.0000000000000000 [Eh]
	 Same-Spin Energy          =      -0.3490354384288313 [Eh]
	 Opposite-Spin Energy      =      -1.1397709902533950 [Eh]
	 Correlation Energy        =      -1.4888064286822265 [Eh]
	 Total Energy              =    -342.6926588669012972 [Eh]

	 ================> DF-SCS-MP2 Energies <==================
	-----------------------------------------------------------
	 SCS Same-Spin Scale       =       0.3333333333333333 [-]
	 SCS Opposite-Spin Scale   =       1.2000000000000000 [-]
	 SCS Same-Spin Energy      =      -0.1163451461429438 [Eh]
	 SCS Opposite-Spin Energy  =      -1.3677251883040740 [Eh]
	 SCS Correlation Energy    =      -1.4840703344470176 [Eh]
	 SCS Total Energy          =    -342.6879227726661270 [Eh]
	-----------------------------------------------------------

  Dipole Moment: [D]
     X:     3.7833      Y:    -1.1491      Z:    -0.1887     Total:     3.9584

*** Psi4 exiting successfully. Buy a developer a beer!
