                               Psi4 1.4a3.dev225

  ==> Input File <==

--------------------------------------------------------------------------
#psi4
#
memory 32 gb

molecule  {
0 1
  O       -2.1909590     0.3022110    -0.2104850
  N        0.0851610     0.4390910     0.0952720
  N       -0.9981990    -1.6345430     0.1344100
  C        1.2074711    -0.2615758     0.5515166
  C        2.3023860    -0.5362440    -0.4764420
  C        0.0556740     1.8856370    -0.0391460
  C       -1.1027220    -0.2453970    -0.0205620
  H        1.7650550     0.5724880     1.2977430
  H        1.0430010    -1.0258810     1.2255100
  H        1.8814000    -1.2911440    -1.1469770
  H        2.5641180     0.3366430    -1.0800470
  H        3.2219480    -0.9400230    -0.0411410
  H        0.9206510     2.2208510    -0.6190080
  H        0.0756270     2.3767260     0.9415890
  H       -0.8611500     2.1650270    -0.5546380
  H       -0.1986710    -2.0759730    -0.3046340
  H       -1.8731440    -2.0716480    -0.1344710
units angstrom
no_reorient  #important for SAPT in psi4, default
symmetry c1  #important for SAPT in psi4, default
}

set PROPERTIES_ORIGIN ["COM"]
properties('MP2/aug-cc-pvtz', properties = ['dipole'])
--------------------------------------------------------------------------

    Molecular point group: c1
  Charge       = 0
  Multiplicity = 1
  Basis Set: AUG-CC-PVTZ
    Blend: AUG-CC-PVTZ
  Basis Set: (AUG-CC-PVTZ AUX)
    Blend: AUG-CC-PVTZ-JKFIT

    Orbital Energies [Eh]
    ---------------------

    Doubly Occupied:

       1A    -20.507116     2A    -15.586538     3A    -15.579963
       4A    -11.372982     5A    -11.278423     6A    -11.257871
       7A    -11.233086     8A     -1.383290     9A     -1.263634
      10A     -1.193721    11A     -1.033536    12A     -0.952504
      13A     -0.874104    14A     -0.768716    15A     -0.738949
      16A     -0.689438    17A     -0.646365    18A     -0.624892
      19A     -0.600292    20A     -0.593489    21A     -0.567978
      22A     -0.560508    23A     -0.541781    24A     -0.533241
      25A     -0.479171    26A     -0.442856    27A     -0.416113
      28A     -0.370765

  @DF-RHF Final Energy:  -341.17918383646412

   => Energetics <=

    Nuclear Repulsion Energy =            327.7887933304596686
    One-Electron Energy =               -1113.7533125924298929
    Two-Electron Energy =                 444.7853354255061618
    Total Energy =                       -341.1791838364641194
  Basis Set: (AUG-CC-PVTZ AUX)
    Blend: AUG-CC-PVTZ-RI
    Molecular point group: c1

    Geometry (in Angstrom), charge = 0, multiplicity = 1:

       Center              X                  Y                   Z               Mass
    ------------   -----------------  -----------------  -----------------  -----------------
         O           -2.096226975614     0.317179414642    -0.206709835948    15.994914619570
         N            0.179893024386     0.454059414642     0.099047164052    14.003074004430
         N           -0.903466975614    -1.619574585358     0.138185164052    14.003074004430
         C            1.302203124386    -0.246607385358     0.555291764052    12.000000000000
         C            2.397118024386    -0.521275585358    -0.472666835948    12.000000000000
         C            0.150406024386     1.900605414642    -0.035370835948    12.000000000000
         C           -1.007989975614    -0.230428585358    -0.016786835948    12.000000000000
         H            1.859787024386     0.587456414642     1.301518164052     1.007825032230
         H            1.137733024386    -1.010912585358     1.229285164052     1.007825032230
         H            1.976132024386    -1.276175585358    -1.143201835948     1.007825032230
         H            2.658850024386     0.351611414642    -1.076271835948     1.007825032230
         H            3.316680024386    -0.925054585358    -0.037365835948     1.007825032230
         H            1.015383024386     2.235819414642    -0.615232835948     1.007825032230
         H            0.170359024386     2.391694414642     0.945364164052     1.007825032230
         H           -0.766417975614     2.179995414642    -0.550862835948     1.007825032230
         H           -0.103938975614    -2.061004585358    -0.300858835948     1.007825032230
         H           -1.778411975614    -2.056679585358    -0.130695835948     1.007825032230

  Basis Set: AUG-CC-PVTZ
    Blend: AUG-CC-PVTZ
  Basis Set: (AUG-CC-PVTZ AUX)
    Blend: AUG-CC-PVTZ-JKFIT
	 Reference Energy          =    -341.1791838364641194 [Eh]
	 Singles Energy            =      -0.0000000000000000 [Eh]
	 Same-Spin Energy          =      -0.3500045837794113 [Eh]
	 Opposite-Spin Energy      =      -1.1414831047728886 [Eh]
	 Correlation Energy        =      -1.4914876885522999 [Eh]
	 Total Energy              =    -342.6706715250164166 [Eh]

	 ================> DF-SCS-MP2 Energies <==================
	-----------------------------------------------------------
	 SCS Same-Spin Scale       =       0.3333333333333333 [-]
	 SCS Opposite-Spin Scale   =       1.2000000000000000 [-]
	 SCS Same-Spin Energy      =      -0.1166681945931371 [Eh]
	 SCS Opposite-Spin Energy  =      -1.3697797257274662 [Eh]
	 SCS Correlation Energy    =      -1.4864479203206034 [Eh]
	 SCS Total Energy          =    -342.6656317567847054 [Eh]
	-----------------------------------------------------------

  Dipole Moment: [D]
     X:     3.5851      Y:    -1.1750      Z:    -0.3268     Total:     3.7868

*** Psi4 exiting successfully. Buy a developer a beer!
