                               Psi4 1.4a3.dev225

  ==> Input File <==

--------------------------------------------------------------------------
#psi4
#
memory 32 gb

molecule  {
0 1
  O       -2.1909590     0.3022110    -0.2104850
  N        0.0851610     0.4390910     0.0952720
  N       -0.9981990    -1.6345430     0.1344100
  C        1.3080130    -0.1567610     0.6181790
  C        2.3023860    -0.5362440    -0.4764420
  C        0.0556740     1.8856370    -0.0391460
  C       -1.0878079    -0.4436105     0.0015505
  H        1.7650550     0.5724880     1.2977430
  H        1.0430010    -1.0258810     1.2255100
  H        1.8814000    -1.2911440    -1.1469770
  H        2.5641180     0.3366430    -1.0800470
  H        3.2219480    -0.9400230    -0.0411410
  H        0.9206510     2.2208510    -0.6190080
  H        0.0756270     2.3767260     0.9415890
  H       -0.8611500     2.1650270    -0.5546380
  H       -0.1986710    -2.0759730    -0.3046340
  H       -1.8731440    -2.0716480    -0.1344710
units angstrom
no_reorient  #important for SAPT in psi4, default
symmetry c1  #important for SAPT in psi4, default
}

set PROPERTIES_ORIGIN ["COM"]
properties('MP2/aug-cc-pvtz', properties = ['dipole'])
--------------------------------------------------------------------------

    Molecular point group: c1
  Charge       = 0
  Multiplicity = 1
  Basis Set: AUG-CC-PVTZ
    Blend: AUG-CC-PVTZ
  Basis Set: (AUG-CC-PVTZ AUX)
    Blend: AUG-CC-PVTZ-JKFIT

    Orbital Energies [Eh]
    ---------------------

    Doubly Occupied:

       1A    -20.483392     2A    -15.614362     3A    -15.570365
       4A    -11.376074     5A    -11.265401     6A    -11.244687
       7A    -11.229831     8A     -1.376664     9A     -1.242095
      10A     -1.205891    11A     -1.021836    12A     -0.933091
      13A     -0.865408    14A     -0.818881    15A     -0.763761
      16A     -0.683931    17A     -0.636116    18A     -0.635056
      19A     -0.591780    20A     -0.584630    21A     -0.559195
      22A     -0.554146    23A     -0.532912    24A     -0.502378
      25A     -0.493548    26A     -0.415807    27A     -0.403419
      28A     -0.353377

  @DF-RHF Final Energy:  -341.13386325080751

   => Energetics <=

    Nuclear Repulsion Energy =            325.8420506858259387
    One-Electron Energy =               -1110.0357606212255632
    Two-Electron Energy =                 443.0598466845921166
    Total Energy =                       -341.1338632508075079
  Basis Set: (AUG-CC-PVTZ AUX)
    Blend: AUG-CC-PVTZ-RI
    Molecular point group: c1

    Geometry (in Angstrom), charge = 0, multiplicity = 1:

       Center              X                  Y                   Z               Mass
    ------------   -----------------  -----------------  -----------------  -----------------
         O           -2.109799480757     0.328158959543    -0.217145827034    15.994914619570
         N            0.166320519243     0.465038959543     0.088611172966    14.003074004430
         N           -0.917039480757    -1.608595040457     0.127749172966    14.003074004430
         C            1.389172519243    -0.130813040457     0.611518172966    12.000000000000
         C            2.383545519243    -0.510296040457    -0.483102827034    12.000000000000
         C            0.136833519243     1.911584959543    -0.045806827034    12.000000000000
         C           -1.006648380757    -0.417662540457    -0.005110327034    12.000000000000
         H            1.846214519243     0.598435959543     1.291082172966     1.007825032230
         H            1.124160519243    -0.999933040457     1.218849172966     1.007825032230
         H            1.962559519243    -1.265196040457    -1.153637827034     1.007825032230
         H            2.645277519243     0.362590959543    -1.086707827034     1.007825032230
         H            3.303107519243    -0.914075040457    -0.047801827034     1.007825032230
         H            1.001810519243     2.246798959543    -0.625668827034     1.007825032230
         H            0.156786519243     2.402673959543     0.934928172966     1.007825032230
         H           -0.779990480757     2.190974959543    -0.561298827034     1.007825032230
         H           -0.117511480757    -2.050025040457    -0.311294827034     1.007825032230
         H           -1.791984480757    -2.045700040457    -0.141131827034     1.007825032230

  Basis Set: AUG-CC-PVTZ
    Blend: AUG-CC-PVTZ
  Basis Set: (AUG-CC-PVTZ AUX)
    Blend: AUG-CC-PVTZ-JKFIT
	 Reference Energy          =    -341.1338632508075079 [Eh]
	 Singles Energy            =      -0.0000000000000000 [Eh]
	 Same-Spin Energy          =      -0.3518437107281827 [Eh]
	 Opposite-Spin Energy      =      -1.1441256844989418 [Eh]
	 Correlation Energy        =      -1.4959693952271245 [Eh]
	 Total Energy              =    -342.6298326460346289 [Eh]

	 ================> DF-SCS-MP2 Energies <==================
	-----------------------------------------------------------
	 SCS Same-Spin Scale       =       0.3333333333333333 [-]
	 SCS Opposite-Spin Scale   =       1.2000000000000000 [-]
	 SCS Same-Spin Energy      =      -0.1172812369093942 [Eh]
	 SCS Opposite-Spin Energy  =      -1.3729508213987300 [Eh]
	 SCS Correlation Energy    =      -1.4902320583081243 [Eh]
	 SCS Total Energy          =    -342.6240953091156598 [Eh]
	-----------------------------------------------------------

  Dipole Moment: [D]
     X:     3.7877      Y:    -2.7585      Z:    -0.0739     Total:     4.6863

*** Psi4 exiting successfully. Buy a developer a beer!
