                               Psi4 1.4a3.dev225

  ==> Input File <==

--------------------------------------------------------------------------
#psi4
#
memory 32 gb

molecule  {
0 1
  O       -2.1909590     0.3022110    -0.2104850
  N        0.0851610     0.4390910     0.0952720
  N       -0.9981990    -1.6345430     0.1344100
  C        1.3080130    -0.1567610     0.6181790
  C        2.3023860    -0.5362440    -0.4764420
  C        0.0556740     1.8856370    -0.0391460
  C       -1.1027220    -0.2453970    -0.0205620
  H        1.7650550     0.5724880     1.2977430
  H        1.0381513    -1.0417857     1.2366240
  H        1.8814000    -1.2911440    -1.1469770
  H        2.5641180     0.3366430    -1.0800470
  H        3.2219480    -0.9400230    -0.0411410
  H        0.9206510     2.2208510    -0.6190080
  H        0.0756270     2.3767260     0.9415890
  H       -0.8611500     2.1650270    -0.5546380
  H       -0.1986710    -2.0759730    -0.3046340
  H       -1.8731440    -2.0716480    -0.1344710
units angstrom
no_reorient  #important for SAPT in psi4, default
symmetry c1  #important for SAPT in psi4, default
}

set PROPERTIES_ORIGIN ["COM"]
properties('MP2/aug-cc-pvtz', properties = ['dipole'])
--------------------------------------------------------------------------

    Molecular point group: c1
  Charge       = 0
  Multiplicity = 1
  Basis Set: AUG-CC-PVTZ
    Blend: AUG-CC-PVTZ
  Basis Set: (AUG-CC-PVTZ AUX)
    Blend: AUG-CC-PVTZ-JKFIT

    Orbital Energies [Eh]
    ---------------------

    Doubly Occupied:

       1A    -20.505643     2A    -15.582106     3A    -15.577453
       4A    -11.372435     5A    -11.276528     6A    -11.252954
       7A    -11.233176     8A     -1.379481     9A     -1.249364
      10A     -1.190024    11A     -1.033073    12A     -0.944305
      13A     -0.875412    14A     -0.761755    15A     -0.726827
      16A     -0.684312    17A     -0.639864    18A     -0.632063
      19A     -0.603987    20A     -0.588634    21A     -0.560447
      22A     -0.557261    23A     -0.536548    24A     -0.525615
      25A     -0.503874    26A     -0.440996    27A     -0.417706
      28A     -0.373316

  @DF-RHF Final Energy:  -341.20421222842162

   => Energetics <=

    Nuclear Repulsion Energy =            326.2286843683754682
    One-Electron Energy =               -1110.8154781660869048
    Two-Electron Energy =                 443.3825815692897550
    Total Energy =                       -341.2042122284216248
  Basis Set: (AUG-CC-PVTZ AUX)
    Blend: AUG-CC-PVTZ-RI
    Molecular point group: c1

    Geometry (in Angstrom), charge = 0, multiplicity = 1:

       Center              X                  Y                   Z               Mass
    ------------   -----------------  -----------------  -----------------  -----------------
         O           -2.107998363138     0.305014869159    -0.214656105804    15.994914619570
         N            0.168121636862     0.441894869159     0.091100894196    14.003074004430
         N           -0.915238363138    -1.631739130841     0.130238894196    14.003074004430
         C            1.390973636862    -0.153957130841     0.614007894196    12.000000000000
         C            2.385346636862    -0.533440130841    -0.480613105804    12.000000000000
         C            0.138634636862     1.888440869159    -0.043317105804    12.000000000000
         C           -1.019761363138    -0.242593130841    -0.024733105804    12.000000000000
         H            1.848015636862     0.575291869159     1.293571894196     1.007825032230
         H            1.121111936862    -1.038981830841     1.232452894196     1.007825032230
         H            1.964360636862    -1.288340130841    -1.151148105804     1.007825032230
         H            2.647078636862     0.339446869159    -1.084218105804     1.007825032230
         H            3.304908636862    -0.937219130841    -0.045312105804     1.007825032230
         H            1.003611636862     2.223654869159    -0.623179105804     1.007825032230
         H            0.158587636862     2.379529869159     0.937417894196     1.007825032230
         H           -0.778189363138     2.167830869159    -0.558809105804     1.007825032230
         H           -0.115710363138    -2.073169130841    -0.308805105804     1.007825032230
         H           -1.790183363138    -2.068844130841    -0.138642105804     1.007825032230

  Basis Set: AUG-CC-PVTZ
    Blend: AUG-CC-PVTZ
  Basis Set: (AUG-CC-PVTZ AUX)
    Blend: AUG-CC-PVTZ-JKFIT
	 Reference Energy          =    -341.2042122284216248 [Eh]
	 Singles Energy            =      -0.0000000000000000 [Eh]
	 Same-Spin Energy          =      -0.3489492387136843 [Eh]
	 Opposite-Spin Energy      =      -1.1398031724111020 [Eh]
	 Correlation Energy        =      -1.4887524111247863 [Eh]
	 Total Energy              =    -342.6929646395464033 [Eh]

	 ================> DF-SCS-MP2 Energies <==================
	-----------------------------------------------------------
	 SCS Same-Spin Scale       =       0.3333333333333333 [-]
	 SCS Opposite-Spin Scale   =       1.2000000000000000 [-]
	 SCS Same-Spin Energy      =      -0.1163164129045614 [Eh]
	 SCS Opposite-Spin Energy  =      -1.3677638068933222 [Eh]
	 SCS Correlation Energy    =      -1.4840802197978837 [Eh]
	 SCS Total Energy          =    -342.6882924482194994 [Eh]
	-----------------------------------------------------------

  Dipole Moment: [D]
     X:     3.8120      Y:    -1.1595      Z:    -0.1852     Total:     3.9887

*** Psi4 exiting successfully. Buy a developer a beer!
