                               Psi4 1.4a3.dev225

  ==> Input File <==

--------------------------------------------------------------------------
#psi4
#
memory 32 gb

molecule  {
0 1
  O       -2.1909590     0.3022110    -0.2104850
  N        0.0851610     0.4390910     0.0952720
  N       -0.9981990    -1.6345430     0.1344100
  C        1.3080130    -0.1567610     0.6181790
  C        2.3023860    -0.5362440    -0.4764420
  C        0.0556740     1.8856370    -0.0391460
  C       -1.1027220    -0.2453970    -0.0205620
  H        1.7650550     0.5724880     1.2977430
  H        1.0430010    -1.0258810     1.2255100
  H        1.8814000    -1.2911440    -1.1469770
  H        2.5641180     0.3366430    -1.0800470
  H        3.1379380    -0.9031343    -0.0809095
  H        0.9206510     2.2208510    -0.6190080
  H        0.0756270     2.3767260     0.9415890
  H       -0.8611500     2.1650270    -0.5546380
  H       -0.1986710    -2.0759730    -0.3046340
  H       -1.8731440    -2.0716480    -0.1344710
units angstrom
no_reorient  #important for SAPT in psi4, default
symmetry c1  #important for SAPT in psi4, default
}

set PROPERTIES_ORIGIN ["COM"]
properties('MP2/aug-cc-pvtz', properties = ['dipole'])
--------------------------------------------------------------------------

    Molecular point group: c1
  Charge       = 0
  Multiplicity = 1
  Basis Set: AUG-CC-PVTZ
    Blend: AUG-CC-PVTZ
  Basis Set: (AUG-CC-PVTZ AUX)
    Blend: AUG-CC-PVTZ-JKFIT

    Orbital Energies [Eh]
    ---------------------

    Doubly Occupied:

       1A    -20.505052     2A    -15.581086     3A    -15.577099
       4A    -11.371838     5A    -11.273526     6A    -11.252322
       7A    -11.220551     8A     -1.378904     9A     -1.248766
      10A     -1.189582    11A     -1.039072    12A     -0.944657
      13A     -0.882765    14A     -0.761844    15A     -0.727259
      16A     -0.685385    17A     -0.641688    18A     -0.632725
      19A     -0.604214    20A     -0.593673    21A     -0.567110
      22A     -0.557309    23A     -0.536113    24A     -0.529125
      25A     -0.505302    26A     -0.440553    27A     -0.417399
      28A     -0.372600

  @DF-RHF Final Energy:  -341.19876916440506

   => Energetics <=

    Nuclear Repulsion Energy =            326.7967143725005599
    One-Electron Energy =               -1111.9159254819558100
    Two-Electron Energy =                 443.9204419450501860
    Total Energy =                       -341.1987691644050642
  Basis Set: (AUG-CC-PVTZ AUX)
    Blend: AUG-CC-PVTZ-RI
    Molecular point group: c1

    Geometry (in Angstrom), charge = 0, multiplicity = 1:

       Center              X                  Y                   Z               Mass
    ------------   -----------------  -----------------  -----------------  -----------------
         O           -2.107216816617     0.304493642002    -0.214153744888    15.994914619570
         N            0.168903183383     0.441373642002     0.091603255112    14.003074004430
         N           -0.914456816617    -1.632260357998     0.130741255112    14.003074004430
         C            1.391755183383    -0.154478357998     0.614510255112    12.000000000000
         C            2.386128183383    -0.533961357998    -0.480110744888    12.000000000000
         C            0.139416183383     1.887919642002    -0.042814744888    12.000000000000
         C           -1.018979816617    -0.243114357998    -0.024230744888    12.000000000000
         H            1.848797183383     0.574770642002     1.294074255112     1.007825032230
         H            1.126743183383    -1.023598357998     1.221841255112     1.007825032230
         H            1.965142183383    -1.288861357998    -1.150645744888     1.007825032230
         H            2.647860183383     0.338925642002    -1.083715744888     1.007825032230
         H            3.221680183383    -0.900851657998    -0.084578244888     1.007825032230
         H            1.004393183383     2.223133642002    -0.622676744888     1.007825032230
         H            0.159369183383     2.379008642002     0.937920255112     1.007825032230
         H           -0.777407816617     2.167309642002    -0.558306744888     1.007825032230
         H           -0.114928816617    -2.073690357998    -0.308302744888     1.007825032230
         H           -1.789401816617    -2.069365357998    -0.138139744888     1.007825032230

  Basis Set: AUG-CC-PVTZ
    Blend: AUG-CC-PVTZ
  Basis Set: (AUG-CC-PVTZ AUX)
    Blend: AUG-CC-PVTZ-JKFIT
	 Reference Energy          =    -341.1987691644050642 [Eh]
	 Singles Energy            =      -0.0000000000000000 [Eh]
	 Same-Spin Energy          =      -0.3489563129221025 [Eh]
	 Opposite-Spin Energy      =      -1.1391666520952028 [Eh]
	 Correlation Energy        =      -1.4881229650173053 [Eh]
	 Total Energy              =    -342.6868921294223469 [Eh]

	 ================> DF-SCS-MP2 Energies <==================
	-----------------------------------------------------------
	 SCS Same-Spin Scale       =       0.3333333333333333 [-]
	 SCS Opposite-Spin Scale   =       1.2000000000000000 [-]
	 SCS Same-Spin Energy      =      -0.1163187709740342 [Eh]
	 SCS Opposite-Spin Energy  =      -1.3669999825142434 [Eh]
	 SCS Correlation Energy    =      -1.4833187534882775 [Eh]
	 SCS Total Energy          =    -342.6820879178933410 [Eh]
	-----------------------------------------------------------

  Dipole Moment: [D]
     X:     3.8766      Y:    -1.1869      Z:    -0.1686     Total:     4.0577

*** Psi4 exiting successfully. Buy a developer a beer!
