                               Psi4 1.4a3.dev225

  ==> Input File <==

--------------------------------------------------------------------------
#psi4
#
memory 32 gb

molecule  {
0 1
  O       -2.1811166     0.3213473    -0.2104859
  N        0.0851610     0.4390910     0.0952720
  N       -0.9981990    -1.6345430     0.1344100
  C        1.3080130    -0.1567610     0.6181790
  C        2.3023860    -0.5362440    -0.4764420
  C        0.0556740     1.8856370    -0.0391460
  C       -1.1027220    -0.2453970    -0.0205620
  H        1.7650550     0.5724880     1.2977430
  H        1.0430010    -1.0258810     1.2255100
  H        1.8814000    -1.2911440    -1.1469770
  H        2.5641180     0.3366430    -1.0800470
  H        3.2219480    -0.9400230    -0.0411410
  H        0.9206510     2.2208510    -0.6190080
  H        0.0756270     2.3767260     0.9415890
  H       -0.8611500     2.1650270    -0.5546380
  H       -0.1986710    -2.0759730    -0.3046340
  H       -1.8731440    -2.0716480    -0.1344710
units angstrom
no_reorient  #important for SAPT in psi4, default
symmetry c1  #important for SAPT in psi4, default
}

set PROPERTIES_ORIGIN ["COM"]
properties('MP2/aug-cc-pvtz', properties = ['dipole'])
--------------------------------------------------------------------------

    Molecular point group: c1
  Charge       = 0
  Multiplicity = 1
  Basis Set: AUG-CC-PVTZ
    Blend: AUG-CC-PVTZ
  Basis Set: (AUG-CC-PVTZ AUX)
    Blend: AUG-CC-PVTZ-JKFIT

    Orbital Energies [Eh]
    ---------------------

    Doubly Occupied:

       1A    -20.505585     2A    -15.580851     3A    -15.578906
       4A    -11.372496     5A    -11.273760     6A    -11.251933
       7A    -11.232742     8A     -1.379613     9A     -1.248523
      10A     -1.191278    11A     -1.033240    12A     -0.943671
      13A     -0.875758    14A     -0.762554    15A     -0.728095
      16A     -0.684709    17A     -0.639454    18A     -0.632866
      19A     -0.604160    20A     -0.588532    21A     -0.559976
      22A     -0.556959    23A     -0.536536    24A     -0.524763
      25A     -0.505140    26A     -0.441092    27A     -0.418798
      28A     -0.372416

  @DF-RHF Final Energy:  -341.20464725504092

   => Energetics <=

    Nuclear Repulsion Energy =            326.4212809158371442
    One-Electron Energy =               -1111.2030440400133102
    Two-Electron Energy =                 443.5771158691352980
    Total Energy =                       -341.2046472550409248
  Basis Set: (AUG-CC-PVTZ AUX)
    Blend: AUG-CC-PVTZ-RI
    Molecular point group: c1

    Geometry (in Angstrom), charge = 0, multiplicity = 1:

       Center              X                  Y                   Z               Mass
    ------------   -----------------  -----------------  -----------------  -----------------
         O           -2.099746060015     0.320995655764    -0.214547136698    15.994914619570
         N            0.166531539985     0.438739355764     0.091210763302    14.003074004430
         N           -0.916828460015    -1.634894644236     0.130348763302    14.003074004430
         C            1.389383539985    -0.157112644236     0.614117763302    12.000000000000
         C            2.383756539985    -0.536595644236    -0.480503236698    12.000000000000
         C            0.137044539985     1.885285355764    -0.043207236698    12.000000000000
         C           -1.021351460015    -0.245748644236    -0.024623236698    12.000000000000
         H            1.846425539985     0.572136355764     1.293681763302     1.007825032230
         H            1.124371539985    -1.026232644236     1.221448763302     1.007825032230
         H            1.962770539985    -1.291495644236    -1.151038236698     1.007825032230
         H            2.645488539985     0.336291355764    -1.084108236698     1.007825032230
         H            3.303318539985    -0.940374644236    -0.045202236698     1.007825032230
         H            1.002021539985     2.220499355764    -0.623069236698     1.007825032230
         H            0.156997539985     2.376374355764     0.937527763302     1.007825032230
         H           -0.779779460015     2.164675355764    -0.558699236698     1.007825032230
         H           -0.117300460015    -2.076324644236    -0.308695236698     1.007825032230
         H           -1.791773460015    -2.071999644236    -0.138532236698     1.007825032230

  Basis Set: AUG-CC-PVTZ
    Blend: AUG-CC-PVTZ
  Basis Set: (AUG-CC-PVTZ AUX)
    Blend: AUG-CC-PVTZ-JKFIT
	 Reference Energy          =    -341.2046472550409248 [Eh]
	 Singles Energy            =      -0.0000000000000000 [Eh]
	 Same-Spin Energy          =      -0.3489536636771730 [Eh]
	 Opposite-Spin Energy      =      -1.1396716140941445 [Eh]
	 Correlation Energy        =      -1.4886252777713174 [Eh]
	 Total Energy              =    -342.6932725328122160 [Eh]

	 ================> DF-SCS-MP2 Energies <==================
	-----------------------------------------------------------
	 SCS Same-Spin Scale       =       0.3333333333333333 [-]
	 SCS Opposite-Spin Scale   =       1.2000000000000000 [-]
	 SCS Same-Spin Energy      =      -0.1163178878923910 [Eh]
	 SCS Opposite-Spin Energy  =      -1.3676059369129734 [Eh]
	 SCS Correlation Energy    =      -1.4839238248053643 [Eh]
	 SCS Total Energy          =    -342.6885710798462696 [Eh]
	-----------------------------------------------------------

  Dipole Moment: [D]
     X:     3.7752      Y:    -1.2232      Z:    -0.1800     Total:     3.9725

*** Psi4 exiting successfully. Buy a developer a beer!
