                               Psi4 1.4a3.dev225

  ==> Input File <==

--------------------------------------------------------------------------
#psi4
#
memory 32 gb

molecule  {
0 1
  O       -2.1909590     0.3022110    -0.2104850
  N        0.0851610     0.4390910     0.0952720
  N       -0.9981990    -1.6345430     0.1344100
  C        1.4194495    -0.0561039     0.6728485
  C        2.3023860    -0.5362440    -0.4764420
  C        0.0556740     1.8856370    -0.0391460
  C       -1.1027220    -0.2453970    -0.0205620
  H        1.7650550     0.5724880     1.2977430
  H        1.0430010    -1.0258810     1.2255100
  H        1.8814000    -1.2911440    -1.1469770
  H        2.5641180     0.3366430    -1.0800470
  H        3.2219480    -0.9400230    -0.0411410
  H        0.9206510     2.2208510    -0.6190080
  H        0.0756270     2.3767260     0.9415890
  H       -0.8611500     2.1650270    -0.5546380
  H       -0.1986710    -2.0759730    -0.3046340
  H       -1.8731440    -2.0716480    -0.1344710
units angstrom
no_reorient  #important for SAPT in psi4, default
symmetry c1  #important for SAPT in psi4, default
}

set PROPERTIES_ORIGIN ["COM"]
properties('MP2/aug-cc-pvtz', properties = ['dipole'])
--------------------------------------------------------------------------

    Molecular point group: c1
  Charge       = 0
  Multiplicity = 1
  Basis Set: AUG-CC-PVTZ
    Blend: AUG-CC-PVTZ
  Basis Set: (AUG-CC-PVTZ AUX)
    Blend: AUG-CC-PVTZ-JKFIT

    Orbital Energies [Eh]
    ---------------------

    Doubly Occupied:

       1A    -20.504262     2A    -15.578573     3A    -15.575811
       4A    -11.371860     5A    -11.278506     6A    -11.248409
       7A    -11.237650     8A     -1.376385     9A     -1.235924
      10A     -1.186442    11A     -1.039009    12A     -0.937533
      13A     -0.885464    14A     -0.761677    15A     -0.717349
      16A     -0.688991    17A     -0.642115    18A     -0.633770
      19A     -0.605387    20A     -0.584708    21A     -0.564630
      22A     -0.555778    23A     -0.553434    24A     -0.515805
      25A     -0.485764    26A     -0.438924    27A     -0.417628
      28A     -0.371164

  @DF-RHF Final Energy:  -341.17144254066687

   => Energetics <=

    Nuclear Repulsion Energy =            324.7273612692458187
    One-Electron Energy =               -1107.8117015541154160
    Two-Electron Energy =                 441.9128977442026667
    Total Energy =                       -341.1714425406668738
  Basis Set: (AUG-CC-PVTZ AUX)
    Blend: AUG-CC-PVTZ-RI
    Molecular point group: c1

    Geometry (in Angstrom), charge = 0, multiplicity = 1:

       Center              X                  Y                   Z               Mass
    ------------   -----------------  -----------------  -----------------  -----------------
         O           -2.121146234242     0.293025031851    -0.220973086336    15.994914619570
         N            0.154973765758     0.429905031851     0.084783913664    14.003074004430
         N           -0.928386234242    -1.643728968149     0.123921913664    14.003074004430
         C            1.489262265758    -0.065289868149     0.662360413664    12.000000000000
         C            2.372198765758    -0.545429968149    -0.486930086336    12.000000000000
         C            0.125486765758     1.876451031851    -0.049634086336    12.000000000000
         C           -1.032909234242    -0.254582968149    -0.031050086336    12.000000000000
         H            1.834867765758     0.563302031851     1.287254913664     1.007825032230
         H            1.112813765758    -1.035066968149     1.215021913664     1.007825032230
         H            1.951212765758    -1.300329968149    -1.157465086336     1.007825032230
         H            2.633930765758     0.327457031851    -1.090535086336     1.007825032230
         H            3.291760765758    -0.949208968149    -0.051629086336     1.007825032230
         H            0.990463765758     2.211665031851    -0.629496086336     1.007825032230
         H            0.145439765758     2.367540031851     0.931100913664     1.007825032230
         H           -0.791337234242     2.155841031851    -0.565126086336     1.007825032230
         H           -0.128858234242    -2.085158968149    -0.315122086336     1.007825032230
         H           -1.803331234242    -2.080833968149    -0.144959086336     1.007825032230

  Basis Set: AUG-CC-PVTZ
    Blend: AUG-CC-PVTZ
  Basis Set: (AUG-CC-PVTZ AUX)
    Blend: AUG-CC-PVTZ-JKFIT
	 Reference Energy          =    -341.1714425406668738 [Eh]
	 Singles Energy            =      -0.0000000000000000 [Eh]
	 Same-Spin Energy          =      -0.3491177799113514 [Eh]
	 Opposite-Spin Energy      =      -1.1413762599088122 [Eh]
	 Correlation Energy        =      -1.4904940398201636 [Eh]
	 Total Energy              =    -342.6619365804870654 [Eh]

	 ================> DF-SCS-MP2 Energies <==================
	-----------------------------------------------------------
	 SCS Same-Spin Scale       =       0.3333333333333333 [-]
	 SCS Opposite-Spin Scale   =       1.2000000000000000 [-]
	 SCS Same-Spin Energy      =      -0.1163725933037838 [Eh]
	 SCS Opposite-Spin Energy  =      -1.3696515118905745 [Eh]
	 SCS Correlation Energy    =      -1.4860241051943583 [Eh]
	 SCS Total Energy          =    -342.6574666458612342 [Eh]
	-----------------------------------------------------------

  Dipole Moment: [D]
     X:     4.0244      Y:    -1.1815      Z:    -0.1296     Total:     4.1962

*** Psi4 exiting successfully. Buy a developer a beer!
