                               Psi4 1.4a3.dev225

  ==> Input File <==

--------------------------------------------------------------------------
#psi4
#
memory 32 gb

molecule  {
0 1
  O       -2.1909590     0.3022110    -0.2104850
  N        0.0851610     0.4390910     0.0952720
  N       -0.9981990    -1.6345430     0.1344100
  C        1.3093772    -0.2585998     0.6495364
  C        2.3023860    -0.5362440    -0.4764420
  C        0.0556740     1.8856370    -0.0391460
  C       -1.1027220    -0.2453970    -0.0205620
  H        1.7650550     0.5724880     1.2977430
  H        1.0430010    -1.0258810     1.2255100
  H        1.8814000    -1.2911440    -1.1469770
  H        2.5641180     0.3366430    -1.0800470
  H        3.2219480    -0.9400230    -0.0411410
  H        0.9206510     2.2208510    -0.6190080
  H        0.0756270     2.3767260     0.9415890
  H       -0.8611500     2.1650270    -0.5546380
  H       -0.1986710    -2.0759730    -0.3046340
  H       -1.8731440    -2.0716480    -0.1344710
units angstrom
no_reorient  #important for SAPT in psi4, default
symmetry c1  #important for SAPT in psi4, default
}

set PROPERTIES_ORIGIN ["COM"]
properties('MP2/aug-cc-pvtz', properties = ['dipole'])
--------------------------------------------------------------------------

    Molecular point group: c1
  Charge       = 0
  Multiplicity = 1
  Basis Set: AUG-CC-PVTZ
    Blend: AUG-CC-PVTZ
  Basis Set: (AUG-CC-PVTZ AUX)
    Blend: AUG-CC-PVTZ-JKFIT

    Orbital Energies [Eh]
    ---------------------

    Doubly Occupied:

       1A    -20.502679     2A    -15.580232     3A    -15.576620
       4A    -11.368394     5A    -11.276565     6A    -11.252808
       7A    -11.235875     8A     -1.376267     9A     -1.240082
      10A     -1.186685    11A     -1.037678    12A     -0.942356
      13A     -0.875107    14A     -0.762892    15A     -0.730676
      16A     -0.680398    17A     -0.635062    18A     -0.629684
      19A     -0.602463    20A     -0.591002    21A     -0.564897
      22A     -0.556366    23A     -0.546561    24A     -0.515121
      25A     -0.508304    26A     -0.438190    27A     -0.416106
      28A     -0.371265

  @DF-RHF Final Energy:  -341.19095737389165

   => Energetics <=

    Nuclear Repulsion Energy =            325.6293647323003597
    One-Electron Energy =               -1109.6399750194909757
    Two-Electron Energy =                 442.8196529132989667
    Total Energy =                       -341.1909573738916492
  Basis Set: (AUG-CC-PVTZ AUX)
    Blend: AUG-CC-PVTZ-RI
    Molecular point group: c1

    Geometry (in Angstrom), charge = 0, multiplicity = 1:

       Center              X                  Y                   Z               Mass
    ------------   -----------------  -----------------  -----------------  -----------------
         O           -2.108206613453     0.316829569027    -0.218232617264    15.994914619570
         N            0.167913386547     0.453709569027     0.087524382736    14.003074004430
         N           -0.915446613453    -1.619924430973     0.126662382736    14.003074004430
         C            1.392129586547    -0.243981230973     0.641788782736    12.000000000000
         C            2.385138386547    -0.521625430973    -0.484189617264    12.000000000000
         C            0.138426386547     1.900255569027    -0.046893617264    12.000000000000
         C           -1.019969613453    -0.230778430973    -0.028309617264    12.000000000000
         H            1.847807386547     0.587106569027     1.289995382736     1.007825032230
         H            1.125753386547    -1.011262430973     1.217762382736     1.007825032230
         H            1.964152386547    -1.276525430973    -1.154724617264     1.007825032230
         H            2.646870386547     0.351261569027    -1.087794617264     1.007825032230
         H            3.304700386547    -0.925404430973    -0.048888617264     1.007825032230
         H            1.003403386547     2.235469569027    -0.626755617264     1.007825032230
         H            0.158379386547     2.391344569027     0.933841382736     1.007825032230
         H           -0.778397613453     2.179645569027    -0.562385617264     1.007825032230
         H           -0.115918613453    -2.061354430973    -0.312381617264     1.007825032230
         H           -1.790391613453    -2.057029430973    -0.142218617264     1.007825032230

  Basis Set: AUG-CC-PVTZ
    Blend: AUG-CC-PVTZ
  Basis Set: (AUG-CC-PVTZ AUX)
    Blend: AUG-CC-PVTZ-JKFIT
	 Reference Energy          =    -341.1909573738916492 [Eh]
	 Singles Energy            =      -0.0000000000000000 [Eh]
	 Same-Spin Energy          =      -0.3487654312301335 [Eh]
	 Opposite-Spin Energy      =      -1.1401033210788190 [Eh]
	 Correlation Energy        =      -1.4888687523089525 [Eh]
	 Total Energy              =    -342.6798261262006235 [Eh]

	 ================> DF-SCS-MP2 Energies <==================
	-----------------------------------------------------------
	 SCS Same-Spin Scale       =       0.3333333333333333 [-]
	 SCS Opposite-Spin Scale   =       1.2000000000000000 [-]
	 SCS Same-Spin Energy      =      -0.1162551437433778 [Eh]
	 SCS Opposite-Spin Energy  =      -1.3681239852945828 [Eh]
	 SCS Correlation Energy    =      -1.4843791290379607 [Eh]
	 SCS Total Energy          =    -342.6753365029296106 [Eh]
	-----------------------------------------------------------

  Dipole Moment: [D]
     X:     3.9431      Y:    -1.2192      Z:    -0.1645     Total:     4.1306

*** Psi4 exiting successfully. Buy a developer a beer!
