                               Psi4 1.4a3.dev225

  ==> Input File <==

--------------------------------------------------------------------------
#psi4
#
memory 32 gb

molecule  {
0 1
  O       -2.1909590     0.3022110    -0.2104850
  N        0.0851610     0.4390910     0.0952720
  N       -0.9981990    -1.6345430     0.1344100
  C        1.4758328    -0.2385336     0.6899409
  C        2.3023860    -0.5362440    -0.4764420
  C        0.0556740     1.8856370    -0.0391460
  C       -1.1027220    -0.2453970    -0.0205620
  H        1.7650550     0.5724880     1.2977430
  H        1.0430010    -1.0258810     1.2255100
  H        1.8814000    -1.2911440    -1.1469770
  H        2.5641180     0.3366430    -1.0800470
  H        3.2219480    -0.9400230    -0.0411410
  H        0.9206510     2.2208510    -0.6190080
  H        0.0756270     2.3767260     0.9415890
  H       -0.8611500     2.1650270    -0.5546380
  H       -0.1986710    -2.0759730    -0.3046340
  H       -1.8731440    -2.0716480    -0.1344710
units angstrom
no_reorient  #important for SAPT in psi4, default
symmetry c1  #important for SAPT in psi4, default
}

set PROPERTIES_ORIGIN ["COM"]
properties('MP2/aug-cc-pvtz', properties = ['dipole'])
--------------------------------------------------------------------------

    Molecular point group: c1
  Charge       = 0
  Multiplicity = 1
  Basis Set: AUG-CC-PVTZ
    Blend: AUG-CC-PVTZ
  Basis Set: (AUG-CC-PVTZ AUX)
    Blend: AUG-CC-PVTZ-JKFIT

    Orbital Energies [Eh]
    ---------------------

    Doubly Occupied:

       1A    -20.497160     2A    -15.572562     3A    -15.569398
       4A    -11.362692     5A    -11.285272     6A    -11.245818
       7A    -11.239929     8A     -1.368998     9A     -1.220368
      10A     -1.177418    11A     -1.057736    12A     -0.931412
      13A     -0.875560    14A     -0.754405    15A     -0.717494
      16A     -0.669834    17A     -0.649978    18A     -0.627810
      19A     -0.601236    20A     -0.589237    21A     -0.573937
      22A     -0.553565    23A     -0.550893    24A     -0.528209
      25A     -0.480326    26A     -0.431430    27A     -0.412069
      28A     -0.366185

  @DF-RHF Final Energy:  -341.17560249648932

   => Energetics <=

    Nuclear Repulsion Energy =            323.5414622790020189
    One-Electron Energy =               -1105.6122679982133832
    Two-Electron Energy =                 440.8952032227221025
    Total Energy =                       -341.1756024964893186
  Basis Set: (AUG-CC-PVTZ AUX)
    Blend: AUG-CC-PVTZ-RI
    Molecular point group: c1

    Geometry (in Angstrom), charge = 0, multiplicity = 1:

       Center              X                  Y                   Z               Mass
    ------------   -----------------  -----------------  -----------------  -----------------
         O           -2.127774409731     0.314470673840    -0.222982394530    15.994914619570
         N            0.148345590269     0.451350673840     0.082774605470    14.003074004430
         N           -0.935014409731    -1.622283326160     0.121912605470    14.003074004430
         C            1.539017390269    -0.226273926160     0.677443505470    12.000000000000
         C            2.365570590269    -0.523984326160    -0.488939394530    12.000000000000
         C            0.118858590269     1.897896673840    -0.051643394530    12.000000000000
         C           -1.039537409731    -0.233137326160    -0.033059394530    12.000000000000
         H            1.828239590269     0.584747673840     1.285245605470     1.007825032230
         H            1.106185590269    -1.013621326160     1.213012605470     1.007825032230
         H            1.944584590269    -1.278884326160    -1.159474394530     1.007825032230
         H            2.627302590269     0.348902673840    -1.092544394530     1.007825032230
         H            3.285132590269    -0.927763326160    -0.053638394530     1.007825032230
         H            0.983835590269     2.233110673840    -0.631505394530     1.007825032230
         H            0.138811590269     2.388985673840     0.929091605470     1.007825032230
         H           -0.797965409731     2.177286673840    -0.567135394530     1.007825032230
         H           -0.135486409731    -2.063713326160    -0.317131394530     1.007825032230
         H           -1.809959409731    -2.059388326160    -0.146968394530     1.007825032230

  Basis Set: AUG-CC-PVTZ
    Blend: AUG-CC-PVTZ
  Basis Set: (AUG-CC-PVTZ AUX)
    Blend: AUG-CC-PVTZ-JKFIT
	 Reference Energy          =    -341.1756024964893186 [Eh]
	 Singles Energy            =      -0.0000000000000000 [Eh]
	 Same-Spin Energy          =      -0.3494475571883303 [Eh]
	 Opposite-Spin Energy      =      -1.1417980599105049 [Eh]
	 Correlation Energy        =      -1.4912456170988351 [Eh]
	 Total Energy              =    -342.6668481135881734 [Eh]

	 ================> DF-SCS-MP2 Energies <==================
	-----------------------------------------------------------
	 SCS Same-Spin Scale       =       0.3333333333333333 [-]
	 SCS Opposite-Spin Scale   =       1.2000000000000000 [-]
	 SCS Same-Spin Energy      =      -0.1164825190627767 [Eh]
	 SCS Opposite-Spin Energy  =      -1.3701576718926058 [Eh]
	 SCS Correlation Energy    =      -1.4866401909553826 [Eh]
	 SCS Total Energy          =    -342.6622426874446887 [Eh]
	-----------------------------------------------------------

  Dipole Moment: [D]
     X:     4.4030      Y:    -1.3230      Z:    -0.0995     Total:     4.5985

*** Psi4 exiting successfully. Buy a developer a beer!
