                               Psi4 1.4a3.dev225

  ==> Input File <==

--------------------------------------------------------------------------
#psi4
#
memory 32 gb

molecule  {
0 1
  O       -2.1909590     0.3022110    -0.2104850
  N        0.0851610     0.4390910     0.0952720
  N       -0.9981990    -1.6345430     0.1344100
  C        1.3080130    -0.1567610     0.6181790
  C        2.3023860    -0.5362440    -0.4764420
  C        0.0556740     1.8856370    -0.0391460
  C       -1.1027220    -0.2453970    -0.0205620
  H        1.7650550     0.5724880     1.2977430
  H        1.0430010    -1.0258810     1.2255100
  H        1.8814000    -1.2911440    -1.1469770
  H        2.6369434     0.3249704    -1.0605272
  H        3.2219480    -0.9400230    -0.0411410
  H        0.9206510     2.2208510    -0.6190080
  H        0.0756270     2.3767260     0.9415890
  H       -0.8611500     2.1650270    -0.5546380
  H       -0.1986710    -2.0759730    -0.3046340
  H       -1.8731440    -2.0716480    -0.1344710
units angstrom
no_reorient  #important for SAPT in psi4, default
symmetry c1  #important for SAPT in psi4, default
}

set PROPERTIES_ORIGIN ["COM"]
properties('MP2/aug-cc-pvtz', properties = ['dipole'])
--------------------------------------------------------------------------

    Molecular point group: c1
  Charge       = 0
  Multiplicity = 1
  Basis Set: AUG-CC-PVTZ
    Blend: AUG-CC-PVTZ
  Basis Set: (AUG-CC-PVTZ AUX)
    Blend: AUG-CC-PVTZ-JKFIT

    Orbital Energies [Eh]
    ---------------------

    Doubly Occupied:

       1A    -20.505545     2A    -15.581766     3A    -15.577587
       4A    -11.372352     5A    -11.274826     6A    -11.252576
       7A    -11.232948     8A     -1.379396     9A     -1.249303
      10A     -1.190060    11A     -1.033553    12A     -0.944114
      13A     -0.876994    14A     -0.762239    15A     -0.727656
      16A     -0.684217    17A     -0.640138    18A     -0.633984
      19A     -0.604591    20A     -0.586584    21A     -0.560211
      22A     -0.555950    23A     -0.537610    24A     -0.525952
      25A     -0.505149    26A     -0.440914    27A     -0.417875
      28A     -0.373268

  @DF-RHF Final Energy:  -341.20433504695251

   => Energetics <=

    Nuclear Repulsion Energy =            326.2112396861627985
    One-Electron Energy =               -1110.7764336186592118
    Two-Electron Energy =                 443.3608588855439052
    Total Energy =                       -341.2043350469525080
  Basis Set: (AUG-CC-PVTZ AUX)
    Blend: AUG-CC-PVTZ-RI
    Molecular point group: c1

    Geometry (in Angstrom), charge = 0, multiplicity = 1:

       Center              X                  Y                   Z               Mass
    ------------   -----------------  -----------------  -----------------  -----------------
         O           -2.108765246338     0.304973085803    -0.214739095936    15.994914619570
         N            0.167354753662     0.441853085803     0.091017904064    14.003074004430
         N           -0.916005246338    -1.631780914197     0.130155904064    14.003074004430
         C            1.390206753662    -0.153998914197     0.613924904064    12.000000000000
         C            2.384579753662    -0.533481914197    -0.480696095936    12.000000000000
         C            0.137867753662     1.888399085803    -0.043400095936    12.000000000000
         C           -1.020528246338    -0.242634914197    -0.024816095936    12.000000000000
         H            1.847248753662     0.575250085803     1.293488904064     1.007825032230
         H            1.125194753662    -1.023118914197     1.221255904064     1.007825032230
         H            1.963593753662    -1.288381914197    -1.151231095936     1.007825032230
         H            2.719137153662     0.327732485803    -1.064781295936     1.007825032230
         H            3.304141753662    -0.937260914197    -0.045395095936     1.007825032230
         H            1.002844753662     2.223613085803    -0.623262095936     1.007825032230
         H            0.157820753662     2.379488085803     0.937334904064     1.007825032230
         H           -0.778956246338     2.167789085803    -0.558892095936     1.007825032230
         H           -0.116477246338    -2.073210914197    -0.308888095936     1.007825032230
         H           -1.790950246338    -2.068885914197    -0.138725095936     1.007825032230

  Basis Set: AUG-CC-PVTZ
    Blend: AUG-CC-PVTZ
  Basis Set: (AUG-CC-PVTZ AUX)
    Blend: AUG-CC-PVTZ-JKFIT
	 Reference Energy          =    -341.2043350469525080 [Eh]
	 Singles Energy            =      -0.0000000000000000 [Eh]
	 Same-Spin Energy          =      -0.3488930049011570 [Eh]
	 Opposite-Spin Energy      =      -1.1395869839198358 [Eh]
	 Correlation Energy        =      -1.4884799888209930 [Eh]
	 Total Energy              =    -342.6928150357734921 [Eh]

	 ================> DF-SCS-MP2 Energies <==================
	-----------------------------------------------------------
	 SCS Same-Spin Scale       =       0.3333333333333333 [-]
	 SCS Opposite-Spin Scale   =       1.2000000000000000 [-]
	 SCS Same-Spin Energy      =      -0.1162976683003857 [Eh]
	 SCS Opposite-Spin Energy  =      -1.3675043807038030 [Eh]
	 SCS Correlation Energy    =      -1.4838020490041886 [Eh]
	 SCS Total Energy          =    -342.6881370959566766 [Eh]
	-----------------------------------------------------------

  Dipole Moment: [D]
     X:     3.8396      Y:    -1.1611      Z:    -0.1742     Total:     4.0151

*** Psi4 exiting successfully. Buy a developer a beer!
