                               Psi4 1.4a3.dev225

  ==> Input File <==

--------------------------------------------------------------------------
#psi4
#
memory 32 gb

molecule  {
0 1
  O       -2.2096464     0.2634439    -0.2103097
  N        0.0851610     0.4390910     0.0952720
  N       -0.9981990    -1.6345430     0.1344100
  C        1.3080130    -0.1567610     0.6181790
  C        2.3023860    -0.5362440    -0.4764420
  C        0.0556740     1.8856370    -0.0391460
  C       -1.1027220    -0.2453970    -0.0205620
  H        1.7650550     0.5724880     1.2977430
  H        1.0430010    -1.0258810     1.2255100
  H        1.8814000    -1.2911440    -1.1469770
  H        2.5641180     0.3366430    -1.0800470
  H        3.2219480    -0.9400230    -0.0411410
  H        0.9206510     2.2208510    -0.6190080
  H        0.0756270     2.3767260     0.9415890
  H       -0.8611500     2.1650270    -0.5546380
  H       -0.1986710    -2.0759730    -0.3046340
  H       -1.8731440    -2.0716480    -0.1344710
units angstrom
no_reorient  #important for SAPT in psi4, default
symmetry c1  #important for SAPT in psi4, default
}

set PROPERTIES_ORIGIN ["COM"]
properties('MP2/aug-cc-pvtz', properties = ['dipole'])
--------------------------------------------------------------------------

    Molecular point group: c1
  Charge       = 0
  Multiplicity = 1
  Basis Set: AUG-CC-PVTZ
    Blend: AUG-CC-PVTZ
  Basis Set: (AUG-CC-PVTZ AUX)
    Blend: AUG-CC-PVTZ-JKFIT

    Orbital Energies [Eh]
    ---------------------

    Doubly Occupied:

       1A    -20.505594     2A    -15.584004     3A    -15.574707
       4A    -11.372249     5A    -11.275314     6A    -11.254528
       7A    -11.233557     8A     -1.379260     9A     -1.251197
      10A     -1.187440    11A     -1.034777    12A     -0.945456
      13A     -0.877224    14A     -0.761876    15A     -0.727056
      16A     -0.684076    17A     -0.640394    18A     -0.632782
      19A     -0.603833    20A     -0.589287    21A     -0.561345
      22A     -0.557765    23A     -0.537635    24A     -0.526927
      25A     -0.506330    26A     -0.440621    27A     -0.415750
      28A     -0.374955

  @DF-RHF Final Energy:  -341.20456196775513

   => Energetics <=

    Nuclear Repulsion Energy =            326.1307972153749688
    One-Electron Energy =               -1110.5988429097567405
    Two-Electron Energy =                 443.2634837266266459
    Total Energy =                       -341.2045619677551258
  Basis Set: (AUG-CC-PVTZ AUX)
    Blend: AUG-CC-PVTZ-RI
    Molecular point group: c1

    Geometry (in Angstrom), charge = 0, multiplicity = 1:

       Center              X                  Y                   Z               Mass
    ------------   -----------------  -----------------  -----------------  -----------------
         O           -2.123805495727     0.272165200246    -0.214398545661    15.994914619570
         N            0.171001904273     0.447812300246     0.091183154339    14.003074004430
         N           -0.912358095727    -1.625821699754     0.130321154339    14.003074004430
         C            1.393853904273    -0.148039699754     0.614090154339    12.000000000000
         C            2.388226904273    -0.527522699754    -0.480530845661    12.000000000000
         C            0.141514904273     1.894358300246    -0.043234845661    12.000000000000
         C           -1.016881095727    -0.236675699754    -0.024650845661    12.000000000000
         H            1.850895904273     0.581209300246     1.293654154339     1.007825032230
         H            1.128841904273    -1.017159699754     1.221421154339     1.007825032230
         H            1.967240904273    -1.282422699754    -1.151065845661     1.007825032230
         H            2.649958904273     0.345364300246    -1.084135845661     1.007825032230
         H            3.307788904273    -0.931301699754    -0.045229845661     1.007825032230
         H            1.006491904273     2.229572300246    -0.623096845661     1.007825032230
         H            0.161467904273     2.385447300246     0.937500154339     1.007825032230
         H           -0.775309095727     2.173748300246    -0.558726845661     1.007825032230
         H           -0.112830095727    -2.067251699754    -0.308722845661     1.007825032230
         H           -1.787303095727    -2.062926699754    -0.138559845661     1.007825032230

  Basis Set: AUG-CC-PVTZ
    Blend: AUG-CC-PVTZ
  Basis Set: (AUG-CC-PVTZ AUX)
    Blend: AUG-CC-PVTZ-JKFIT
	 Reference Energy          =    -341.2045619677551258 [Eh]
	 Singles Energy            =      -0.0000000000000000 [Eh]
	 Same-Spin Energy          =      -0.3488231136051251 [Eh]
	 Opposite-Spin Energy      =      -1.1395734497986374 [Eh]
	 Correlation Energy        =      -1.4883965634037626 [Eh]
	 Total Energy              =    -342.6929585311588653 [Eh]

	 ================> DF-SCS-MP2 Energies <==================
	-----------------------------------------------------------
	 SCS Same-Spin Scale       =       0.3333333333333333 [-]
	 SCS Opposite-Spin Scale   =       1.2000000000000000 [-]
	 SCS Same-Spin Energy      =      -0.1162743712017084 [Eh]
	 SCS Opposite-Spin Energy  =      -1.3674881397583649 [Eh]
	 SCS Correlation Energy    =      -1.4837625109600732 [Eh]
	 SCS Total Energy          =    -342.6883244787151739 [Eh]
	-----------------------------------------------------------

  Dipole Moment: [D]
     X:     3.8906      Y:    -1.0453      Z:    -0.1764     Total:     4.0324

*** Psi4 exiting successfully. Buy a developer a beer!
