                               Psi4 1.4a3.dev225

  ==> Input File <==

--------------------------------------------------------------------------
#psi4
#
memory 32 gb

molecule  {
0 1
  O       -2.1909590     0.3022110    -0.2104850
  N        0.0851610     0.4390910     0.0952720
  N       -0.9981990    -1.6345430     0.1344100
  C        1.3080130    -0.1567610     0.6181790
  C        2.3023860    -0.5362440    -0.4764420
  C        0.0556740     1.8856370    -0.0391460
  C       -1.1027220    -0.2453970    -0.0205620
  H        1.7650550     0.5724880     1.2977430
  H        1.0430010    -1.0258810     1.2255100
  H        1.8814000    -1.2911440    -1.1469770
  H        2.5162281     0.1769282    -0.9696036
  H        3.2219480    -0.9400230    -0.0411410
  H        0.9206510     2.2208510    -0.6190080
  H        0.0756270     2.3767260     0.9415890
  H       -0.8611500     2.1650270    -0.5546380
  H       -0.1986710    -2.0759730    -0.3046340
  H       -1.8731440    -2.0716480    -0.1344710
units angstrom
no_reorient  #important for SAPT in psi4, default
symmetry c1  #important for SAPT in psi4, default
}

set PROPERTIES_ORIGIN ["COM"]
properties('MP2/aug-cc-pvtz', properties = ['dipole'])
--------------------------------------------------------------------------

    Molecular point group: c1
  Charge       = 0
  Multiplicity = 1
  Basis Set: AUG-CC-PVTZ
    Blend: AUG-CC-PVTZ
  Basis Set: (AUG-CC-PVTZ AUX)
    Blend: AUG-CC-PVTZ-JKFIT

    Orbital Energies [Eh]
    ---------------------

    Doubly Occupied:

       1A    -20.505389     2A    -15.581679     3A    -15.577069
       4A    -11.372134     5A    -11.272546     6A    -11.253135
       7A    -11.208165     8A     -1.379227     9A     -1.249331
      10A     -1.189737    11A     -1.046664    12A     -0.946680
      13A     -0.890850    14A     -0.763066    15A     -0.729929
      16A     -0.684374    17A     -0.643179    18A     -0.637441
      19A     -0.609057    20A     -0.598652    21A     -0.560512
      22A     -0.558901    23A     -0.541996    24A     -0.524673
      25A     -0.512743    26A     -0.440711    27A     -0.417534
      28A     -0.372869

  @DF-RHF Final Energy:  -341.17048097402250

   => Energetics <=

    Nuclear Repulsion Energy =            327.2534439192069726
    One-Electron Energy =               -1112.7113623992456723
    Two-Electron Energy =                 444.2874375060161469
    Total Energy =                       -341.1704809740224960
  Basis Set: (AUG-CC-PVTZ AUX)
    Blend: AUG-CC-PVTZ-RI
    Molecular point group: c1

    Geometry (in Angstrom), charge = 0, multiplicity = 1:

       Center              X                  Y                   Z               Mass
    ------------   -----------------  -----------------  -----------------  -----------------
         O           -2.107573428940     0.306434700607    -0.215636781054    15.994914619570
         N            0.168546571060     0.443314700607     0.090120218946    14.003074004430
         N           -0.914813428940    -1.630319299393     0.129258218946    14.003074004430
         C            1.391398571060    -0.152537299393     0.613027218946    12.000000000000
         C            2.385771571060    -0.532020299393    -0.481593781054    12.000000000000
         C            0.139059571060     1.889860700607    -0.044297781054    12.000000000000
         C           -1.019336428940    -0.241173299393    -0.025713781054    12.000000000000
         H            1.848440571060     0.576711700607     1.292591218946     1.007825032230
         H            1.126386571060    -1.021657299393     1.220358218946     1.007825032230
         H            1.964785571060    -1.286920299393    -1.152128781054     1.007825032230
         H            2.599613671060     0.181151900607    -0.974755381054     1.007825032230
         H            3.305333571060    -0.935799299393    -0.046292781054     1.007825032230
         H            1.004036571060     2.225074700607    -0.624159781054     1.007825032230
         H            0.159012571060     2.380949700607     0.936437218946     1.007825032230
         H           -0.777764428940     2.169250700607    -0.559789781054     1.007825032230
         H           -0.115285428940    -2.071749299393    -0.309785781054     1.007825032230
         H           -1.789758428940    -2.067424299393    -0.139622781054     1.007825032230

  Basis Set: AUG-CC-PVTZ
    Blend: AUG-CC-PVTZ
  Basis Set: (AUG-CC-PVTZ AUX)
    Blend: AUG-CC-PVTZ-JKFIT
	 Reference Energy          =    -341.1704809740224960 [Eh]
	 Singles Energy            =      -0.0000000000000000 [Eh]
	 Same-Spin Energy          =      -0.3490263218761980 [Eh]
	 Opposite-Spin Energy      =      -1.1390576461350004 [Eh]
	 Correlation Energy        =      -1.4880839680111984 [Eh]
	 Total Energy              =    -342.6585649420337063 [Eh]

	 ================> DF-SCS-MP2 Energies <==================
	-----------------------------------------------------------
	 SCS Same-Spin Scale       =       0.3333333333333333 [-]
	 SCS Opposite-Spin Scale   =       1.2000000000000000 [-]
	 SCS Same-Spin Energy      =      -0.1163421072920660 [Eh]
	 SCS Opposite-Spin Energy  =      -1.3668691753620004 [Eh]
	 SCS Correlation Energy    =      -1.4832112826540664 [Eh]
	 SCS Total Energy          =    -342.6536922566765497 [Eh]
	-----------------------------------------------------------

  Dipole Moment: [D]
     X:     3.8513      Y:    -1.1181      Z:    -0.2281     Total:     4.0168

*** Psi4 exiting successfully. Buy a developer a beer!
