                               Psi4 1.4a3.dev225

  ==> Input File <==

--------------------------------------------------------------------------
#psi4
#
memory 32 gb

molecule  {
0 1
  O       -2.1909590     0.3022110    -0.2104850
  N        0.0851610     0.4390910     0.0952720
  N       -0.9981990    -1.6345430     0.1344100
  C        1.3080130    -0.1567610     0.6181790
  C        2.3023860    -0.5362440    -0.4764420
  C        0.0597326     1.6865359    -0.0206448
  C       -1.1027220    -0.2453970    -0.0205620
  H        1.7650550     0.5724880     1.2977430
  H        1.0430010    -1.0258810     1.2255100
  H        1.8814000    -1.2911440    -1.1469770
  H        2.5641180     0.3366430    -1.0800470
  H        3.2219480    -0.9400230    -0.0411410
  H        0.9206510     2.2208510    -0.6190080
  H        0.0756270     2.3767260     0.9415890
  H       -0.8611500     2.1650270    -0.5546380
  H       -0.1986710    -2.0759730    -0.3046340
  H       -1.8731440    -2.0716480    -0.1344710
units angstrom
no_reorient  #important for SAPT in psi4, default
symmetry c1  #important for SAPT in psi4, default
}

set PROPERTIES_ORIGIN ["COM"]
properties('MP2/aug-cc-pvtz', properties = ['dipole'])
--------------------------------------------------------------------------

    Molecular point group: c1
  Charge       = 0
  Multiplicity = 1
  Basis Set: AUG-CC-PVTZ
    Blend: AUG-CC-PVTZ
  Basis Set: (AUG-CC-PVTZ AUX)
    Blend: AUG-CC-PVTZ-JKFIT

    Orbital Energies [Eh]
    ---------------------

    Doubly Occupied:

       1A    -20.514755     2A    -15.585964     3A    -15.584182
       4A    -11.380825     5A    -11.280280     6A    -11.256557
       7A    -11.237097     8A     -1.396303     9A     -1.295759
      10A     -1.204734    11A     -1.048000    12A     -0.942405
      13A     -0.887839    14A     -0.767255    15A     -0.741700
      16A     -0.699859    17A     -0.655404    18A     -0.646610
      19A     -0.621945    20A     -0.609444    21A     -0.562561
      22A     -0.544977    23A     -0.532783    24A     -0.512244
      25A     -0.478868    26A     -0.446934    27A     -0.423813
      28A     -0.361425

  @DF-RHF Final Energy:  -341.15408911009570

   => Energetics <=

    Nuclear Repulsion Energy =            330.5189520552287377
    One-Electron Energy =               -1118.9050354028927359
    Two-Electron Energy =                 447.2319942375683013
    Total Energy =                       -341.1540891100956969
  Basis Set: (AUG-CC-PVTZ AUX)
    Blend: AUG-CC-PVTZ-RI
    Molecular point group: c1

    Geometry (in Angstrom), charge = 0, multiplicity = 1:

       Center              X                  Y                   Z               Mass
    ------------   -----------------  -----------------  -----------------  -----------------
         O           -2.108523355397     0.328263301938    -0.216721298315    15.994914619570
         N            0.167596644603     0.465143301938     0.089035701685    14.003074004430
         N           -0.915763355397    -1.608490698062     0.128173701685    14.003074004430
         C            1.390448644603    -0.130708698062     0.611942701685    12.000000000000
         C            2.384821644603    -0.510191698062    -0.482678298315    12.000000000000
         C            0.142168244603     1.712588201938    -0.026881098315    12.000000000000
         C           -1.020286355397    -0.219344698062    -0.026798298315    12.000000000000
         H            1.847490644603     0.598540301938     1.291506701685     1.007825032230
         H            1.125436644603    -0.999828698062     1.219273701685     1.007825032230
         H            1.963835644603    -1.265091698062    -1.153213298315     1.007825032230
         H            2.646553644603     0.362695301938    -1.086283298315     1.007825032230
         H            3.304383644603    -0.913970698062    -0.047377298315     1.007825032230
         H            1.003086644603     2.246903301938    -0.625244298315     1.007825032230
         H            0.158062644603     2.402778301938     0.935352701685     1.007825032230
         H           -0.778714355397     2.191079301938    -0.560874298315     1.007825032230
         H           -0.116235355397    -2.049920698062    -0.310870298315     1.007825032230
         H           -1.790708355397    -2.045595698062    -0.140707298315     1.007825032230

  Basis Set: AUG-CC-PVTZ
    Blend: AUG-CC-PVTZ
  Basis Set: (AUG-CC-PVTZ AUX)
    Blend: AUG-CC-PVTZ-JKFIT
	 Reference Energy          =    -341.1540891100956969 [Eh]
	 Singles Energy            =      -0.0000000000000000 [Eh]
	 Same-Spin Energy          =      -0.3519223861682541 [Eh]
	 Opposite-Spin Energy      =      -1.1427939114794947 [Eh]
	 Correlation Energy        =      -1.4947162976477488 [Eh]
	 Total Energy              =    -342.6488054077434526 [Eh]

	 ================> DF-SCS-MP2 Energies <==================
	-----------------------------------------------------------
	 SCS Same-Spin Scale       =       0.3333333333333333 [-]
	 SCS Opposite-Spin Scale   =       1.2000000000000000 [-]
	 SCS Same-Spin Energy      =      -0.1173074620560847 [Eh]
	 SCS Opposite-Spin Energy  =      -1.3713526937753937 [Eh]
	 SCS Correlation Energy    =      -1.4886601558314785 [Eh]
	 SCS Total Energy          =    -342.6427492659271934 [Eh]
	-----------------------------------------------------------

  Dipole Moment: [D]
     X:     3.6536      Y:    -1.8856      Z:    -0.2449     Total:     4.1188

*** Psi4 exiting successfully. Buy a developer a beer!
