                               Psi4 1.3.2 release

  ==> Input File <==

--------------------------------------------------------------------------
#psi4
#
memory 32 gb

molecule  {
0 1
  C       -2.1229620    -0.0000010    -0.5285820
  C       -3.0262580     0.7522420     0.4138790
  C       -3.0262580    -0.7522400     0.4138820
  C       -0.6463130    -0.0000010    -0.3104390
  C        0.0658190     1.2029900    -0.2211540
  C        0.0936372    -1.2029910    -0.4192099
  C        1.4498120     1.2013260    -0.0471800
  C        1.4498130    -1.2013260    -0.0471800
  C        2.1649180     0.0000000     0.0407490
  C        3.6537450     0.0000010     0.2729580
  H       -2.4338460    -0.0000040    -1.5729350
  H       -3.8872420     1.2699250     0.0031310
  H       -2.5562430     1.2534570     1.2541040
  H       -2.5562430    -1.2534530     1.2541090
  H       -3.8872430    -1.2699240     0.0031370
  H       -0.4732260     2.1464250    -0.2897140
  H       -0.4732250    -2.1464270    -0.2897140
  H        1.9843610     2.1482350     0.0181390
  H        1.9843620    -2.1482350     0.0181390
  H        4.1207180    -0.8853500    -0.1681390
  H        4.1207180     0.8853520    -0.1681380
  H        3.8883030     0.0000000     1.3432050
units angstrom
no_reorient  #important for SAPT in psi4, default
symmetry c1  #important for SAPT in psi4, default
}

set PROPERTIES_ORIGIN ["COM"]
properties('MP2/aug-cc-pvtz', properties = ['dipole'])
--------------------------------------------------------------------------

    Molecular point group: c1
  Charge       = 0
  Multiplicity = 1
  Basis Set: AUG-CC-PVTZ
    Blend: AUG-CC-PVTZ
  Basis Set: (AUG-CC-PVTZ AUX)
    Blend: AUG-CC-PVTZ-JKFIT

    Orbital Energies [Eh]
    ---------------------

    Doubly Occupied:

       1A    -11.237653     2A    -11.237519     3A    -11.233418
       4A    -11.232361     5A    -11.230649     6A    -11.229911
       7A    -11.228337     8A    -11.224873     9A    -11.224220
      10A    -11.222524    11A     -1.162631    12A     -1.130214
      13A     -1.038608    14A     -1.005490    15A     -0.936480
      16A     -0.833285    17A     -0.831318    18A     -0.808690
      19A     -0.763864    20A     -0.686685    21A     -0.652213
      22A     -0.631371    23A     -0.624329    24A     -0.598485
      25A     -0.576092    26A     -0.571481    27A     -0.538074
      28A     -0.529346    29A     -0.512611    30A     -0.489180
      31A     -0.480013    32A     -0.476356    33A     -0.423368
      34A     -0.412744    35A     -0.331656    36A     -0.311355

  @DF-RHF Final Energy:  -385.75700991773931

   => Energetics <=

    Nuclear Repulsion Energy =            481.9366418248653190
    One-Electron Energy =               -1476.0724962715885340
    Two-Electron Energy =                 608.3788445289839046
    Total Energy =                       -385.7570099177393104
  Basis Set: (AUG-CC-PVTZ AUX)
    Blend: AUG-CC-PVTZ-RI
    Molecular point group: c1

    Geometry (in Angstrom), charge = 0, multiplicity = 1:

       Center              X                  Y                   Z               Mass
    ------------   -----------------  -----------------  -----------------  -----------------
         C           -2.126757114582    -0.000001007630    -0.500034110329    12.000000000000
         C           -3.030053114582     0.752241992370     0.442426889671    12.000000000000
         C           -3.030053114582    -0.752240007630     0.442429889671    12.000000000000
         C           -0.650108114582    -0.000001007630    -0.281891110329    12.000000000000
         C            0.062023885418     1.202989992370    -0.192606110329    12.000000000000
         C            0.089842085418    -1.202991007630    -0.390662010329    12.000000000000
         C            1.446016885418     1.201325992370    -0.018632110329    12.000000000000
         C            1.446017885418    -1.201326007630    -0.018632110329    12.000000000000
         C            2.161122885418    -0.000000007630     0.069296889671    12.000000000000
         C            3.649949885418     0.000000992370     0.301505889671    12.000000000000
         H           -2.437641114582    -0.000004007630    -1.544387110329     1.007825032230
         H           -3.891037114582     1.269924992370     0.031678889671     1.007825032230
         H           -2.560038114582     1.253456992370     1.282651889671     1.007825032230
         H           -2.560038114582    -1.253453007630     1.282656889671     1.007825032230
         H           -3.891038114582    -1.269924007630     0.031684889671     1.007825032230
         H           -0.477021114582     2.146424992370    -0.261166110329     1.007825032230
         H           -0.477020114582    -2.146427007630    -0.261166110329     1.007825032230
         H            1.980565885418     2.148234992370     0.046686889671     1.007825032230
         H            1.980566885418    -2.148235007630     0.046686889671     1.007825032230
         H            4.116922885418    -0.885350007630    -0.139591110329     1.007825032230
         H            4.116922885418     0.885351992370    -0.139590110329     1.007825032230
         H            3.884507885418    -0.000000007630     1.371752889671     1.007825032230

  Basis Set: AUG-CC-PVTZ
    Blend: AUG-CC-PVTZ
  Basis Set: (AUG-CC-PVTZ AUX)
    Blend: AUG-CC-PVTZ-JKFIT
	 Reference Energy          =    -385.7570099177393104 [Eh]
	 Singles Energy            =      -0.0000000000000000 [Eh]
	 Same-Spin Energy          =      -0.4322833202730311 [Eh]
	 Opposite-Spin Energy      =      -1.4133287234052490 [Eh]
	 Correlation Energy        =      -1.8456120436782801 [Eh]
	 Total Energy              =    -387.6026219614175830 [Eh]

	 ================> DF-SCS-MP2 Energies <==================
	-----------------------------------------------------------
	 SCS Same-Spin Scale       =       0.3333333333333333 [-]
	 SCS Opposite-Spin Scale   =       1.2000000000000000 [-]
	 SCS Same-Spin Energy      =      -0.1440944400910104 [Eh]
	 SCS Opposite-Spin Energy  =      -1.6959944680862986 [Eh]
	 SCS Correlation Energy    =      -1.8400889081773091 [Eh]
	 SCS Total Energy          =    -387.5970988259166461 [Eh]
	-----------------------------------------------------------

  Dipole Moment: [D]
     X:     0.1506      Y:     0.0786      Z:     0.1470     Total:     0.2247

*** Psi4 exiting successfully. Buy a developer a beer!
