                               Psi4 1.3.2 release

  ==> Input File <==

--------------------------------------------------------------------------
#psi4
#
memory 32 gb

molecule  {
0 1
  C       -2.1229620    -0.0000010    -0.5285820
  C       -3.0262580     0.7522420     0.4138790
  C       -3.0262580    -0.7522400     0.4138820
  C       -0.6463130    -0.0000010    -0.3104390
  C        0.0658190     1.2029900    -0.2211540
  C        0.0658190    -1.2029910    -0.2211540
  C        1.4498120     1.2013260    -0.0471800
  C        1.4498130    -1.2013260    -0.0471800
  C        2.1649180     0.0000000     0.0407490
  C        3.6537450     0.0000010     0.2729580
  H       -2.4338460    -0.0000040    -1.5729350
  H       -3.8872420     1.2699250     0.0031310
  H       -2.5562430     1.2534570     1.2541040
  H       -2.5562430    -1.2534530     1.2541090
  H       -3.8872430    -1.2699240     0.0031370
  H       -0.4732260     2.1464250    -0.2897140
  H       -0.4732250    -2.1464270    -0.2897140
  H        1.9843610     2.1482350     0.0181390
  H        1.9843620    -2.1482350     0.0181390
  H        4.1207180    -0.8853500    -0.1681390
  H        4.1207180     0.8853520    -0.1681380
  H        3.8883030     0.0000000     1.3432050
units angstrom
no_reorient  #important for SAPT in psi4, default
symmetry c1  #important for SAPT in psi4, default
}

set PROPERTIES_ORIGIN ["COM"]
properties('MP2/aug-cc-pvtz', properties = ['dipole'])
--------------------------------------------------------------------------

    Molecular point group: c1
  Charge       = 0
  Multiplicity = 1
  Basis Set: AUG-CC-PVTZ
    Blend: AUG-CC-PVTZ
  Basis Set: (AUG-CC-PVTZ AUX)
    Blend: AUG-CC-PVTZ-JKFIT

    Orbital Energies [Eh]
    ---------------------

    Doubly Occupied:

       1A    -11.237920     2A    -11.234117     3A    -11.232994
       4A    -11.229161     5A    -11.229003     6A    -11.227455
       7A    -11.227386     8A    -11.224658     9A    -11.224005
      10A    -11.222455    11A     -1.163370    12A     -1.130153
      13A     -1.039128    14A     -1.006737    15A     -0.936654
      16A     -0.833956    17A     -0.831733    18A     -0.808776
      19A     -0.765798    20A     -0.686995    21A     -0.652489
      22A     -0.633747    23A     -0.626379    24A     -0.599375
      25A     -0.577036    26A     -0.573145    27A     -0.538440
      28A     -0.528449    29A     -0.512311    30A     -0.489761
      31A     -0.483696    32A     -0.476180    33A     -0.424248
      34A     -0.412798    35A     -0.331496    36A     -0.312264

  @DF-RHF Final Energy:  -385.76953926094001

   => Energetics <=

    Nuclear Repulsion Energy =            482.6199702078267819
    One-Electron Energy =               -1477.4504820061463306
    Two-Electron Energy =                 609.0609725373794845
    Total Energy =                       -385.7695392609400642
  Basis Set: (AUG-CC-PVTZ AUX)
    Blend: AUG-CC-PVTZ-RI
    Molecular point group: c1

    Geometry (in Angstrom), charge = 0, multiplicity = 1:

       Center              X                  Y                   Z               Mass
    ------------   -----------------  -----------------  -----------------  -----------------
         C           -2.124229985025    -0.000001007630    -0.518026393039    12.000000000000
         C           -3.027525985025     0.752241992370     0.424434606961    12.000000000000
         C           -3.027525985025    -0.752240007630     0.424437606961    12.000000000000
         C           -0.647580985025    -0.000001007630    -0.299883393039    12.000000000000
         C            0.064551014975     1.202989992370    -0.210598393039    12.000000000000
         C            0.064551014975    -1.202991007630    -0.210598393039    12.000000000000
         C            1.448544014975     1.201325992370    -0.036624393039    12.000000000000
         C            1.448545014975    -1.201326007630    -0.036624393039    12.000000000000
         C            2.163650014975    -0.000000007630     0.051304606961    12.000000000000
         C            3.652477014975     0.000000992370     0.283513606961    12.000000000000
         H           -2.435113985025    -0.000004007630    -1.562379393039     1.007825032230
         H           -3.888509985025     1.269924992370     0.013686606961     1.007825032230
         H           -2.557510985025     1.253456992370     1.264659606961     1.007825032230
         H           -2.557510985025    -1.253453007630     1.264664606961     1.007825032230
         H           -3.888510985025    -1.269924007630     0.013692606961     1.007825032230
         H           -0.474493985025     2.146424992370    -0.279158393039     1.007825032230
         H           -0.474492985025    -2.146427007630    -0.279158393039     1.007825032230
         H            1.983093014975     2.148234992370     0.028694606961     1.007825032230
         H            1.983094014975    -2.148235007630     0.028694606961     1.007825032230
         H            4.119450014975    -0.885350007630    -0.157583393039     1.007825032230
         H            4.119450014975     0.885351992370    -0.157582393039     1.007825032230
         H            3.887035014975    -0.000000007630     1.353760606961     1.007825032230

  Basis Set: AUG-CC-PVTZ
    Blend: AUG-CC-PVTZ
  Basis Set: (AUG-CC-PVTZ AUX)
    Blend: AUG-CC-PVTZ-JKFIT
	 Reference Energy          =    -385.7695392609400074 [Eh]
	 Singles Energy            =      -0.0000000000000000 [Eh]
	 Same-Spin Energy          =      -0.4317118036008532 [Eh]
	 Opposite-Spin Energy      =      -1.4114874819579541 [Eh]
	 Correlation Energy        =      -1.8431992855588073 [Eh]
	 Total Energy              =    -387.6127385464988038 [Eh]

	 ================> DF-SCS-MP2 Energies <==================
	-----------------------------------------------------------
	 SCS Same-Spin Scale       =       0.3333333333333333 [-]
	 SCS Opposite-Spin Scale   =       1.2000000000000000 [-]
	 SCS Same-Spin Energy      =      -0.1439039345336177 [Eh]
	 SCS Opposite-Spin Energy  =      -1.6937849783495449 [Eh]
	 SCS Correlation Energy    =      -1.8376889128831626 [Eh]
	 SCS Total Energy          =    -387.6072281738231595 [Eh]
	-----------------------------------------------------------

  Dipole Moment: [D]
     X:     0.1155      Y:    -0.0000      Z:     0.0293     Total:     0.1192

*** Psi4 exiting successfully. Buy a developer a beer!
