                               Psi4 1.3.2 release

  ==> Input File <==

--------------------------------------------------------------------------
#psi4
#
memory 32 gb

molecule  {
0 1
  C       -2.1229620    -0.0000010    -0.5285820
  C       -3.0262580     0.7522420     0.4138790
  C       -3.0262580    -0.7522400     0.4138820
  C       -0.6463130    -0.0000010    -0.3104390
  C        0.0658190     1.2029900    -0.2211540
  C        0.0866826    -1.2029910    -0.3696959
  C        1.4498120     1.2013260    -0.0471800
  C        1.4498130    -1.2013260    -0.0471800
  C        2.1649180     0.0000000     0.0407490
  C        3.6537450     0.0000010     0.2729580
  H       -2.4338460    -0.0000040    -1.5729350
  H       -3.8872420     1.2699250     0.0031310
  H       -2.5562430     1.2534570     1.2541040
  H       -2.5562430    -1.2534530     1.2541090
  H       -3.8872430    -1.2699240     0.0031370
  H       -0.4732260     2.1464250    -0.2897140
  H       -0.4732250    -2.1464270    -0.2897140
  H        1.9843610     2.1482350     0.0181390
  H        1.9843620    -2.1482350     0.0181390
  H        4.1207180    -0.8853500    -0.1681390
  H        4.1207180     0.8853520    -0.1681380
  H        3.8883030     0.0000000     1.3432050
units angstrom
no_reorient  #important for SAPT in psi4, default
symmetry c1  #important for SAPT in psi4, default
}

set PROPERTIES_ORIGIN ["COM"]
properties('MP2/aug-cc-pvtz', properties = ['dipole'])
--------------------------------------------------------------------------

    Molecular point group: c1
  Charge       = 0
  Multiplicity = 1
  Basis Set: AUG-CC-PVTZ
    Blend: AUG-CC-PVTZ
  Basis Set: (AUG-CC-PVTZ AUX)
    Blend: AUG-CC-PVTZ-JKFIT

    Orbital Energies [Eh]
    ---------------------

    Doubly Occupied:

       1A    -11.237775     2A    -11.236003     3A    -11.233267
       4A    -11.230959     5A    -11.229334     6A    -11.229215
       7A    -11.228120     8A    -11.224793     9A    -11.224140
      10A    -11.222483    11A     -1.162914    12A     -1.130229
      13A     -1.038840    14A     -1.006101    15A     -0.936590
      16A     -0.833477    17A     -0.831483    18A     -0.808771
      19A     -0.764596    20A     -0.686831    21A     -0.652382
      22A     -0.632378    23A     -0.625203    24A     -0.598759
      25A     -0.576409    26A     -0.572326    27A     -0.538251
      28A     -0.529142    29A     -0.512520    30A     -0.489219
      31A     -0.481360    32A     -0.476808    33A     -0.423587
      34A     -0.412785    35A     -0.331634    36A     -0.311737

  @DF-RHF Final Energy:  -385.76255250756424

   => Energetics <=

    Nuclear Repulsion Energy =            482.1906406650461463
    One-Electron Energy =               -1476.5855451633865414
    Two-Electron Energy =                 608.6323519907761010
    Total Energy =                       -385.7625525075642372
  Basis Set: (AUG-CC-PVTZ AUX)
    Blend: AUG-CC-PVTZ-RI
    Molecular point group: c1

    Geometry (in Angstrom), charge = 0, multiplicity = 1:

       Center              X                  Y                   Z               Mass
    ------------   -----------------  -----------------  -----------------  -----------------
         C           -2.126125327651    -0.000001007630    -0.504532183278    12.000000000000
         C           -3.029421327651     0.752241992370     0.437928816722    12.000000000000
         C           -3.029421327651    -0.752240007630     0.437931816722    12.000000000000
         C           -0.649476327651    -0.000001007630    -0.286389183278    12.000000000000
         C            0.062655672349     1.202989992370    -0.197104183278    12.000000000000
         C            0.083519272349    -1.202991007630    -0.345646083278    12.000000000000
         C            1.446648672349     1.201325992370    -0.023130183278    12.000000000000
         C            1.446649672349    -1.201326007630    -0.023130183278    12.000000000000
         C            2.161754672349    -0.000000007630     0.064798816722    12.000000000000
         C            3.650581672349     0.000000992370     0.297007816722    12.000000000000
         H           -2.437009327651    -0.000004007630    -1.548885183278     1.007825032230
         H           -3.890405327651     1.269924992370     0.027180816722     1.007825032230
         H           -2.559406327651     1.253456992370     1.278153816722     1.007825032230
         H           -2.559406327651    -1.253453007630     1.278158816722     1.007825032230
         H           -3.890406327651    -1.269924007630     0.027186816722     1.007825032230
         H           -0.476389327651     2.146424992370    -0.265664183278     1.007825032230
         H           -0.476388327651    -2.146427007630    -0.265664183278     1.007825032230
         H            1.981197672349     2.148234992370     0.042188816722     1.007825032230
         H            1.981198672349    -2.148235007630     0.042188816722     1.007825032230
         H            4.117554672349    -0.885350007630    -0.144089183278     1.007825032230
         H            4.117554672349     0.885351992370    -0.144088183278     1.007825032230
         H            3.885139672349    -0.000000007630     1.367254816722     1.007825032230

  Basis Set: AUG-CC-PVTZ
    Blend: AUG-CC-PVTZ
  Basis Set: (AUG-CC-PVTZ AUX)
    Blend: AUG-CC-PVTZ-JKFIT
	 Reference Energy          =    -385.7625525075642372 [Eh]
	 Singles Energy            =      -0.0000000000000000 [Eh]
	 Same-Spin Energy          =      -0.4320193682607939 [Eh]
	 Opposite-Spin Energy      =      -1.4124865928281269 [Eh]
	 Correlation Energy        =      -1.8445059610889207 [Eh]
	 Total Energy              =    -387.6070584686531788 [Eh]

	 ================> DF-SCS-MP2 Energies <==================
	-----------------------------------------------------------
	 SCS Same-Spin Scale       =       0.3333333333333333 [-]
	 SCS Opposite-Spin Scale   =       1.2000000000000000 [-]
	 SCS Same-Spin Energy      =      -0.1440064560869313 [Eh]
	 SCS Opposite-Spin Energy  =      -1.6949839113937524 [Eh]
	 SCS Correlation Energy    =      -1.8389903674806836 [Eh]
	 SCS Total Energy          =    -387.6015428750449132 [Eh]
	-----------------------------------------------------------

  Dipole Moment: [D]
     X:     0.1349      Y:     0.0452      Z:     0.1154     Total:     0.1832

*** Psi4 exiting successfully. Buy a developer a beer!
