                               Psi4 1.3.2 release

  ==> Input File <==

--------------------------------------------------------------------------
#psi4
#
memory 32 gb

molecule  {
0 1
  C       -2.1229620    -0.0000010    -0.5285820
  C       -3.0262580     0.7522420     0.4138790
  C       -3.0262580    -0.7522400     0.4138820
  C       -0.6463130    -0.0000010    -0.3104390
  C        0.0658190     1.2029900    -0.2211540
  C        0.0797281    -1.2029910    -0.3201820
  C        1.4498120     1.2013260    -0.0471800
  C        1.4498130    -1.2013260    -0.0471800
  C        2.1649180     0.0000000     0.0407490
  C        3.6537450     0.0000010     0.2729580
  H       -2.4338460    -0.0000040    -1.5729350
  H       -3.8872420     1.2699250     0.0031310
  H       -2.5562430     1.2534570     1.2541040
  H       -2.5562430    -1.2534530     1.2541090
  H       -3.8872430    -1.2699240     0.0031370
  H       -0.4732260     2.1464250    -0.2897140
  H       -0.4732250    -2.1464270    -0.2897140
  H        1.9843610     2.1482350     0.0181390
  H        1.9843620    -2.1482350     0.0181390
  H        4.1207180    -0.8853500    -0.1681390
  H        4.1207180     0.8853520    -0.1681380
  H        3.8883030     0.0000000     1.3432050
units angstrom
no_reorient  #important for SAPT in psi4, default
symmetry c1  #important for SAPT in psi4, default
}

set PROPERTIES_ORIGIN ["COM"]
properties('MP2/aug-cc-pvtz', properties = ['dipole'])
--------------------------------------------------------------------------

    Molecular point group: c1
  Charge       = 0
  Multiplicity = 1
  Basis Set: AUG-CC-PVTZ
    Blend: AUG-CC-PVTZ
  Basis Set: (AUG-CC-PVTZ AUX)
    Blend: AUG-CC-PVTZ-JKFIT

    Orbital Energies [Eh]
    ---------------------

    Doubly Occupied:

       1A    -11.237868     2A    -11.234927     3A    -11.233142
       4A    -11.229934     5A    -11.229132     6A    -11.228196
       7A    -11.227762     8A    -11.224732     9A    -11.224079
      10A    -11.222460    11A     -1.163137    12A     -1.130226
      13A     -1.039010    14A     -1.006507    15A     -0.936661
      16A     -0.833668    17A     -0.831598    18A     -0.808813
      19A     -0.765182    20A     -0.686951    21A     -0.652500
      22A     -0.633137    23A     -0.625844    24A     -0.598996
      25A     -0.576725    26A     -0.572833    27A     -0.538368
      28A     -0.528922    29A     -0.512442    30A     -0.489290
      31A     -0.482560    32A     -0.476818    33A     -0.423810
      34A     -0.412803    35A     -0.331609    36A     -0.312022

  @DF-RHF Final Energy:  -385.76647301849005

   => Energetics <=

    Nuclear Repulsion Energy =            482.3900521381243607
    One-Electron Energy =               -1476.9877282415607169
    Two-Electron Energy =                 608.8312030849463099
    Total Energy =                       -385.7664730184900463
  Basis Set: (AUG-CC-PVTZ AUX)
    Blend: AUG-CC-PVTZ-RI
    Molecular point group: c1

    Geometry (in Angstrom), charge = 0, multiplicity = 1:

       Center              X                  Y                   Z               Mass
    ------------   -----------------  -----------------  -----------------  -----------------
         C           -2.125493549804    -0.000001007630    -0.509030247142    12.000000000000
         C           -3.028789549804     0.752241992370     0.433430752858    12.000000000000
         C           -3.028789549804    -0.752240007630     0.433433752858    12.000000000000
         C           -0.648844549804    -0.000001007630    -0.290887247142    12.000000000000
         C            0.063287450196     1.202989992370    -0.201602247142    12.000000000000
         C            0.077196550196    -1.202991007630    -0.300630247142    12.000000000000
         C            1.447280450196     1.201325992370    -0.027628247142    12.000000000000
         C            1.447281450196    -1.201326007630    -0.027628247142    12.000000000000
         C            2.162386450196    -0.000000007630     0.060300752858    12.000000000000
         C            3.651213450196     0.000000992370     0.292509752858    12.000000000000
         H           -2.436377549804    -0.000004007630    -1.553383247142     1.007825032230
         H           -3.889773549804     1.269924992370     0.022682752858     1.007825032230
         H           -2.558774549804     1.253456992370     1.273655752858     1.007825032230
         H           -2.558774549804    -1.253453007630     1.273660752858     1.007825032230
         H           -3.889774549804    -1.269924007630     0.022688752858     1.007825032230
         H           -0.475757549804     2.146424992370    -0.270162247142     1.007825032230
         H           -0.475756549804    -2.146427007630    -0.270162247142     1.007825032230
         H            1.981829450196     2.148234992370     0.037690752858     1.007825032230
         H            1.981830450196    -2.148235007630     0.037690752858     1.007825032230
         H            4.118186450196    -0.885350007630    -0.148587247142     1.007825032230
         H            4.118186450196     0.885351992370    -0.148586247142     1.007825032230
         H            3.885771450196    -0.000000007630     1.362756752858     1.007825032230

  Basis Set: AUG-CC-PVTZ
    Blend: AUG-CC-PVTZ
  Basis Set: (AUG-CC-PVTZ AUX)
    Blend: AUG-CC-PVTZ-JKFIT
	 Reference Energy          =    -385.7664730184900463 [Eh]
	 Singles Energy            =      -0.0000000000000000 [Eh]
	 Same-Spin Energy          =      -0.4318339222973965 [Eh]
	 Opposite-Spin Energy      =      -1.4118963643612181 [Eh]
	 Correlation Energy        =      -1.8437302866586147 [Eh]
	 Total Energy              =    -387.6102033051486728 [Eh]

	 ================> DF-SCS-MP2 Energies <==================
	-----------------------------------------------------------
	 SCS Same-Spin Scale       =       0.3333333333333333 [-]
	 SCS Opposite-Spin Scale   =       1.2000000000000000 [-]
	 SCS Same-Spin Energy      =      -0.1439446407657988 [Eh]
	 SCS Opposite-Spin Energy  =      -1.6942756372334618 [Eh]
	 SCS Correlation Energy    =      -1.8382202779992607 [Eh]
	 SCS Total Energy          =    -387.6046932964893017 [Eh]
	-----------------------------------------------------------

  Dipole Moment: [D]
     X:     0.1238      Y:     0.0208      Z:     0.0855     Total:     0.1519

*** Psi4 exiting successfully. Buy a developer a beer!
