                               Psi4 1.3.2 release

  ==> Input File <==

--------------------------------------------------------------------------
#psi4
#
memory 32 gb

molecule  {
0 1
  C       -2.1229620    -0.0000010    -0.5285820
  C       -3.0262580     0.7522420     0.4138790
  C       -3.0262580    -0.7522400     0.4138820
  C       -0.6463130    -0.0000010    -0.3104390
  C        0.0658190     1.2029900    -0.2211540
  C        0.1005917    -1.2029910    -0.4687239
  C        1.4498120     1.2013260    -0.0471800
  C        1.4498130    -1.2013260    -0.0471800
  C        2.1649180     0.0000000     0.0407490
  C        3.6537450     0.0000010     0.2729580
  H       -2.4338460    -0.0000040    -1.5729350
  H       -3.8872420     1.2699250     0.0031310
  H       -2.5562430     1.2534570     1.2541040
  H       -2.5562430    -1.2534530     1.2541090
  H       -3.8872430    -1.2699240     0.0031370
  H       -0.4732260     2.1464250    -0.2897140
  H       -0.4732250    -2.1464270    -0.2897140
  H        1.9843610     2.1482350     0.0181390
  H        1.9843620    -2.1482350     0.0181390
  H        4.1207180    -0.8853500    -0.1681390
  H        4.1207180     0.8853520    -0.1681380
  H        3.8883030     0.0000000     1.3432050
units angstrom
no_reorient  #important for SAPT in psi4, default
symmetry c1  #important for SAPT in psi4, default
}

set PROPERTIES_ORIGIN ["COM"]
properties('MP2/aug-cc-pvtz', properties = ['dipole'])
--------------------------------------------------------------------------

    Molecular point group: c1
  Charge       = 0
  Multiplicity = 1
  Basis Set: AUG-CC-PVTZ
    Blend: AUG-CC-PVTZ
  Basis Set: (AUG-CC-PVTZ AUX)
    Blend: AUG-CC-PVTZ-JKFIT

    Orbital Energies [Eh]
    ---------------------

    Doubly Occupied:

       1A    -11.239449     2A    -11.237519     3A    -11.234109
       4A    -11.233592     5A    -11.232454     6A    -11.230942
       7A    -11.228369     8A    -11.224972     9A    -11.224319
      10A    -11.222589    11A     -1.162300    12A     -1.130185
      13A     -1.038328    14A     -1.004662    15A     -0.936345
      16A     -0.833122    17A     -0.831085    18A     -0.808567
      19A     -0.763023    20A     -0.686545    21A     -0.652029
      22A     -0.630175    23A     -0.623253    24A     -0.598160
      25A     -0.575838    26A     -0.570248    27A     -0.537834
      28A     -0.529528    29A     -0.512714    30A     -0.489118
      31A     -0.478954    32A     -0.475043    33A     -0.423157
      34A     -0.412670    35A     -0.331697    36A     -0.310889

  @DF-RHF Final Energy:  -385.74981881681617

   => Energetics <=

    Nuclear Repulsion Energy =            481.6299554326383259
    One-Electron Energy =               -1475.4519864914548180
    Two-Electron Energy =                 608.0722122420003188
    Total Energy =                       -385.7498188168161732
  Basis Set: (AUG-CC-PVTZ AUX)
    Blend: AUG-CC-PVTZ-RI
    Molecular point group: c1

    Geometry (in Angstrom), charge = 0, multiplicity = 1:

       Center              X                  Y                   Z               Mass
    ------------   -----------------  -----------------  -----------------  -----------------
         C           -2.127388892430    -0.000001007630    -0.495536037381    12.000000000000
         C           -3.030684892430     0.752241992370     0.446924962619    12.000000000000
         C           -3.030684892430    -0.752240007630     0.446927962619    12.000000000000
         C           -0.650739892430    -0.000001007630    -0.277393037381    12.000000000000
         C            0.061392107570     1.202989992370    -0.188108037381    12.000000000000
         C            0.096164807570    -1.202991007630    -0.435677937381    12.000000000000
         C            1.445385107570     1.201325992370    -0.014134037381    12.000000000000
         C            1.445386107570    -1.201326007630    -0.014134037381    12.000000000000
         C            2.160491107570    -0.000000007630     0.073794962619    12.000000000000
         C            3.649318107570     0.000000992370     0.306003962619    12.000000000000
         H           -2.438272892430    -0.000004007630    -1.539889037381     1.007825032230
         H           -3.891668892430     1.269924992370     0.036176962619     1.007825032230
         H           -2.560669892430     1.253456992370     1.287149962619     1.007825032230
         H           -2.560669892430    -1.253453007630     1.287154962619     1.007825032230
         H           -3.891669892430    -1.269924007630     0.036182962619     1.007825032230
         H           -0.477652892430     2.146424992370    -0.256668037381     1.007825032230
         H           -0.477651892430    -2.146427007630    -0.256668037381     1.007825032230
         H            1.979934107570     2.148234992370     0.051184962619     1.007825032230
         H            1.979935107570    -2.148235007630     0.051184962619     1.007825032230
         H            4.116291107570    -0.885350007630    -0.135093037381     1.007825032230
         H            4.116291107570     0.885351992370    -0.135092037381     1.007825032230
         H            3.883876107570    -0.000000007630     1.376250962619     1.007825032230

  Basis Set: AUG-CC-PVTZ
    Blend: AUG-CC-PVTZ
  Basis Set: (AUG-CC-PVTZ AUX)
    Blend: AUG-CC-PVTZ-JKFIT
	 Reference Energy          =    -385.7498188168161732 [Eh]
	 Singles Energy            =      -0.0000000000000000 [Eh]
	 Same-Spin Energy          =      -0.4326201321889622 [Eh]
	 Opposite-Spin Energy      =      -1.4144044993726366 [Eh]
	 Correlation Energy        =      -1.8470246315615988 [Eh]
	 Total Energy              =    -387.5968434483777969 [Eh]

	 ================> DF-SCS-MP2 Energies <==================
	-----------------------------------------------------------
	 SCS Same-Spin Scale       =       0.3333333333333333 [-]
	 SCS Opposite-Spin Scale   =       1.2000000000000000 [-]
	 SCS Same-Spin Energy      =      -0.1442067107296540 [Eh]
	 SCS Opposite-Spin Energy  =      -1.6972853992471639 [Eh]
	 SCS Correlation Energy    =      -1.8414921099768180 [Eh]
	 SCS Total Energy          =    -387.5913109267929713 [Eh]
	-----------------------------------------------------------

  Dipole Moment: [D]
     X:     0.1709      Y:     0.1209      Z:     0.1803     Total:     0.2763

*** Psi4 exiting successfully. Buy a developer a beer!
