                               Psi4 1.3.2 release

  ==> Input File <==

--------------------------------------------------------------------------
#psi4
#
memory 32 gb

molecule  {
0 1
  C       -2.1229620    -0.0000010    -0.5285820
  C       -3.0262580     0.7522420     0.4138790
  C       -3.0262580    -0.7522400     0.4138820
  C       -0.6463130    -0.0000010    -0.3104390
  C        0.0658190     1.2029900    -0.2211540
  C        0.0727735    -1.2029910    -0.2706680
  C        1.4498120     1.2013260    -0.0471800
  C        1.4498130    -1.2013260    -0.0471800
  C        2.1649180     0.0000000     0.0407490
  C        3.6537450     0.0000010     0.2729580
  H       -2.4338460    -0.0000040    -1.5729350
  H       -3.8872420     1.2699250     0.0031310
  H       -2.5562430     1.2534570     1.2541040
  H       -2.5562430    -1.2534530     1.2541090
  H       -3.8872430    -1.2699240     0.0031370
  H       -0.4732260     2.1464250    -0.2897140
  H       -0.4732250    -2.1464270    -0.2897140
  H        1.9843610     2.1482350     0.0181390
  H        1.9843620    -2.1482350     0.0181390
  H        4.1207180    -0.8853500    -0.1681390
  H        4.1207180     0.8853520    -0.1681380
  H        3.8883030     0.0000000     1.3432050
units angstrom
no_reorient  #important for SAPT in psi4, default
symmetry c1  #important for SAPT in psi4, default
}

set PROPERTIES_ORIGIN ["COM"]
properties('MP2/aug-cc-pvtz', properties = ['dipole'])
--------------------------------------------------------------------------

    Molecular point group: c1
  Charge       = 0
  Multiplicity = 1
  Basis Set: AUG-CC-PVTZ
    Blend: AUG-CC-PVTZ
  Basis Set: (AUG-CC-PVTZ AUX)
    Blend: AUG-CC-PVTZ-JKFIT

    Orbital Energies [Eh]
    ---------------------

    Doubly Occupied:

       1A    -11.237919     2A    -11.234305     3A    -11.233043
       4A    -11.229324     5A    -11.229066     6A    -11.227603
       7A    -11.227485     8A    -11.224687     9A    -11.224035
      10A    -11.222452    11A     -1.163291    12A     -1.130202
      13A     -1.039109    14A     -1.006718    15A     -0.936685
      16A     -0.833834    17A     -0.831678    18A     -0.808815
      19A     -0.765590    20A     -0.687013    21A     -0.652541
      22A     -0.633604    23A     -0.626237    24A     -0.599201
      25A     -0.576955    26A     -0.573085    27A     -0.538430
      28A     -0.528690    29A     -0.512373    30A     -0.489458
      31A     -0.483368    32A     -0.476588    33A     -0.424032
      34A     -0.412806    35A     -0.331565    36A     -0.312201

  @DF-RHF Final Energy:  -385.76879609702615

   => Energetics <=

    Nuclear Repulsion Energy =            482.5334589839583828
    One-Electron Energy =               -1477.2765333426486905
    Two-Electron Energy =                 608.9742782616642671
    Total Energy =                       -385.7687960970260974
  Basis Set: (AUG-CC-PVTZ AUX)
    Blend: AUG-CC-PVTZ-RI
    Molecular point group: c1

    Geometry (in Angstrom), charge = 0, multiplicity = 1:

       Center              X                  Y                   Z               Mass
    ------------   -----------------  -----------------  -----------------  -----------------
         C           -2.124861762872    -0.000001007630    -0.513528320091    12.000000000000
         C           -3.028157762872     0.752241992370     0.428932679909    12.000000000000
         C           -3.028157762872    -0.752240007630     0.428935679909    12.000000000000
         C           -0.648212762872    -0.000001007630    -0.295385320091    12.000000000000
         C            0.063919237128     1.202989992370    -0.206100320091    12.000000000000
         C            0.070873737128    -1.202991007630    -0.255614320091    12.000000000000
         C            1.447912237128     1.201325992370    -0.032126320091    12.000000000000
         C            1.447913237128    -1.201326007630    -0.032126320091    12.000000000000
         C            2.163018237128    -0.000000007630     0.055802679909    12.000000000000
         C            3.651845237128     0.000000992370     0.288011679909    12.000000000000
         H           -2.435745762872    -0.000004007630    -1.557881320091     1.007825032230
         H           -3.889141762872     1.269924992370     0.018184679909     1.007825032230
         H           -2.558142762872     1.253456992370     1.269157679909     1.007825032230
         H           -2.558142762872    -1.253453007630     1.269162679909     1.007825032230
         H           -3.889142762872    -1.269924007630     0.018190679909     1.007825032230
         H           -0.475125762872     2.146424992370    -0.274660320091     1.007825032230
         H           -0.475124762872    -2.146427007630    -0.274660320091     1.007825032230
         H            1.982461237128     2.148234992370     0.033192679909     1.007825032230
         H            1.982462237128    -2.148235007630     0.033192679909     1.007825032230
         H            4.118818237128    -0.885350007630    -0.153085320091     1.007825032230
         H            4.118818237128     0.885351992370    -0.153084320091     1.007825032230
         H            3.886403237128    -0.000000007630     1.358258679909     1.007825032230

  Basis Set: AUG-CC-PVTZ
    Blend: AUG-CC-PVTZ
  Basis Set: (AUG-CC-PVTZ AUX)
    Blend: AUG-CC-PVTZ-JKFIT
	 Reference Energy          =    -385.7687960970261543 [Eh]
	 Singles Energy            =      -0.0000000000000000 [Eh]
	 Same-Spin Energy          =      -0.4317309211109343 [Eh]
	 Opposite-Spin Energy      =      -1.4115709288585845 [Eh]
	 Correlation Energy        =      -1.8433018499695186 [Eh]
	 Total Energy              =    -387.6120979469956751 [Eh]

	 ================> DF-SCS-MP2 Energies <==================
	-----------------------------------------------------------
	 SCS Same-Spin Scale       =       0.3333333333333333 [-]
	 SCS Opposite-Spin Scale   =       1.2000000000000000 [-]
	 SCS Same-Spin Energy      =      -0.1439103070369781 [Eh]
	 SCS Opposite-Spin Energy  =      -1.6938851146303013 [Eh]
	 SCS Correlation Energy    =      -1.8377954216672794 [Eh]
	 SCS Total Energy          =    -387.6065915186934490 [Eh]
	-----------------------------------------------------------

  Dipole Moment: [D]
     X:     0.1173      Y:     0.0057      Z:     0.0569     Total:     0.1305

*** Psi4 exiting successfully. Buy a developer a beer!
