                               Psi4 1.3.2 release

  ==> Input File <==

--------------------------------------------------------------------------
#psi4
#
memory 32 gb

molecule  {
-1 1
  O       -1.6021720    -0.7553910    -0.0001730
  O       -0.6117130     1.3130740     0.0001440
  C        0.7486485    -0.6398383    -0.2498940
  C       -0.6246240     0.0491590     0.0000370
  C        1.9107360     0.0279630    -0.0001390
  H        0.7354600    -1.7316690     0.0007200
  H        2.8810510    -0.4671120     0.0001950
  H        1.8861710     1.1137650    -0.0007150
units angstrom
no_reorient  #important for SAPT in psi4, default
symmetry c1  #important for SAPT in psi4, default
}

set PROPERTIES_ORIGIN ["COM"]
properties('MP2/aug-cc-pvtz', properties = ['dipole'])
--------------------------------------------------------------------------

    Molecular point group: c1
  Charge       = -1
  Multiplicity = 1
  Basis Set: AUG-CC-PVTZ
    Blend: AUG-CC-PVTZ
  Basis Set: (AUG-CC-PVTZ AUX)
    Blend: AUG-CC-PVTZ-JKFIT

    Orbital Energies [Eh]
    ---------------------

    Doubly Occupied:

       1A    -20.300268     2A    -20.296914     3A    -11.148302
       4A    -11.085397     5A    -11.079199     6A     -1.165785
       7A     -1.069459     8A     -0.873038     9A     -0.656953
      10A     -0.521574    11A     -0.469149    12A     -0.435869
      13A     -0.392088    14A     -0.364331    15A     -0.352416
      16A     -0.216551    17A     -0.211666    18A     -0.204965
      19A     -0.196492

  @DF-RHF Final Energy:  -265.16956747429373

   => Energetics <=

    Nuclear Repulsion Energy =            151.0506224466080596
    One-Electron Energy =                -670.3595444288380349
    Two-Electron Energy =                 254.1393545079362468
    Total Energy =                       -265.1695674742937854
  Basis Set: (AUG-CC-PVTZ AUX)
    Blend: AUG-CC-PVTZ-RI
    Molecular point group: c1

    Geometry (in Angstrom), charge = -1, multiplicity = 1:

       Center              X                  Y                   Z               Mass
    ------------   -----------------  -----------------  -----------------  -----------------
         O           -1.525453490145    -0.770514786939     0.042075622502    15.994914619570
         O           -0.534994490145     1.297950213061     0.042392622502    15.994914619570
         C            0.825367009855    -0.654962086939    -0.207645377498    12.000000000000
         C           -0.547905490145     0.034035213061     0.042285622502    12.000000000000
         C            1.987454509855     0.012839213061     0.042109622502    12.000000000000
         H            0.812178509855    -1.746792786939     0.042968622502     1.007825032230
         H            2.957769509855    -0.482235786939     0.042443622502     1.007825032230
         H            1.962889509855     1.098641213061     0.041533622502     1.007825032230

  Basis Set: AUG-CC-PVTZ
    Blend: AUG-CC-PVTZ
  Basis Set: (AUG-CC-PVTZ AUX)
    Blend: AUG-CC-PVTZ-JKFIT
	 Reference Energy          =    -265.1695674742937285 [Eh]
	 Singles Energy            =      -0.0000000000000000 [Eh]
	 Same-Spin Energy          =      -0.2635573154970874 [Eh]
	 Opposite-Spin Energy      =      -0.7997789102849826 [Eh]
	 Correlation Energy        =      -1.0633362257820700 [Eh]
	 Total Energy              =    -266.2329037000757808 [Eh]

	 ================> DF-SCS-MP2 Energies <==================
	-----------------------------------------------------------
	 SCS Same-Spin Scale       =       0.3333333333333333 [-]
	 SCS Opposite-Spin Scale   =       1.2000000000000000 [-]
	 SCS Same-Spin Energy      =      -0.0878524384990291 [Eh]
	 SCS Opposite-Spin Energy  =      -0.9597346923419791 [Eh]
	 SCS Correlation Energy    =      -1.0475871308410083 [Eh]
	 SCS Total Energy          =    -266.2171546051347377 [Eh]
	-----------------------------------------------------------

  Dipole Moment: [D]
     X:     4.3231      Y:    -1.1899      Z:    -0.0193     Total:     4.4839

*** Psi4 exiting successfully. Buy a developer a beer!
