                               Psi4 1.3.2 release

  ==> Input File <==

--------------------------------------------------------------------------
#psi4
#
memory 32 gb

molecule  {
-1 1
  O       -1.6021720    -0.7553910    -0.0001730
  O       -0.6117130     1.3130740     0.0001440
  C        0.7486200    -0.6398630     0.0001060
  C       -0.6246240     0.0491590     0.0000370
  C        1.9107360     0.0279630    -0.0001390
  H        0.7354600    -1.7316690     0.0007200
  H        2.8810510    -0.4671120     0.0001950
  H        1.8861710     1.1137650    -0.0007150
units angstrom
no_reorient  #important for SAPT in psi4, default
symmetry c1  #important for SAPT in psi4, default
}

set PROPERTIES_ORIGIN ["COM"]
properties('MP2/aug-cc-pvtz', properties = ['dipole'])
--------------------------------------------------------------------------

    Molecular point group: c1
  Charge       = -1
  Multiplicity = 1
  Basis Set: AUG-CC-PVTZ
    Blend: AUG-CC-PVTZ
  Basis Set: (AUG-CC-PVTZ AUX)
    Blend: AUG-CC-PVTZ-JKFIT

    Orbital Energies [Eh]
    ---------------------

    Doubly Occupied:

       1A    -20.299885     2A    -20.296269     3A    -11.145762
       4A    -11.077099     5A    -11.074075     6A     -1.165995
       7A     -1.069252     8A     -0.878226     9A     -0.660225
      10A     -0.528253    11A     -0.471130    12A     -0.441236
      13A     -0.391857    14A     -0.362627    15A     -0.359822
      16A     -0.216353    17A     -0.212252    18A     -0.209500
      19A     -0.196206

  @DF-RHF Final Energy:  -265.18732733561660

   => Energetics <=

    Nuclear Repulsion Energy =            151.6649303282100902
    One-Electron Energy =                -671.5924639107306575
    Two-Electron Energy =                 254.7402062469039663
    Total Energy =                       -265.1873273356166010
  Basis Set: (AUG-CC-PVTZ AUX)
    Blend: AUG-CC-PVTZ-RI
    Molecular point group: c1

    Geometry (in Angstrom), charge = -1, multiplicity = 1:

       Center              X                  Y                   Z               Mass
    ------------   -----------------  -----------------  -----------------  -----------------
         O           -1.525448674146    -0.770510613073    -0.000169982431    15.994914619570
         O           -0.534989674146     1.297954386927     0.000147017569    15.994914619570
         C            0.825343325854    -0.654982613073     0.000109017569    12.000000000000
         C           -0.547900674146     0.034039386927     0.000040017569    12.000000000000
         C            1.987459325854     0.012843386927    -0.000135982431    12.000000000000
         H            0.812183325854    -1.746788613073     0.000723017569     1.007825032230
         H            2.957774325854    -0.482231613073     0.000198017569     1.007825032230
         H            1.962894325854     1.098645386927    -0.000711982431     1.007825032230

  Basis Set: AUG-CC-PVTZ
    Blend: AUG-CC-PVTZ
  Basis Set: (AUG-CC-PVTZ AUX)
    Blend: AUG-CC-PVTZ-JKFIT
	 Reference Energy          =    -265.1873273356166010 [Eh]
	 Singles Energy            =      -0.0000000000000000 [Eh]
	 Same-Spin Energy          =      -0.2625061427819030 [Eh]
	 Opposite-Spin Energy      =      -0.7969621916674730 [Eh]
	 Correlation Energy        =      -1.0594683344493760 [Eh]
	 Total Energy              =    -266.2467956700659784 [Eh]

	 ================> DF-SCS-MP2 Energies <==================
	-----------------------------------------------------------
	 SCS Same-Spin Scale       =       0.3333333333333333 [-]
	 SCS Opposite-Spin Scale   =       1.2000000000000000 [-]
	 SCS Same-Spin Energy      =      -0.0875020475939677 [Eh]
	 SCS Opposite-Spin Energy  =      -0.9563546300009675 [Eh]
	 SCS Correlation Energy    =      -1.0438566775949352 [Eh]
	 SCS Total Energy          =    -266.2311840132115321 [Eh]
	-----------------------------------------------------------

  Dipole Moment: [D]
     X:     4.3329      Y:    -1.2964      Z:     0.0004     Total:     4.5226

*** Psi4 exiting successfully. Buy a developer a beer!
