                               Psi4 1.3.2 release

  ==> Input File <==

--------------------------------------------------------------------------
#psi4
#
memory 32 gb

molecule  {
-1 1
  O       -1.6021720    -0.7553910    -0.0001730
  O       -0.6117130     1.3130740     0.0001440
  C        0.7486541    -0.6398334    -0.2998940
  C       -0.6246240     0.0491590     0.0000370
  C        1.9107360     0.0279630    -0.0001390
  H        0.7354600    -1.7316690     0.0007200
  H        2.8810510    -0.4671120     0.0001950
  H        1.8861710     1.1137650    -0.0007150
units angstrom
no_reorient  #important for SAPT in psi4, default
symmetry c1  #important for SAPT in psi4, default
}

set PROPERTIES_ORIGIN ["COM"]
properties('MP2/aug-cc-pvtz', properties = ['dipole'])
--------------------------------------------------------------------------

    Molecular point group: c1
  Charge       = -1
  Multiplicity = 1
  Basis Set: AUG-CC-PVTZ
    Blend: AUG-CC-PVTZ
  Basis Set: (AUG-CC-PVTZ AUX)
    Blend: AUG-CC-PVTZ-JKFIT

    Orbital Energies [Eh]
    ---------------------

    Doubly Occupied:

       1A    -20.300515     2A    -20.297269     3A    -11.149413
       4A    -11.088952     5A    -11.081273     6A     -1.165762
       7A     -1.069612     8A     -0.870770     9A     -0.655671
      10A     -0.519031    11A     -0.468629    12A     -0.433475
      13A     -0.392206    14A     -0.364338    15A     -0.349760
      16A     -0.216657    17A     -0.211409    18A     -0.203139
      19A     -0.196663

  @DF-RHF Final Energy:  -265.16163092308682

   => Energetics <=

    Nuclear Repulsion Energy =            150.7884393050209155
    One-Electron Energy =                -669.8310500194746737
    Two-Electron Energy =                 253.8809797913669399
    Total Energy =                       -265.1616309230868183
  Basis Set: (AUG-CC-PVTZ AUX)
    Blend: AUG-CC-PVTZ-RI
    Molecular point group: c1

    Geometry (in Angstrom), charge = -1, multiplicity = 1:

       Center              X                  Y                   Z               Mass
    ------------   -----------------  -----------------  -----------------  -----------------
         O           -1.525454436446    -0.770515614953     0.050524743489    15.994914619570
         O           -0.534995436446     1.297949385047     0.050841743489    15.994914619570
         C            0.825371663554    -0.654958014953    -0.249196256511    12.000000000000
         C           -0.547906436446     0.034034385047     0.050734743489    12.000000000000
         C            1.987453563554     0.012838385047     0.050558743489    12.000000000000
         H            0.812177563554    -1.746793614953     0.051417743489     1.007825032230
         H            2.957768563554    -0.482236614953     0.050892743489     1.007825032230
         H            1.962888563554     1.098640385047     0.049982743489     1.007825032230

  Basis Set: AUG-CC-PVTZ
    Blend: AUG-CC-PVTZ
  Basis Set: (AUG-CC-PVTZ AUX)
    Blend: AUG-CC-PVTZ-JKFIT
	 Reference Energy          =    -265.1616309230868183 [Eh]
	 Singles Energy            =      -0.0000000000000000 [Eh]
	 Same-Spin Energy          =      -0.2640198074969520 [Eh]
	 Opposite-Spin Energy      =      -0.8010401598393774 [Eh]
	 Correlation Energy        =      -1.0650599673363295 [Eh]
	 Total Energy              =    -266.2266908904231286 [Eh]

	 ================> DF-SCS-MP2 Energies <==================
	-----------------------------------------------------------
	 SCS Same-Spin Scale       =       0.3333333333333333 [-]
	 SCS Opposite-Spin Scale   =       1.2000000000000000 [-]
	 SCS Same-Spin Energy      =      -0.0880066024989840 [Eh]
	 SCS Opposite-Spin Energy  =      -0.9612481918072528 [Eh]
	 SCS Correlation Energy    =      -1.0492547943062369 [Eh]
	 SCS Total Energy          =    -266.2108857173930687 [Eh]
	-----------------------------------------------------------

  Dipole Moment: [D]
     X:     4.3118      Y:    -1.1443      Z:    -0.0160     Total:     4.4611

*** Psi4 exiting successfully. Buy a developer a beer!
