                               Psi4 1.3.2 release

  ==> Input File <==

--------------------------------------------------------------------------
#psi4
#
memory 32 gb

molecule  {
-1 1
  O       -1.6021720    -0.7553910    -0.0001730
  O       -0.6117130     1.3130740     0.0001440
  C        0.7486371    -0.6398482    -0.1498940
  C       -0.6246240     0.0491590     0.0000370
  C        1.9107360     0.0279630    -0.0001390
  H        0.7354600    -1.7316690     0.0007200
  H        2.8810510    -0.4671120     0.0001950
  H        1.8861710     1.1137650    -0.0007150
units angstrom
no_reorient  #important for SAPT in psi4, default
symmetry c1  #important for SAPT in psi4, default
}

set PROPERTIES_ORIGIN ["COM"]
properties('MP2/aug-cc-pvtz', properties = ['dipole'])
--------------------------------------------------------------------------

    Molecular point group: c1
  Charge       = -1
  Multiplicity = 1
  Basis Set: AUG-CC-PVTZ
    Blend: AUG-CC-PVTZ
  Basis Set: (AUG-CC-PVTZ AUX)
    Blend: AUG-CC-PVTZ-JKFIT

    Orbital Energies [Eh]
    ---------------------

    Doubly Occupied:

       1A    -20.299993     2A    -20.296474     3A    -11.146681
       4A    -11.080105     5A    -11.076001     6A     -1.165893
       7A     -1.069303     8A     -0.876358     9A     -0.658980
      10A     -0.525690    11A     -0.470272    12A     -0.439339
      13A     -0.391931    14A     -0.363871    15A     -0.356572
      16A     -0.216419    17A     -0.212083    18A     -0.207763
      19A     -0.196290

  @DF-RHF Final Energy:  -265.18098568259632

   => Energetics <=

    Nuclear Repulsion Energy =            151.4408183100603367
    One-Electron Energy =                -671.1435700464113552
    Two-Electron Energy =                 254.5217660537547033
    Total Energy =                       -265.1809856825963152
  Basis Set: (AUG-CC-PVTZ AUX)
    Blend: AUG-CC-PVTZ-RI
    Molecular point group: c1

    Geometry (in Angstrom), charge = -1, multiplicity = 1:

       Center              X                  Y                   Z               Mass
    ------------   -----------------  -----------------  -----------------  -----------------
         O           -1.525451563745    -0.770513114013     0.025177380529    15.994914619570
         O           -0.534992563745     1.297951885987     0.025494380529    15.994914619570
         C            0.825357536255    -0.654970314013    -0.124543619471    12.000000000000
         C           -0.547903563745     0.034036885987     0.025387380529    12.000000000000
         C            1.987456436255     0.012840885987     0.025211380529    12.000000000000
         H            0.812180436255    -1.746791114013     0.026070380529     1.007825032230
         H            2.957771436255    -0.482234114013     0.025545380529     1.007825032230
         H            1.962891436255     1.098642885987     0.024635380529     1.007825032230

  Basis Set: AUG-CC-PVTZ
    Blend: AUG-CC-PVTZ
  Basis Set: (AUG-CC-PVTZ AUX)
    Blend: AUG-CC-PVTZ-JKFIT
	 Reference Energy          =    -265.1809856825963152 [Eh]
	 Singles Energy            =      -0.0000000000000000 [Eh]
	 Same-Spin Energy          =      -0.2628855723988027 [Eh]
	 Opposite-Spin Energy      =      -0.7979406041361736 [Eh]
	 Correlation Energy        =      -1.0608261765349762 [Eh]
	 Total Energy              =    -266.2418118591313032 [Eh]

	 ================> DF-SCS-MP2 Energies <==================
	-----------------------------------------------------------
	 SCS Same-Spin Scale       =       0.3333333333333333 [-]
	 SCS Opposite-Spin Scale   =       1.2000000000000000 [-]
	 SCS Same-Spin Energy      =      -0.0876285241329342 [Eh]
	 SCS Opposite-Spin Energy  =      -0.9575287249634084 [Eh]
	 SCS Correlation Energy    =      -1.0451572490963426 [Eh]
	 SCS Total Energy          =    -266.2261429316926638 [Eh]
	-----------------------------------------------------------

  Dipole Moment: [D]
     X:     4.3318      Y:    -1.2572      Z:    -0.0174     Total:     4.5106

*** Psi4 exiting successfully. Buy a developer a beer!
