                               Psi4 1.3.2 release

  ==> Input File <==

--------------------------------------------------------------------------
#psi4
#
memory 32 gb

molecule  {
-1 1
  O       -1.6021720    -0.7553910    -0.0001730
  O       -0.6117130     1.3130740     0.0001440
  C        0.7486200    -0.6398630     0.0001060
  C       -0.6246240     0.0491590     0.0000370
  C        1.9107360     0.0279630    -0.0001390
  H        0.7354417    -1.7317788    -0.2492800
  H        2.8810510    -0.4671120     0.0001950
  H        1.8861710     1.1137650    -0.0007150
units angstrom
no_reorient  #important for SAPT in psi4, default
symmetry c1  #important for SAPT in psi4, default
}

set PROPERTIES_ORIGIN ["COM"]
properties('MP2/aug-cc-pvtz', properties = ['dipole'])
--------------------------------------------------------------------------

    Molecular point group: c1
  Charge       = -1
  Multiplicity = 1
  Basis Set: AUG-CC-PVTZ
    Blend: AUG-CC-PVTZ
  Basis Set: (AUG-CC-PVTZ AUX)
    Blend: AUG-CC-PVTZ-JKFIT

    Orbital Energies [Eh]
    ---------------------

    Doubly Occupied:

       1A    -20.299850     2A    -20.296649     3A    -11.146006
       4A    -11.078487     5A    -11.076784     6A     -1.166143
       7A     -1.069392     8A     -0.877910     9A     -0.659040
      10A     -0.525073    11A     -0.470377    12A     -0.440907
      13A     -0.392072    14A     -0.366867    15A     -0.353012
      16A     -0.218255    17A     -0.214006    18A     -0.205512
      19A     -0.196193

  @DF-RHF Final Energy:  -265.18307324885609

   => Energetics <=

    Nuclear Repulsion Energy =            151.5592977908387979
    One-Electron Energy =                -671.3796707036399312
    Two-Electron Energy =                 254.6372996639449866
    Total Energy =                       -265.1830732488560898
  Basis Set: (AUG-CC-PVTZ AUX)
    Blend: AUG-CC-PVTZ-RI
    Molecular point group: c1

    Geometry (in Angstrom), charge = -1, multiplicity = 1:

       Center              X                  Y                   Z               Mass
    ------------   -----------------  -----------------  -----------------  -----------------
         O           -1.525448414431    -0.770509054785     0.003378032415    15.994914619570
         O           -0.534989414431     1.297955945215     0.003695032415    15.994914619570
         C            0.825343585569    -0.654981054785     0.003657032415    12.000000000000
         C           -0.547900414431     0.034040945215     0.003588032415    12.000000000000
         C            1.987459585569     0.012844945215     0.003412032415    12.000000000000
         H            0.812165285569    -1.746896854785    -0.245728967585     1.007825032230
         H            2.957774585569    -0.482230054785     0.003746032415     1.007825032230
         H            1.962894585569     1.098646945215     0.002836032415     1.007825032230

  Basis Set: AUG-CC-PVTZ
    Blend: AUG-CC-PVTZ
  Basis Set: (AUG-CC-PVTZ AUX)
    Blend: AUG-CC-PVTZ-JKFIT
	 Reference Energy          =    -265.1830732488560898 [Eh]
	 Singles Energy            =      -0.0000000000000000 [Eh]
	 Same-Spin Energy          =      -0.2626965969558960 [Eh]
	 Opposite-Spin Energy      =      -0.7974473021320492 [Eh]
	 Correlation Energy        =      -1.0601438990879450 [Eh]
	 Total Energy              =    -266.2432171479440512 [Eh]

	 ================> DF-SCS-MP2 Energies <==================
	-----------------------------------------------------------
	 SCS Same-Spin Scale       =       0.3333333333333333 [-]
	 SCS Opposite-Spin Scale   =       1.2000000000000000 [-]
	 SCS Same-Spin Energy      =      -0.0875655323186320 [Eh]
	 SCS Opposite-Spin Energy  =      -0.9569367625584589 [Eh]
	 SCS Correlation Energy    =      -1.0445022948770910 [Eh]
	 SCS Total Energy          =    -266.2275755437331668 [Eh]
	-----------------------------------------------------------

  Dipole Moment: [D]
     X:     4.3309      Y:    -1.2472      Z:    -0.1643     Total:     4.5099

*** Psi4 exiting successfully. Buy a developer a beer!
