                               Psi4 1.3.2 release

  ==> Input File <==

--------------------------------------------------------------------------
#psi4
#
memory 32 gb

molecule  {
-1 1
  O       -1.6021720    -0.7553910    -0.0001730
  O       -0.6117130     1.3130740     0.0001440
  C        0.7486200    -0.6398630     0.0001060
  C       -0.6246240     0.0491590     0.0000370
  C        1.9107360     0.0279630    -0.0001390
  H        0.7354490    -1.7317349    -0.1492800
  H        2.8810510    -0.4671120     0.0001950
  H        1.8861710     1.1137650    -0.0007150
units angstrom
no_reorient  #important for SAPT in psi4, default
symmetry c1  #important for SAPT in psi4, default
}

set PROPERTIES_ORIGIN ["COM"]
properties('MP2/aug-cc-pvtz', properties = ['dipole'])
--------------------------------------------------------------------------

    Molecular point group: c1
  Charge       = -1
  Multiplicity = 1
  Basis Set: AUG-CC-PVTZ
    Blend: AUG-CC-PVTZ
  Basis Set: (AUG-CC-PVTZ AUX)
    Blend: AUG-CC-PVTZ-JKFIT

    Orbital Energies [Eh]
    ---------------------

    Doubly Occupied:

       1A    -20.299871     2A    -20.296405     3A    -11.145846
       4A    -11.077534     5A    -11.075128     6A     -1.166046
       7A     -1.069301     8A     -0.878100     9A     -0.659770
      10A     -0.527050    11A     -0.470855    12A     -0.441121
      13A     -0.391933    14A     -0.365040    15A     -0.356497
      16A     -0.217037    17A     -0.213390    18A     -0.207541
      19A     -0.196206

  @DF-RHF Final Energy:  -265.18586920263687

   => Energetics <=

    Nuclear Repulsion Energy =            151.6262135693002904
    One-Electron Energy =                -671.5148245192648346
    Two-Electron Energy =                 254.7027417473277069
    Total Energy =                       -265.1858692026368658
  Basis Set: (AUG-CC-PVTZ AUX)
    Blend: AUG-CC-PVTZ-RI
    Molecular point group: c1

    Geometry (in Angstrom), charge = -1, multiplicity = 1:

       Center              X                  Y                   Z               Mass
    ------------   -----------------  -----------------  -----------------  -----------------
         O           -1.525448518033    -0.770509677817     0.001958826476    15.994914619570
         O           -0.534989518033     1.297955322183     0.002275826476    15.994914619570
         C            0.825343481967    -0.654981677817     0.002237826476    12.000000000000
         C           -0.547900518033     0.034040322183     0.002168826476    12.000000000000
         C            1.987459481967     0.012844322183     0.001992826476    12.000000000000
         H            0.812172481967    -1.746853577817    -0.147148173524     1.007825032230
         H            2.957774481967    -0.482230677817     0.002326826476     1.007825032230
         H            1.962894481967     1.098646322183     0.001416826476     1.007825032230

  Basis Set: AUG-CC-PVTZ
    Blend: AUG-CC-PVTZ
  Basis Set: (AUG-CC-PVTZ AUX)
    Blend: AUG-CC-PVTZ-JKFIT
	 Reference Energy          =    -265.1858692026368658 [Eh]
	 Singles Energy            =      -0.0000000000000000 [Eh]
	 Same-Spin Energy          =      -0.2625756695981233 [Eh]
	 Opposite-Spin Energy      =      -0.7971300584662144 [Eh]
	 Correlation Energy        =      -1.0597057280643378 [Eh]
	 Total Energy              =    -266.2455749307011956 [Eh]

	 ================> DF-SCS-MP2 Energies <==================
	-----------------------------------------------------------
	 SCS Same-Spin Scale       =       0.3333333333333333 [-]
	 SCS Opposite-Spin Scale   =       1.2000000000000000 [-]
	 SCS Same-Spin Energy      =      -0.0875252231993744 [Eh]
	 SCS Opposite-Spin Energy  =      -0.9565560701594573 [Eh]
	 SCS Correlation Energy    =      -1.0440812933588317 [Eh]
	 SCS Total Energy          =    -266.2299504959956948 [Eh]
	-----------------------------------------------------------

  Dipole Moment: [D]
     X:     4.3322      Y:    -1.2786      Z:    -0.1003     Total:     4.5180

*** Psi4 exiting successfully. Buy a developer a beer!
