                               Psi4 1.3.2 release

  ==> Input File <==

--------------------------------------------------------------------------
#psi4
#
memory 32 gb

molecule  {
-1 1
  O       -1.6021720    -0.7553910    -0.0001730
  O       -0.6117130     1.3130740     0.0001440
  C        0.7486257    -0.6398581    -0.0498940
  C       -0.6246240     0.0491590     0.0000370
  C        1.9107360     0.0279630    -0.0001390
  H        0.7354600    -1.7316690     0.0007200
  H        2.8810510    -0.4671120     0.0001950
  H        1.8861710     1.1137650    -0.0007150
units angstrom
no_reorient  #important for SAPT in psi4, default
symmetry c1  #important for SAPT in psi4, default
}

set PROPERTIES_ORIGIN ["COM"]
properties('MP2/aug-cc-pvtz', properties = ['dipole'])
--------------------------------------------------------------------------

    Molecular point group: c1
  Charge       = -1
  Multiplicity = 1
  Basis Set: AUG-CC-PVTZ
    Blend: AUG-CC-PVTZ
  Basis Set: (AUG-CC-PVTZ AUX)
    Blend: AUG-CC-PVTZ-JKFIT

    Orbital Energies [Eh]
    ---------------------

    Doubly Occupied:

       1A    -20.299895     2A    -20.296291     3A    -11.145865
       4A    -11.077432     5A    -11.074295     6A     -1.165982
       7A     -1.069257     8A     -0.878021     9A     -0.660081
      10A     -0.527956    11A     -0.471027    12A     -0.441028
      13A     -0.391864    14A     -0.362907    15A     -0.359317
      16A     -0.216361    17A     -0.212245    18A     -0.209294
      19A     -0.196214

  @DF-RHF Final Energy:  -265.18662401316863

   => Energetics <=

    Nuclear Repulsion Energy =            151.6399220989403887
    One-Electron Energy =                -671.5424320250402843
    Two-Electron Energy =                 254.7158859129312702
    Total Energy =                       -265.1866240131686254
  Basis Set: (AUG-CC-PVTZ AUX)
    Blend: AUG-CC-PVTZ-RI
    Molecular point group: c1

    Geometry (in Angstrom), charge = -1, multiplicity = 1:

       Center              X                  Y                   Z               Mass
    ------------   -----------------  -----------------  -----------------  -----------------
         O           -1.525449637346    -0.770511441087     0.008279138555    15.994914619570
         O           -0.534990637346     1.297953558913     0.008596138555    15.994914619570
         C            0.825348062654    -0.654978541087    -0.041441861445    12.000000000000
         C           -0.547901637346     0.034038558913     0.008489138555    12.000000000000
         C            1.987458362654     0.012842558913     0.008313138555    12.000000000000
         H            0.812182362654    -1.746789441087     0.009172138555     1.007825032230
         H            2.957773362654    -0.482232441087     0.008647138555     1.007825032230
         H            1.962893362654     1.098644558913     0.007737138555     1.007825032230

  Basis Set: AUG-CC-PVTZ
    Blend: AUG-CC-PVTZ
  Basis Set: (AUG-CC-PVTZ AUX)
    Blend: AUG-CC-PVTZ-JKFIT
	 Reference Energy          =    -265.1866240131686254 [Eh]
	 Singles Energy            =      -0.0000000000000000 [Eh]
	 Same-Spin Energy          =      -0.2625486395623330 [Eh]
	 Opposite-Spin Energy      =      -0.7970614834048878 [Eh]
	 Correlation Energy        =      -1.0596101229672208 [Eh]
	 Total Energy              =    -266.2462341361358540 [Eh]

	 ================> DF-SCS-MP2 Energies <==================
	-----------------------------------------------------------
	 SCS Same-Spin Scale       =       0.3333333333333333 [-]
	 SCS Opposite-Spin Scale   =       1.2000000000000000 [-]
	 SCS Same-Spin Energy      =      -0.0875162131874443 [Eh]
	 SCS Opposite-Spin Energy  =      -0.9564737800858654 [Eh]
	 SCS Correlation Energy    =      -1.0439899932733097 [Eh]
	 SCS Total Energy          =    -266.2306140064419537 [Eh]
	-----------------------------------------------------------

  Dipole Moment: [D]
     X:     4.3329      Y:    -1.2919      Z:    -0.0067     Total:     4.5214

*** Psi4 exiting successfully. Buy a developer a beer!
