                               Psi4 1.3.2 release

  ==> Input File <==

--------------------------------------------------------------------------
#psi4
#
memory 32 gb

molecule  {
-1 1
  O       -1.6021720    -0.7553910    -0.0001730
  O       -0.6117130     1.3130740     0.0001440
  C        0.7486200    -0.6398630     0.0001060
  C       -0.6246240     0.0491590     0.0000370
  C        1.9107360     0.0279630    -0.0001390
  H        0.7354563    -1.7316910    -0.0492800
  H        2.8810510    -0.4671120     0.0001950
  H        1.8861710     1.1137650    -0.0007150
units angstrom
no_reorient  #important for SAPT in psi4, default
symmetry c1  #important for SAPT in psi4, default
}

set PROPERTIES_ORIGIN ["COM"]
properties('MP2/aug-cc-pvtz', properties = ['dipole'])
--------------------------------------------------------------------------

    Molecular point group: c1
  Charge       = -1
  Multiplicity = 1
  Basis Set: AUG-CC-PVTZ
    Blend: AUG-CC-PVTZ
  Basis Set: (AUG-CC-PVTZ AUX)
    Blend: AUG-CC-PVTZ-JKFIT

    Orbital Energies [Eh]
    ---------------------

    Doubly Occupied:

       1A    -20.299883     2A    -20.296284     3A    -11.145771
       4A    -11.077146     5A    -11.074194     6A     -1.166000
       7A     -1.069258     8A     -0.878211     9A     -0.660173
      10A     -0.528117    11A     -0.471099    12A     -0.441223
      13A     -0.391865    14A     -0.363111    15A     -0.359238
      16A     -0.216422    17A     -0.212477    18A     -0.209190
      19A     -0.196206

  @DF-RHF Final Energy:  -265.18717038946494

   => Energetics <=

    Nuclear Repulsion Energy =            151.6606008791408442
    One-Electron Energy =                -671.5838036254552890
    Two-Electron Energy =                 254.7360323568495346
    Total Energy =                       -265.1871703894649386
  Basis Set: (AUG-CC-PVTZ AUX)
    Blend: AUG-CC-PVTZ-RI
    Molecular point group: c1

    Geometry (in Angstrom), charge = -1, multiplicity = 1:

       Center              X                  Y                   Z               Mass
    ------------   -----------------  -----------------  -----------------  -----------------
         O           -1.525448621635    -0.770510300848     0.000539620538    15.994914619570
         O           -0.534989621635     1.297954699152     0.000856620538    15.994914619570
         C            0.825343378365    -0.654982300848     0.000818620538    12.000000000000
         C           -0.547900621635     0.034039699152     0.000749620538    12.000000000000
         C            1.987459378365     0.012843699152     0.000573620538    12.000000000000
         H            0.812179678365    -1.746810300848    -0.048567379462     1.007825032230
         H            2.957774378365    -0.482231300848     0.000907620538     1.007825032230
         H            1.962894378365     1.098645699152    -0.000002379462     1.007825032230

  Basis Set: AUG-CC-PVTZ
    Blend: AUG-CC-PVTZ
  Basis Set: (AUG-CC-PVTZ AUX)
    Blend: AUG-CC-PVTZ-JKFIT
	 Reference Energy          =    -265.1871703894649386 [Eh]
	 Singles Energy            =      -0.0000000000000000 [Eh]
	 Same-Spin Energy          =      -0.2625138934672575 [Eh]
	 Opposite-Spin Energy      =      -0.7969801792002448 [Eh]
	 Correlation Energy        =      -1.0594940726675022 [Eh]
	 Total Energy              =    -266.2466644621324576 [Eh]

	 ================> DF-SCS-MP2 Energies <==================
	-----------------------------------------------------------
	 SCS Same-Spin Scale       =       0.3333333333333333 [-]
	 SCS Opposite-Spin Scale   =       1.2000000000000000 [-]
	 SCS Same-Spin Energy      =      -0.0875046311557525 [Eh]
	 SCS Opposite-Spin Energy  =      -0.9563762150402937 [Eh]
	 SCS Correlation Energy    =      -1.0438808461960463 [Eh]
	 SCS Total Energy          =    -266.2310512356609706 [Eh]
	-----------------------------------------------------------

  Dipole Moment: [D]
     X:     4.3328      Y:    -1.2944      Z:    -0.0335     Total:     4.5221

*** Psi4 exiting successfully. Buy a developer a beer!
