                               Psi4 1.3.2 release

  ==> Input File <==

--------------------------------------------------------------------------
#psi4
#
memory 32 gb

molecule  {
-1 1
  O       -1.6021720    -0.7553910    -0.0001730
  O       -0.6117130     1.3130740     0.0001440
  C        0.7486200    -0.6398630     0.0001060
  C       -0.6246240     0.0491590     0.0000370
  C        1.9107360     0.0279630    -0.0001390
  H        0.7354381    -1.7318008    -0.2992800
  H        2.8810510    -0.4671120     0.0001950
  H        1.8861710     1.1137650    -0.0007150
units angstrom
no_reorient  #important for SAPT in psi4, default
symmetry c1  #important for SAPT in psi4, default
}

set PROPERTIES_ORIGIN ["COM"]
properties('MP2/aug-cc-pvtz', properties = ['dipole'])
--------------------------------------------------------------------------

    Molecular point group: c1
  Charge       = -1
  Multiplicity = 1
  Basis Set: AUG-CC-PVTZ
    Blend: AUG-CC-PVTZ
  Basis Set: (AUG-CC-PVTZ AUX)
    Blend: AUG-CC-PVTZ-JKFIT

    Orbital Energies [Eh]
    ---------------------

    Doubly Occupied:

       1A    -20.299839     2A    -20.296819     3A    -11.146122
       4A    -11.079388     5A    -11.077647     6A     -1.166214
       7A     -1.069458     8A     -0.877803     9A     -0.658592
      10A     -0.523830    11A     -0.470058    12A     -0.440754
      13A     -0.392169    14A     -0.367668    15A     -0.351048
      16A     -0.219007    17A     -0.214195    18A     -0.204474
      19A     -0.196172

  @DF-RHF Final Energy:  -265.18102205215462

   => Energetics <=

    Nuclear Repulsion Energy =            151.5146769813578089
    One-Electron Energy =                -671.2888861220526451
    Two-Electron Energy =                 254.5931870885402759
    Total Energy =                       -265.1810220521546171
  Basis Set: (AUG-CC-PVTZ AUX)
    Blend: AUG-CC-PVTZ-RI
    Molecular point group: c1

    Geometry (in Angstrom), charge = -1, multiplicity = 1:

       Center              X                  Y                   Z               Mass
    ------------   -----------------  -----------------  -----------------  -----------------
         O           -1.525448363340    -0.770508742560     0.004087635384    15.994914619570
         O           -0.534989363340     1.297956257440     0.004404635384    15.994914619570
         C            0.825343636660    -0.654980742560     0.004366635384    12.000000000000
         C           -0.547900363340     0.034041257440     0.004297635384    12.000000000000
         C            1.987459636660     0.012845257440     0.004121635384    12.000000000000
         H            0.812161736660    -1.746918542560    -0.295019364616     1.007825032230
         H            2.957774636660    -0.482229742560     0.004455635384     1.007825032230
         H            1.962894636660     1.098647257440     0.003545635384     1.007825032230

  Basis Set: AUG-CC-PVTZ
    Blend: AUG-CC-PVTZ
  Basis Set: (AUG-CC-PVTZ AUX)
    Blend: AUG-CC-PVTZ-JKFIT
	 Reference Energy          =    -265.1810220521546171 [Eh]
	 Singles Energy            =      -0.0000000000000000 [Eh]
	 Same-Spin Energy          =      -0.2627778371458304 [Eh]
	 Opposite-Spin Energy      =      -0.7976727882667612 [Eh]
	 Correlation Energy        =      -1.0604506254125916 [Eh]
	 Total Energy              =    -266.2414726775672307 [Eh]

	 ================> DF-SCS-MP2 Energies <==================
	-----------------------------------------------------------
	 SCS Same-Spin Scale       =       0.3333333333333333 [-]
	 SCS Opposite-Spin Scale   =       1.2000000000000000 [-]
	 SCS Same-Spin Energy      =      -0.0875926123819434 [Eh]
	 SCS Opposite-Spin Energy  =      -0.9572073459201135 [Eh]
	 SCS Correlation Energy    =      -1.0447999583020569 [Eh]
	 SCS Total Energy          =    -266.2258220104566817 [Eh]
	-----------------------------------------------------------

  Dipole Moment: [D]
     X:     4.3298      Y:    -1.2258      Z:    -0.1947     Total:     4.5042

*** Psi4 exiting successfully. Buy a developer a beer!
