                               Psi4 1.3.2 release

  ==> Input File <==

--------------------------------------------------------------------------
#psi4
#
memory 32 gb

molecule  {
-1 1
  O       -1.6021720    -0.7553910    -0.0001730
  O       -0.6117130     1.3130740     0.0001440
  C        0.7486314    -0.6398531    -0.0998940
  C       -0.6246240     0.0491590     0.0000370
  C        1.9107360     0.0279630    -0.0001390
  H        0.7354600    -1.7316690     0.0007200
  H        2.8810510    -0.4671120     0.0001950
  H        1.8861710     1.1137650    -0.0007150
units angstrom
no_reorient  #important for SAPT in psi4, default
symmetry c1  #important for SAPT in psi4, default
}

set PROPERTIES_ORIGIN ["COM"]
properties('MP2/aug-cc-pvtz', properties = ['dipole'])
--------------------------------------------------------------------------

    Molecular point group: c1
  Charge       = -1
  Multiplicity = 1
  Basis Set: AUG-CC-PVTZ
    Blend: AUG-CC-PVTZ
  Basis Set: (AUG-CC-PVTZ AUX)
    Blend: AUG-CC-PVTZ-JKFIT

    Orbital Energies [Eh]
    ---------------------

    Doubly Occupied:

       1A    -20.299928     2A    -20.296356     3A    -11.146172
       4A    -11.078433     5A    -11.074945     6A     -1.165946
       7A     -1.069272     8A     -0.877398     9A     -0.659660
      10A     -0.527088    11A     -0.470727    12A     -0.440400
      13A     -0.391888    14A     -0.363418    15A     -0.358142
      16A     -0.216382    17A     -0.212196    18A     -0.208701
      19A     -0.196241

  @DF-RHF Final Energy:  -265.18451535145931

   => Energetics <=

    Nuclear Repulsion Energy =            151.5649560904950306
    One-Electron Energy =                -671.3923554739200199
    Two-Electron Energy =                 254.6428840319657070
    Total Energy =                       -265.1845153514593108
  Basis Set: (AUG-CC-PVTZ AUX)
    Blend: AUG-CC-PVTZ-RI
    Molecular point group: c1

    Geometry (in Angstrom), charge = -1, multiplicity = 1:

       Center              X                  Y                   Z               Mass
    ------------   -----------------  -----------------  -----------------  -----------------
         O           -1.525450600545    -0.770512285999     0.016728259542    15.994914619570
         O           -0.534991600545     1.297952714001     0.017045259542    15.994914619570
         C            0.825352799455    -0.654974385999    -0.082992740458    12.000000000000
         C           -0.547902600545     0.034037714001     0.016938259542    12.000000000000
         C            1.987457399455     0.012841714001     0.016762259542    12.000000000000
         H            0.812181399455    -1.746790285999     0.017621259542     1.007825032230
         H            2.957772399455    -0.482233285999     0.017096259542     1.007825032230
         H            1.962892399455     1.098643714001     0.016186259542     1.007825032230

  Basis Set: AUG-CC-PVTZ
    Blend: AUG-CC-PVTZ
  Basis Set: (AUG-CC-PVTZ AUX)
    Blend: AUG-CC-PVTZ-JKFIT
	 Reference Energy          =    -265.1845153514593108 [Eh]
	 Singles Energy            =      -0.0000000000000000 [Eh]
	 Same-Spin Energy          =      -0.2626753243697225 [Eh]
	 Opposite-Spin Energy      =      -0.7973803171306281 [Eh]
	 Correlation Energy        =      -1.0600556415003506 [Eh]
	 Total Energy              =    -266.2445709929596660 [Eh]

	 ================> DF-SCS-MP2 Energies <==================
	-----------------------------------------------------------
	 SCS Same-Spin Scale       =       0.3333333333333333 [-]
	 SCS Opposite-Spin Scale   =       1.2000000000000000 [-]
	 SCS Same-Spin Energy      =      -0.0875584414565742 [Eh]
	 SCS Opposite-Spin Energy  =      -0.9568563805567536 [Eh]
	 SCS Correlation Energy    =      -1.0444148220133278 [Eh]
	 SCS Total Energy          =    -266.2289301734726337 [Eh]
	-----------------------------------------------------------

  Dipole Moment: [D]
     X:     4.3327      Y:    -1.2787      Z:    -0.0129     Total:     4.5175

*** Psi4 exiting successfully. Buy a developer a beer!
