                               Psi4 1.3.2 release

  ==> Input File <==

--------------------------------------------------------------------------
#psi4
#
memory 32 gb

molecule  {
-1 1
  O       -1.6021720    -0.7553910    -0.0001730
  O       -0.6117130     1.3130740     0.0001440
  C        0.7486428    -0.6398433    -0.1998940
  C       -0.6246240     0.0491590     0.0000370
  C        1.9107360     0.0279630    -0.0001390
  H        0.7354600    -1.7316690     0.0007200
  H        2.8810510    -0.4671120     0.0001950
  H        1.8861710     1.1137650    -0.0007150
units angstrom
no_reorient  #important for SAPT in psi4, default
symmetry c1  #important for SAPT in psi4, default
}

set PROPERTIES_ORIGIN ["COM"]
properties('MP2/aug-cc-pvtz', properties = ['dipole'])
--------------------------------------------------------------------------

    Molecular point group: c1
  Charge       = -1
  Multiplicity = 1
  Basis Set: AUG-CC-PVTZ
    Blend: AUG-CC-PVTZ
  Basis Set: (AUG-CC-PVTZ AUX)
    Blend: AUG-CC-PVTZ-JKFIT

    Orbital Energies [Eh]
    ---------------------

    Doubly Occupied:

       1A    -20.300100     2A    -20.296655     3A    -11.147391
       4A    -11.082435     5A    -11.077430     6A     -1.165835
       7A     -1.069362     8A     -0.874903     9A     -0.658067
      10A     -0.523826    11A     -0.469722    12A     -0.437830
      13A     -0.391997    14A     -0.364181    15A     -0.354669
      16A     -0.216474    17A     -0.211901    18A     -0.206511
      19A     -0.196371

  @DF-RHF Final Energy:  -265.17601166150951

   => Energetics <=

    Nuclear Repulsion Energy =            151.2687940239737259
    One-Electron Energy =                -670.7982935927290100
    Two-Electron Energy =                 254.3534879072456931
    Total Energy =                       -265.1760116615095058
  Basis Set: (AUG-CC-PVTZ AUX)
    Blend: AUG-CC-PVTZ-RI
    Molecular point group: c1

    Geometry (in Angstrom), charge = -1, multiplicity = 1:

       Center              X                  Y                   Z               Mass
    ------------   -----------------  -----------------  -----------------  -----------------
         O           -1.525452526945    -0.770513942027     0.033626501515    15.994914619570
         O           -0.534993526945     1.297951057973     0.033943501515    15.994914619570
         C            0.825362273055    -0.654966242027    -0.166094498485    12.000000000000
         C           -0.547904526945     0.034036057973     0.033836501515    12.000000000000
         C            1.987455473055     0.012840057973     0.033660501515    12.000000000000
         H            0.812179473055    -1.746791942027     0.034519501515     1.007825032230
         H            2.957770473055    -0.482234942027     0.033994501515     1.007825032230
         H            1.962890473055     1.098642057973     0.033084501515     1.007825032230

  Basis Set: AUG-CC-PVTZ
    Blend: AUG-CC-PVTZ
  Basis Set: (AUG-CC-PVTZ AUX)
    Blend: AUG-CC-PVTZ-JKFIT
	 Reference Energy          =    -265.1760116615095058 [Eh]
	 Singles Energy            =      -0.0000000000000000 [Eh]
	 Same-Spin Energy          =      -0.2631794180671257 [Eh]
	 Opposite-Spin Energy      =      -0.7987428267441705 [Eh]
	 Correlation Energy        =      -1.0619222448112962 [Eh]
	 Total Energy              =    -266.2379339063207908 [Eh]

	 ================> DF-SCS-MP2 Energies <==================
	-----------------------------------------------------------
	 SCS Same-Spin Scale       =       0.3333333333333333 [-]
	 SCS Opposite-Spin Scale   =       1.2000000000000000 [-]
	 SCS Same-Spin Energy      =      -0.0877264726890419 [Eh]
	 SCS Opposite-Spin Energy  =      -0.9584913920930046 [Eh]
	 SCS Correlation Energy    =      -1.0462178647820466 [Eh]
	 SCS Total Energy          =    -266.2222295262915281 [Eh]
	-----------------------------------------------------------

  Dipole Moment: [D]
     X:     4.3291      Y:    -1.2276      Z:    -0.0196     Total:     4.4998

*** Psi4 exiting successfully. Buy a developer a beer!
