                               Psi4 1.3.2 release

  ==> Input File <==

--------------------------------------------------------------------------
#psi4
#
memory 32 gb

molecule  {
-1 1
  O       -1.6021720    -0.7553910    -0.0001730
  O       -0.6117130     1.3130740     0.0001440
  C        0.7486200    -0.6398630     0.0001060
  C       -0.6246240     0.0491590     0.0000370
  C        1.9107360     0.0279630    -0.0001390
  H        0.7354527    -1.7317129    -0.0992800
  H        2.8810510    -0.4671120     0.0001950
  H        1.8861710     1.1137650    -0.0007150
units angstrom
no_reorient  #important for SAPT in psi4, default
symmetry c1  #important for SAPT in psi4, default
}

set PROPERTIES_ORIGIN ["COM"]
properties('MP2/aug-cc-pvtz', properties = ['dipole'])
--------------------------------------------------------------------------

    Molecular point group: c1
  Charge       = -1
  Multiplicity = 1
  Basis Set: AUG-CC-PVTZ
    Blend: AUG-CC-PVTZ
  Basis Set: (AUG-CC-PVTZ AUX)
    Blend: AUG-CC-PVTZ-JKFIT

    Orbital Energies [Eh]
    ---------------------

    Doubly Occupied:

       1A    -20.299878     2A    -20.296329     3A    -11.145799
       4A    -11.077287     5A    -11.074549     6A     -1.166017
       7A     -1.069274     8A     -0.878168     9A     -0.660019
      10A     -0.527710    11A     -0.471007    12A     -0.441185
      13A     -0.391890    14A     -0.364049    15A     -0.357997
      16A     -0.216647    17A     -0.212938    18A     -0.208458
      19A     -0.196206

  @DF-RHF Final Energy:  -265.18669081918495

   => Energetics <=

    Nuclear Repulsion Energy =            151.6476342933745514
    One-Electron Energy =                -671.5578323405950414
    Two-Electron Energy =                 254.7235072280355723
    Total Energy =                       -265.1866908191849461
  Basis Set: (AUG-CC-PVTZ AUX)
    Blend: AUG-CC-PVTZ-RI
    Molecular point group: c1

    Geometry (in Angstrom), charge = -1, multiplicity = 1:

       Center              X                  Y                   Z               Mass
    ------------   -----------------  -----------------  -----------------  -----------------
         O           -1.525448570544    -0.770509990042     0.001249223507    15.994914619570
         O           -0.534989570544     1.297955009958     0.001566223507    15.994914619570
         C            0.825343429456    -0.654981990042     0.001528223507    12.000000000000
         C           -0.547900570544     0.034040009958     0.001459223507    12.000000000000
         C            1.987459429456     0.012844009958     0.001283223507    12.000000000000
         H            0.812176129456    -1.746831890042    -0.097857776493     1.007825032230
         H            2.957774429456    -0.482230990042     0.001617223507     1.007825032230
         H            1.962894429456     1.098646009958     0.000707223507     1.007825032230

  Basis Set: AUG-CC-PVTZ
    Blend: AUG-CC-PVTZ
  Basis Set: (AUG-CC-PVTZ AUX)
    Blend: AUG-CC-PVTZ-JKFIT
	 Reference Energy          =    -265.1866908191849461 [Eh]
	 Singles Energy            =      -0.0000000000000000 [Eh]
	 Same-Spin Energy          =      -0.2625371619216221 [Eh]
	 Opposite-Spin Energy      =      -0.7970353448978464 [Eh]
	 Correlation Energy        =      -1.0595725068194686 [Eh]
	 Total Energy              =    -266.2462633260043958 [Eh]

	 ================> DF-SCS-MP2 Energies <==================
	-----------------------------------------------------------
	 SCS Same-Spin Scale       =       0.3333333333333333 [-]
	 SCS Opposite-Spin Scale   =       1.2000000000000000 [-]
	 SCS Same-Spin Energy      =      -0.0875123873072074 [Eh]
	 SCS Opposite-Spin Energy  =      -0.9564424138774157 [Eh]
	 SCS Correlation Energy    =      -1.0439548011846231 [Eh]
	 SCS Total Energy          =    -266.2306456203695575 [Eh]
	-----------------------------------------------------------

  Dipole Moment: [D]
     X:     4.3326      Y:    -1.2885      Z:    -0.0671     Total:     4.5206

*** Psi4 exiting successfully. Buy a developer a beer!
