                               Psi4 1.3.2 release

  ==> Input File <==

--------------------------------------------------------------------------
#psi4
#
memory 32 gb

molecule  {
-1 1
  O       -1.6021720    -0.7553910    -0.0001730
  O       -0.6117130     1.3130740     0.0001440
  C        0.7486200    -0.6398630     0.0001060
  C       -0.6246240     0.0491590     0.0000370
  C        1.9107360     0.0279630    -0.0001390
  H        0.7354454    -1.7317569    -0.1992800
  H        2.8810510    -0.4671120     0.0001950
  H        1.8861710     1.1137650    -0.0007150
units angstrom
no_reorient  #important for SAPT in psi4, default
symmetry c1  #important for SAPT in psi4, default
}

set PROPERTIES_ORIGIN ["COM"]
properties('MP2/aug-cc-pvtz', properties = ['dipole'])
--------------------------------------------------------------------------

    Molecular point group: c1
  Charge       = -1
  Multiplicity = 1
  Basis Set: AUG-CC-PVTZ
    Blend: AUG-CC-PVTZ
  Basis Set: (AUG-CC-PVTZ AUX)
    Blend: AUG-CC-PVTZ-JKFIT

    Orbital Energies [Eh]
    ---------------------

    Doubly Occupied:

       1A    -20.299861     2A    -20.296511     3A    -11.145915
       4A    -11.077912     5A    -11.075898     6A     -1.166088
       7A     -1.069340     8A     -0.878011     9A     -0.659439
      10A     -0.526159    11A     -0.470644    12A     -0.441029
      13A     -0.391993    14A     -0.365988    15A     -0.354828
      16A     -0.217585    17A     -0.213747    18A     -0.206544
      19A     -0.196202

  @DF-RHF Final Energy:  -265.18467565914295

   => Energetics <=

    Nuclear Repulsion Energy =            151.5966358107288556
    One-Electron Energy =                -671.4552328041713736
    Two-Electron Energy =                 254.6739213342995072
    Total Energy =                       -265.1846756591429539
  Basis Set: (AUG-CC-PVTZ AUX)
    Blend: AUG-CC-PVTZ-RI
    Molecular point group: c1

    Geometry (in Angstrom), charge = -1, multiplicity = 1:

       Center              X                  Y                   Z               Mass
    ------------   -----------------  -----------------  -----------------  -----------------
         O           -1.525448466942    -0.770509365591     0.002668429446    15.994914619570
         O           -0.534989466942     1.297955634409     0.002985429446    15.994914619570
         C            0.825343533058    -0.654981365591     0.002947429446    12.000000000000
         C           -0.547900466942     0.034040634409     0.002878429446    12.000000000000
         C            1.987459533058     0.012844634409     0.002702429446    12.000000000000
         H            0.812168933058    -1.746875265591    -0.196438570554     1.007825032230
         H            2.957774533058    -0.482230365591     0.003036429446     1.007825032230
         H            1.962894533058     1.098646634409     0.002126429446     1.007825032230

  Basis Set: AUG-CC-PVTZ
    Blend: AUG-CC-PVTZ
  Basis Set: (AUG-CC-PVTZ AUX)
    Blend: AUG-CC-PVTZ-JKFIT
	 Reference Energy          =    -265.1846756591429539 [Eh]
	 Singles Energy            =      -0.0000000000000000 [Eh]
	 Same-Spin Energy          =      -0.2626289938539971 [Eh]
	 Opposite-Spin Energy      =      -0.7972667699048928 [Eh]
	 Correlation Energy        =      -1.0598957637588899 [Eh]
	 Total Energy              =    -266.2445714229018563 [Eh]

	 ================> DF-SCS-MP2 Energies <==================
	-----------------------------------------------------------
	 SCS Same-Spin Scale       =       0.3333333333333333 [-]
	 SCS Opposite-Spin Scale   =       1.2000000000000000 [-]
	 SCS Same-Spin Energy      =      -0.0875429979513324 [Eh]
	 SCS Opposite-Spin Energy  =      -0.9567201238858712 [Eh]
	 SCS Correlation Energy    =      -1.0442631218372036 [Eh]
	 SCS Total Energy          =    -266.2289387809801724 [Eh]
	-----------------------------------------------------------

  Dipole Moment: [D]
     X:     4.3316      Y:    -1.2648      Z:    -0.1328     Total:     4.5145

*** Psi4 exiting successfully. Buy a developer a beer!
