                               Psi4 1.3.2 release

  ==> Input File <==

--------------------------------------------------------------------------
#psi4
#
memory 32 gb

molecule  {
0 1
  O        1.7152690     0.3729450     0.0000090
  N        0.1712200    -1.3621090     0.0000060
  C       -0.5564040     0.9604300     0.0000000
  C        0.4232170    -0.0565940     0.0000060
  C       -1.8793030     0.5348530    -0.0000030
  C       -0.1474190     2.4036860    -0.0000010
  C       -2.1785860    -0.8336660    -0.0000030
  C       -1.1267010    -1.7380260     0.0000010
  C        2.7107190    -0.6607300    -0.0000090
  H       -2.6789950     1.2736560    -0.0000080
  H       -1.0269000     3.0530270    -0.0000180
  H        0.4613570     2.6342930     0.8791020
  H        0.4613860     2.6342840    -0.8790860
  H       -3.2063890    -1.1841980    -0.0000050
  H       -1.3049606    -2.8116019     0.1500010
  H        2.6194040    -1.2894460    -0.8881130
  H        2.6194520    -1.2894310     0.8881110
  H        3.6618180    -0.1291010    -0.0000380
units angstrom
no_reorient  #important for SAPT in psi4, default
symmetry c1  #important for SAPT in psi4, default
}

set PROPERTIES_ORIGIN ["COM"]
properties('MP2/aug-cc-pvtz', properties = ['dipole'])
--------------------------------------------------------------------------

    Molecular point group: c1
  Charge       = 0
  Multiplicity = 1
  Basis Set: AUG-CC-PVTZ
    Blend: AUG-CC-PVTZ
  Basis Set: (AUG-CC-PVTZ AUX)
    Blend: AUG-CC-PVTZ-JKFIT

    Orbital Energies [Eh]
    ---------------------

    Doubly Occupied:

       1A    -20.586945     2A    -15.559089     3A    -11.332250
       4A    -11.274804     5A    -11.274089     6A    -11.254439
       7A    -11.242074     8A    -11.230551     9A    -11.224490
      10A     -1.415453    11A     -1.244471    12A     -1.099779
      13A     -1.040150    14A     -0.955718    15A     -0.935095
      16A     -0.835570    17A     -0.824911    18A     -0.719013
      19A     -0.688443    20A     -0.653847    21A     -0.648180
      22A     -0.603644    23A     -0.588950    24A     -0.576660
      25A     -0.560042    26A     -0.547631    27A     -0.529882
      28A     -0.527395    29A     -0.501368    30A     -0.476392
      31A     -0.422666    32A     -0.376771    33A     -0.315270

  @DF-RHF Final Energy:  -399.76412173552177

   => Energetics <=

    Nuclear Repulsion Energy =            435.2777872405932271
    One-Electron Energy =               -1405.9517564067762123
    Two-Electron Energy =                 570.9098474306613298
    Total Energy =                       -399.7641217355217123
  Basis Set: (AUG-CC-PVTZ AUX)
    Blend: AUG-CC-PVTZ-RI
    Molecular point group: c1

    Geometry (in Angstrom), charge = 0, multiplicity = 1:

       Center              X                  Y                   Z               Mass
    ------------   -----------------  -----------------  -----------------  -----------------
         O            1.728284490024     0.396305548529    -0.001219904315    15.994914619570
         N            0.184235490024    -1.338748451471    -0.001222904315    14.003074004430
         C           -0.543388509976     0.983790548529    -0.001228904315    12.000000000000
         C            0.436232490024    -0.033233451471    -0.001222904315    12.000000000000
         C           -1.866287509976     0.558213548529    -0.001231904315    12.000000000000
         C           -0.134403509976     2.427046548529    -0.001229904315    12.000000000000
         C           -2.165570509976    -0.810305451471    -0.001231904315    12.000000000000
         C           -1.113685509976    -1.714665451471    -0.001227904315    12.000000000000
         C            2.723734490024    -0.637369451471    -0.001237904315    12.000000000000
         H           -2.665979509976     1.297016548529    -0.001236904315     1.007825032230
         H           -1.013884509976     3.076387548529    -0.001246904315     1.007825032230
         H            0.474372490024     2.657653548529     0.877873095685     1.007825032230
         H            0.474401490024     2.657644548529    -0.880314904315     1.007825032230
         H           -3.193373509976    -1.160837451471    -0.001233904315     1.007825032230
         H           -1.291945109976    -2.788241351471     0.148772095685     1.007825032230
         H            2.632419490024    -1.266085451471    -0.889341904315     1.007825032230
         H            2.632467490024    -1.266070451471     0.886882095685     1.007825032230
         H            3.674833490024    -0.105740451471    -0.001266904315     1.007825032230

  Basis Set: AUG-CC-PVTZ
    Blend: AUG-CC-PVTZ
  Basis Set: (AUG-CC-PVTZ AUX)
    Blend: AUG-CC-PVTZ-JKFIT
	 Reference Energy          =    -399.7641217355217691 [Eh]
	 Singles Energy            =      -0.0000000000000000 [Eh]
	 Same-Spin Energy          =      -0.4238640495390501 [Eh]
	 Opposite-Spin Energy      =      -1.3368544353482750 [Eh]
	 Correlation Energy        =      -1.7607184848873252 [Eh]
	 Total Energy              =    -401.5248402204090894 [Eh]

	 ================> DF-SCS-MP2 Energies <==================
	-----------------------------------------------------------
	 SCS Same-Spin Scale       =       0.3333333333333333 [-]
	 SCS Opposite-Spin Scale   =       1.2000000000000000 [-]
	 SCS Same-Spin Energy      =      -0.1412880165130167 [Eh]
	 SCS Opposite-Spin Energy  =      -1.6042253224179299 [Eh]
	 SCS Correlation Energy    =      -1.7455133389309467 [Eh]
	 SCS Total Energy          =    -401.5096350744527172 [Eh]
	-----------------------------------------------------------

  Dipole Moment: [D]
     X:    -0.5216      Y:     0.6734      Z:     0.0828     Total:     0.8558

*** Psi4 exiting successfully. Buy a developer a beer!
