                               Psi4 1.3.2 release

  ==> Input File <==

--------------------------------------------------------------------------
#psi4
#
memory 32 gb

molecule  {
0 1
  O        1.7152690     0.3729450     0.0000090
  N        0.1712200    -1.3621090     0.0000060
  C       -0.5564031     0.9604296    -0.2500000
  C        0.4232170    -0.0565940     0.0000060
  C       -1.8793030     0.5348530    -0.0000030
  C       -0.1474190     2.4036860    -0.0000010
  C       -2.1785860    -0.8336660    -0.0000030
  C       -1.1267010    -1.7380260     0.0000010
  C        2.7107190    -0.6607300    -0.0000090
  H       -2.6789950     1.2736560    -0.0000080
  H       -1.0269000     3.0530270    -0.0000180
  H        0.4613570     2.6342930     0.8791020
  H        0.4613860     2.6342840    -0.8790860
  H       -3.2063890    -1.1841980    -0.0000050
  H       -1.3049600    -2.8116020     0.0000010
  H        2.6194040    -1.2894460    -0.8881130
  H        2.6194520    -1.2894310     0.8881110
  H        3.6618180    -0.1291010    -0.0000380
units angstrom
no_reorient  #important for SAPT in psi4, default
symmetry c1  #important for SAPT in psi4, default
}

set PROPERTIES_ORIGIN ["COM"]
properties('MP2/aug-cc-pvtz', properties = ['dipole'])
--------------------------------------------------------------------------

    Molecular point group: c1
  Charge       = 0
  Multiplicity = 1
  Basis Set: AUG-CC-PVTZ
    Blend: AUG-CC-PVTZ
  Basis Set: (AUG-CC-PVTZ AUX)
    Blend: AUG-CC-PVTZ-JKFIT

    Orbital Energies [Eh]
    ---------------------

    Doubly Occupied:

       1A    -20.588259     2A    -15.558726     3A    -11.336909
       4A    -11.277565     5A    -11.274561     6A    -11.259376
       7A    -11.245444     8A    -11.230225     9A    -11.223825
      10A     -1.416307    11A     -1.244795    12A     -1.095113
      13A     -1.039207    14A     -0.953972    15A     -0.933614
      16A     -0.832695    17A     -0.823712    18A     -0.720598
      19A     -0.685872    20A     -0.655396    21A     -0.646670
      22A     -0.605996    23A     -0.589509    24A     -0.572810
      25A     -0.557250    26A     -0.545973    27A     -0.534240
      28A     -0.516704    29A     -0.497980    30A     -0.475746
      31A     -0.421167    32A     -0.374967    33A     -0.315855

  @DF-RHF Final Energy:  -399.74368077473196

   => Energetics <=

    Nuclear Repulsion Energy =            434.4929246897014536
    One-Electron Energy =               -1404.3711269392447321
    Two-Electron Energy =                 570.1345214748113222
    Total Energy =                       -399.7436807747319563
  Basis Set: (AUG-CC-PVTZ AUX)
    Blend: AUG-CC-PVTZ-RI
    Molecular point group: c1

    Geometry (in Angstrom), charge = 0, multiplicity = 1:

       Center              X                  Y                   Z               Mass
    ------------   -----------------  -----------------  -----------------  -----------------
         O            1.728284397354     0.396305588351     0.024385152698    15.994914619570
         N            0.184235397354    -1.338748411649     0.024382152698    14.003074004430
         C           -0.543387702646     0.983790188351    -0.225623847302    12.000000000000
         C            0.436232397354    -0.033233411649     0.024382152698    12.000000000000
         C           -1.866287602646     0.558213588351     0.024373152698    12.000000000000
         C           -0.134403602646     2.427046588351     0.024375152698    12.000000000000
         C           -2.165570602646    -0.810305411649     0.024373152698    12.000000000000
         C           -1.113685602646    -1.714665411649     0.024377152698    12.000000000000
         C            2.723734397354    -0.637369411649     0.024367152698    12.000000000000
         H           -2.665979602646     1.297016588351     0.024368152698     1.007825032230
         H           -1.013884602646     3.076387588351     0.024358152698     1.007825032230
         H            0.474372397354     2.657653588351     0.903478152698     1.007825032230
         H            0.474401397354     2.657644588351    -0.854709847302     1.007825032230
         H           -3.193373602646    -1.160837411649     0.024371152698     1.007825032230
         H           -1.291944602646    -2.788241411649     0.024377152698     1.007825032230
         H            2.632419397354    -1.266085411649    -0.863736847302     1.007825032230
         H            2.632467397354    -1.266070411649     0.912487152698     1.007825032230
         H            3.674833397354    -0.105740411649     0.024338152698     1.007825032230

  Basis Set: AUG-CC-PVTZ
    Blend: AUG-CC-PVTZ
  Basis Set: (AUG-CC-PVTZ AUX)
    Blend: AUG-CC-PVTZ-JKFIT
	 Reference Energy          =    -399.7436807747319563 [Eh]
	 Singles Energy            =      -0.0000000000000000 [Eh]
	 Same-Spin Energy          =      -0.4243612867854566 [Eh]
	 Opposite-Spin Energy      =      -1.3387039465646913 [Eh]
	 Correlation Energy        =      -1.7630652333501478 [Eh]
	 Total Energy              =    -401.5067460080821320 [Eh]

	 ================> DF-SCS-MP2 Energies <==================
	-----------------------------------------------------------
	 SCS Same-Spin Scale       =       0.3333333333333333 [-]
	 SCS Opposite-Spin Scale   =       1.2000000000000000 [-]
	 SCS Same-Spin Energy      =      -0.1414537622618189 [Eh]
	 SCS Opposite-Spin Energy  =      -1.6064447358776295 [Eh]
	 SCS Correlation Energy    =      -1.7478984981394483 [Eh]
	 SCS Total Energy          =    -401.4915792728713768 [Eh]
	-----------------------------------------------------------

  Dipole Moment: [D]
     X:    -0.5258      Y:     0.5092      Z:     0.0669     Total:     0.7350

*** Psi4 exiting successfully. Buy a developer a beer!
