                               Psi4 1.3.2 release

  ==> Input File <==

--------------------------------------------------------------------------
#psi4
#
memory 32 gb

molecule  {
0 1
  O        1.7152690     0.3729450     0.0000090
  N        0.1712200    -1.3621090     0.0000060
  C       -0.5564035     0.9604298    -0.1500000
  C        0.4232170    -0.0565940     0.0000060
  C       -1.8793030     0.5348530    -0.0000030
  C       -0.1474190     2.4036860    -0.0000010
  C       -2.1785860    -0.8336660    -0.0000030
  C       -1.1267010    -1.7380260     0.0000010
  C        2.7107190    -0.6607300    -0.0000090
  H       -2.6789950     1.2736560    -0.0000080
  H       -1.0269000     3.0530270    -0.0000180
  H        0.4613570     2.6342930     0.8791020
  H        0.4613860     2.6342840    -0.8790860
  H       -3.2063890    -1.1841980    -0.0000050
  H       -1.3049600    -2.8116020     0.0000010
  H        2.6194040    -1.2894460    -0.8881130
  H        2.6194520    -1.2894310     0.8881110
  H        3.6618180    -0.1291010    -0.0000380
units angstrom
no_reorient  #important for SAPT in psi4, default
symmetry c1  #important for SAPT in psi4, default
}

set PROPERTIES_ORIGIN ["COM"]
properties('MP2/aug-cc-pvtz', properties = ['dipole'])
--------------------------------------------------------------------------

    Molecular point group: c1
  Charge       = 0
  Multiplicity = 1
  Basis Set: AUG-CC-PVTZ
    Blend: AUG-CC-PVTZ
  Basis Set: (AUG-CC-PVTZ AUX)
    Blend: AUG-CC-PVTZ-JKFIT

    Orbital Energies [Eh]
    ---------------------

    Doubly Occupied:

       1A    -20.587372     2A    -15.558860     3A    -11.333890
       4A    -11.275165     5A    -11.274228     6A    -11.256188
       7A    -11.243225     8A    -11.230279     9A    -11.224207
      10A     -1.415712    11A     -1.244525    12A     -1.097998
      13A     -1.039835    14A     -0.955007    15A     -0.934754
      16A     -0.834567    17A     -0.824549    18A     -0.720150
      19A     -0.687502    20A     -0.654441    21A     -0.647565
      22A     -0.604704    23A     -0.589781    24A     -0.575097
      25A     -0.558982    26A     -0.546925    27A     -0.532990
      28A     -0.521822    29A     -0.500510    30A     -0.476321
      31A     -0.422232    32A     -0.376062    33A     -0.315487

  @DF-RHF Final Energy:  -399.75773161596237

   => Energetics <=

    Nuclear Repulsion Energy =            435.0173360328280978
    One-Electron Energy =               -1405.4282682175862647
    Two-Electron Energy =                 570.6532005687957962
    Total Energy =                       -399.7577316159623706
  Basis Set: (AUG-CC-PVTZ AUX)
    Blend: AUG-CC-PVTZ-RI
    Molecular point group: c1

    Geometry (in Angstrom), charge = 0, multiplicity = 1:

       Center              X                  Y                   Z               Mass
    ------------   -----------------  -----------------  -----------------  -----------------
         O            1.728284436357     0.396305568850     0.014634478566    15.994914619570
         N            0.184235436357    -1.338748431150     0.014631478566    14.003074004430
         C           -0.543388063643     0.983790368850    -0.135374521434    12.000000000000
         C            0.436232436357    -0.033233431150     0.014631478566    12.000000000000
         C           -1.866287563643     0.558213568850     0.014622478566    12.000000000000
         C           -0.134403563643     2.427046568850     0.014624478566    12.000000000000
         C           -2.165570563643    -0.810305431150     0.014622478566    12.000000000000
         C           -1.113685563643    -1.714665431150     0.014626478566    12.000000000000
         C            2.723734436357    -0.637369431150     0.014616478566    12.000000000000
         H           -2.665979563643     1.297016568850     0.014617478566     1.007825032230
         H           -1.013884563643     3.076387568850     0.014607478566     1.007825032230
         H            0.474372436357     2.657653568850     0.893727478566     1.007825032230
         H            0.474401436357     2.657644568850    -0.864460521434     1.007825032230
         H           -3.193373563643    -1.160837431150     0.014620478566     1.007825032230
         H           -1.291944563643    -2.788241431150     0.014626478566     1.007825032230
         H            2.632419436357    -1.266085431150    -0.873487521434     1.007825032230
         H            2.632467436357    -1.266070431150     0.902736478566     1.007825032230
         H            3.674833436357    -0.105740431150     0.014587478566     1.007825032230

  Basis Set: AUG-CC-PVTZ
    Blend: AUG-CC-PVTZ
  Basis Set: (AUG-CC-PVTZ AUX)
    Blend: AUG-CC-PVTZ-JKFIT
	 Reference Energy          =    -399.7577316159623706 [Eh]
	 Singles Energy            =      -0.0000000000000000 [Eh]
	 Same-Spin Energy          =      -0.4239820904715331 [Eh]
	 Opposite-Spin Energy      =      -1.3373426791812455 [Eh]
	 Correlation Energy        =      -1.7613247696527785 [Eh]
	 Total Energy              =    -401.5190563856151584 [Eh]

	 ================> DF-SCS-MP2 Energies <==================
	-----------------------------------------------------------
	 SCS Same-Spin Scale       =       0.3333333333333333 [-]
	 SCS Opposite-Spin Scale   =       1.2000000000000000 [-]
	 SCS Same-Spin Energy      =      -0.1413273634905110 [Eh]
	 SCS Opposite-Spin Energy  =      -1.6048112150174945 [Eh]
	 SCS Correlation Energy    =      -1.7461385785080055 [Eh]
	 SCS Total Energy          =    -401.5038701944703803 [Eh]
	-----------------------------------------------------------

  Dipole Moment: [D]
     X:    -0.5272      Y:     0.6010      Z:     0.0378     Total:     0.8004

*** Psi4 exiting successfully. Buy a developer a beer!
