                               Psi4 1.3.2 release

  ==> Input File <==

--------------------------------------------------------------------------
#psi4
#
memory 32 gb

molecule  {
0 1
  O        1.7152690     0.3729450     0.0000090
  N        0.1712200    -1.3621090     0.0000060
  C       -0.5564040     0.9604300     0.0000000
  C        0.4232170    -0.0565940     0.0000060
  C       -1.8793030     0.5348530    -0.0000030
  C       -0.1474190     2.4036860    -0.0000010
  C       -2.1785860    -0.8336660    -0.0000030
  C       -1.1267010    -1.7380260     0.0000010
  C        2.7107190    -0.6607300    -0.0000090
  H       -2.6789950     1.2736560    -0.0000080
  H       -1.0269000     3.0530270    -0.0000180
  H        0.4613570     2.6342930     0.8791020
  H        0.4613860     2.6342840    -0.8790860
  H       -3.2063890    -1.1841980    -0.0000050
  H       -1.3049604    -2.8116020     0.1000010
  H        2.6194040    -1.2894460    -0.8881130
  H        2.6194520    -1.2894310     0.8881110
  H        3.6618180    -0.1291010    -0.0000380
units angstrom
no_reorient  #important for SAPT in psi4, default
symmetry c1  #important for SAPT in psi4, default
}

set PROPERTIES_ORIGIN ["COM"]
properties('MP2/aug-cc-pvtz', properties = ['dipole'])
--------------------------------------------------------------------------

    Molecular point group: c1
  Charge       = 0
  Multiplicity = 1
  Basis Set: AUG-CC-PVTZ
    Blend: AUG-CC-PVTZ
  Basis Set: (AUG-CC-PVTZ AUX)
    Blend: AUG-CC-PVTZ-JKFIT

    Orbital Energies [Eh]
    ---------------------

    Doubly Occupied:

       1A    -20.586912     2A    -15.559023     3A    -11.332190
       4A    -11.274280     5A    -11.274064     6A    -11.254386
       7A    -11.241962     8A    -11.230437     9A    -11.224427
      10A     -1.415415    11A     -1.244437    12A     -1.099712
      13A     -1.040165    14A     -0.955689    15A     -0.935263
      16A     -0.835642    17A     -0.824974    18A     -0.719518
      19A     -0.688460    20A     -0.653794    21A     -0.648221
      22A     -0.603741    23A     -0.589418    24A     -0.576679
      25A     -0.560053    26A     -0.547579    27A     -0.529642
      28A     -0.527723    29A     -0.501433    30A     -0.476488
      31A     -0.422742    32A     -0.376744    33A     -0.315308

  @DF-RHF Final Energy:  -399.76497589895354

   => Energetics <=

    Nuclear Repulsion Energy =            435.2998967006171824
    One-Electron Energy =               -1405.9967018099991947
    Two-Electron Energy =                 570.9318292104285320
    Total Energy =                       -399.7649758989534803
  Basis Set: (AUG-CC-PVTZ AUX)
    Blend: AUG-CC-PVTZ-RI
    Molecular point group: c1

    Geometry (in Angstrom), charge = 0, multiplicity = 1:

       Center              X                  Y                   Z               Mass
    ------------   -----------------  -----------------  -----------------  -----------------
         O            1.728284488386     0.396305549348    -0.000810447088    15.994914619570
         N            0.184235488386    -1.338748450652    -0.000813447088    14.003074004430
         C           -0.543388511614     0.983790549348    -0.000819447088    12.000000000000
         C            0.436232488386    -0.033233450652    -0.000813447088    12.000000000000
         C           -1.866287511614     0.558213549348    -0.000822447088    12.000000000000
         C           -0.134403511614     2.427046549348    -0.000820447088    12.000000000000
         C           -2.165570511614    -0.810305450652    -0.000822447088    12.000000000000
         C           -1.113685511614    -1.714665450652    -0.000818447088    12.000000000000
         C            2.723734488386    -0.637369450652    -0.000828447088    12.000000000000
         H           -2.665979511614     1.297016549348    -0.000827447088     1.007825032230
         H           -1.013884511614     3.076387549348    -0.000837447088     1.007825032230
         H            0.474372488386     2.657653549348     0.878282552912     1.007825032230
         H            0.474401488386     2.657644549348    -0.879905447088     1.007825032230
         H           -3.193373511614    -1.160837450652    -0.000824447088     1.007825032230
         H           -1.291944911614    -2.788241450652     0.099181552912     1.007825032230
         H            2.632419488386    -1.266085450652    -0.888932447088     1.007825032230
         H            2.632467488386    -1.266070450652     0.887291552912     1.007825032230
         H            3.674833488386    -0.105740450652    -0.000857447088     1.007825032230

  Basis Set: AUG-CC-PVTZ
    Blend: AUG-CC-PVTZ
  Basis Set: (AUG-CC-PVTZ AUX)
    Blend: AUG-CC-PVTZ-JKFIT
	 Reference Energy          =    -399.7649758989535371 [Eh]
	 Singles Energy            =      -0.0000000000000000 [Eh]
	 Same-Spin Energy          =      -0.4238091512952709 [Eh]
	 Opposite-Spin Energy      =      -1.3367396641651976 [Eh]
	 Correlation Energy        =      -1.7605488154604685 [Eh]
	 Total Energy              =    -401.5255247144140185 [Eh]

	 ================> DF-SCS-MP2 Energies <==================
	-----------------------------------------------------------
	 SCS Same-Spin Scale       =       0.3333333333333333 [-]
	 SCS Opposite-Spin Scale   =       1.2000000000000000 [-]
	 SCS Same-Spin Energy      =      -0.1412697170984236 [Eh]
	 SCS Opposite-Spin Energy  =      -1.6040875969982371 [Eh]
	 SCS Correlation Energy    =      -1.7453573140966607 [Eh]
	 SCS Total Energy          =    -401.5103332130502167 [Eh]
	-----------------------------------------------------------

  Dipole Moment: [D]
     X:    -0.5247      Y:     0.6623      Z:     0.0555     Total:     0.8468

*** Psi4 exiting successfully. Buy a developer a beer!
