                               Psi4 1.3.2 release

  ==> Input File <==

--------------------------------------------------------------------------
#psi4
#
memory 32 gb

molecule  {
0 1
  O        1.7152690     0.3729450     0.0000090
  N        0.1712200    -1.3621090     0.0000060
  C       -0.5564040     0.9604300     0.0000000
  C        0.4232170    -0.0565940     0.0000060
  C       -1.8793030     0.5348530    -0.0000030
  C       -0.1474190     2.4036860    -0.0000010
  C       -2.1785860    -0.8336660    -0.0000030
  C       -1.1267010    -1.7380260     0.0000010
  C        2.7107190    -0.6607300    -0.0000090
  H       -2.6789950     1.2736560    -0.0000080
  H       -1.0269000     3.0530270    -0.0000180
  H        0.4613570     2.6342930     0.8791020
  H        0.4613860     2.6342840    -0.8790860
  H       -3.2063890    -1.1841980    -0.0000050
  H       -1.3049600    -2.8116020     0.0000010
  H        2.6194040    -1.2894460    -0.8881130
  H        2.6194520    -1.2894310     0.8881110
  H        3.6618180    -0.1291010    -0.0000380
units angstrom
no_reorient  #important for SAPT in psi4, default
symmetry c1  #important for SAPT in psi4, default
}

set PROPERTIES_ORIGIN ["COM"]
properties('MP2/aug-cc-pvtz', properties = ['dipole'])
--------------------------------------------------------------------------

    Molecular point group: c1
  Charge       = 0
  Multiplicity = 1
  Basis Set: AUG-CC-PVTZ
    Blend: AUG-CC-PVTZ
  Basis Set: (AUG-CC-PVTZ AUX)
    Blend: AUG-CC-PVTZ-JKFIT

    Orbital Energies [Eh]
    ---------------------

    Doubly Occupied:

       1A    -20.586886     2A    -15.558970     3A    -11.332142
       4A    -11.274044     5A    -11.273857     6A    -11.254344
       7A    -11.241873     8A    -11.230345     9A    -11.224377
      10A     -1.415385    11A     -1.244410    12A     -1.099659
      13A     -1.040179    14A     -0.955667    15A     -0.935402
      16A     -0.835704    17A     -0.825024    18A     -0.719933
      19A     -0.688473    20A     -0.653752    21A     -0.648257
      22A     -0.603827    23A     -0.589791    24A     -0.576692
      25A     -0.560060    26A     -0.547538    27A     -0.529376
      28A     -0.528061    29A     -0.501483    30A     -0.476566
      31A     -0.422802    32A     -0.376723    33A     -0.315340

  @DF-RHF Final Energy:  -399.76563919972369

   => Energetics <=

    Nuclear Repulsion Energy =            435.3177729476691411
    One-Electron Energy =               -1406.0329443067269040
    Two-Electron Energy =                 570.9495321593340122
    Total Energy =                       -399.7656391997237506
  Basis Set: (AUG-CC-PVTZ AUX)
    Blend: AUG-CC-PVTZ-RI
    Molecular point group: c1

    Geometry (in Angstrom), charge = 0, multiplicity = 1:

       Center              X                  Y                   Z               Mass
    ------------   -----------------  -----------------  -----------------  -----------------
         O            1.728284485111     0.396305549348     0.000008467368    15.994914619570
         N            0.184235485111    -1.338748450652     0.000005467368    14.003074004430
         C           -0.543388514889     0.983790549348    -0.000000532632    12.000000000000
         C            0.436232485111    -0.033233450652     0.000005467368    12.000000000000
         C           -1.866287514889     0.558213549348    -0.000003532632    12.000000000000
         C           -0.134403514889     2.427046549348    -0.000001532632    12.000000000000
         C           -2.165570514889    -0.810305450652    -0.000003532632    12.000000000000
         C           -1.113685514889    -1.714665450652     0.000000467368    12.000000000000
         C            2.723734485111    -0.637369450652    -0.000009532632    12.000000000000
         H           -2.665979514889     1.297016549348    -0.000008532632     1.007825032230
         H           -1.013884514889     3.076387549348    -0.000018532632     1.007825032230
         H            0.474372485111     2.657653549348     0.879101467368     1.007825032230
         H            0.474401485111     2.657644549348    -0.879086532632     1.007825032230
         H           -3.193373514889    -1.160837450652    -0.000005532632     1.007825032230
         H           -1.291944514889    -2.788241450652     0.000000467368     1.007825032230
         H            2.632419485111    -1.266085450652    -0.888113532632     1.007825032230
         H            2.632467485111    -1.266070450652     0.888110467368     1.007825032230
         H            3.674833485111    -0.105740450652    -0.000038532632     1.007825032230

  Basis Set: AUG-CC-PVTZ
    Blend: AUG-CC-PVTZ
  Basis Set: (AUG-CC-PVTZ AUX)
    Blend: AUG-CC-PVTZ-JKFIT
	 Reference Energy          =    -399.7656391997236938 [Eh]
	 Singles Energy            =      -0.0000000000000000 [Eh]
	 Same-Spin Energy          =      -0.4237652870012014 [Eh]
	 Opposite-Spin Energy      =      -1.3366535446994807 [Eh]
	 Correlation Energy        =      -1.7604188317006821 [Eh]
	 Total Energy              =    -401.5260580314243839 [Eh]

	 ================> DF-SCS-MP2 Energies <==================
	-----------------------------------------------------------
	 SCS Same-Spin Scale       =       0.3333333333333333 [-]
	 SCS Opposite-Spin Scale   =       1.2000000000000000 [-]
	 SCS Same-Spin Energy      =      -0.1412550956670671 [Eh]
	 SCS Opposite-Spin Energy  =      -1.6039842536393769 [Eh]
	 SCS Correlation Energy    =      -1.7452393493064440 [Eh]
	 SCS Total Energy          =    -401.5108785490301102 [Eh]
	-----------------------------------------------------------

  Dipole Moment: [D]
     X:    -0.5273      Y:     0.6533      Z:    -0.0000     Total:     0.8395

*** Psi4 exiting successfully. Buy a developer a beer!
