                               Psi4 1.3.2 release

  ==> Input File <==

--------------------------------------------------------------------------
#psi4
#
memory 32 gb

molecule  {
0 1
  O        1.7152690     0.3729450     0.0000090
  N        0.1712200    -1.3621090     0.0000060
  C       -0.5564038     0.9604299    -0.0500000
  C        0.4232170    -0.0565940     0.0000060
  C       -1.8793030     0.5348530    -0.0000030
  C       -0.1474190     2.4036860    -0.0000010
  C       -2.1785860    -0.8336660    -0.0000030
  C       -1.1267010    -1.7380260     0.0000010
  C        2.7107190    -0.6607300    -0.0000090
  H       -2.6789950     1.2736560    -0.0000080
  H       -1.0269000     3.0530270    -0.0000180
  H        0.4613570     2.6342930     0.8791020
  H        0.4613860     2.6342840    -0.8790860
  H       -3.2063890    -1.1841980    -0.0000050
  H       -1.3049600    -2.8116020     0.0000010
  H        2.6194040    -1.2894460    -0.8881130
  H        2.6194520    -1.2894310     0.8881110
  H        3.6618180    -0.1291010    -0.0000380
units angstrom
no_reorient  #important for SAPT in psi4, default
symmetry c1  #important for SAPT in psi4, default
}

set PROPERTIES_ORIGIN ["COM"]
properties('MP2/aug-cc-pvtz', properties = ['dipole'])
--------------------------------------------------------------------------

    Molecular point group: c1
  Charge       = 0
  Multiplicity = 1
  Basis Set: AUG-CC-PVTZ
    Blend: AUG-CC-PVTZ
  Basis Set: (AUG-CC-PVTZ AUX)
    Blend: AUG-CC-PVTZ-JKFIT

    Orbital Energies [Eh]
    ---------------------

    Doubly Occupied:

       1A    -20.586940     2A    -15.558956     3A    -11.332337
       4A    -11.274064     5A    -11.274000     6A    -11.254550
       7A    -11.242027     8A    -11.230336     9A    -11.224360
      10A     -1.415421    11A     -1.244421    12A     -1.099473
      13A     -1.040141    14A     -0.955590    15A     -0.935329
      16A     -0.835574    17A     -0.824971    18A     -0.719956
      19A     -0.688363    20A     -0.653837    21A     -0.648169
      22A     -0.603930    23A     -0.589798    24A     -0.576498
      25A     -0.559936    26A     -0.547467    27A     -0.530550
      28A     -0.526582    29A     -0.501389    30A     -0.476541
      31A     -0.422740    32A     -0.376648    33A     -0.315354

  @DF-RHF Final Energy:  -399.76476088148098

   => Energetics <=

    Nuclear Repulsion Energy =            435.2841931496308803
    One-Electron Energy =               -1405.9654166828181587
    Two-Electron Energy =                 570.9164626517061834
    Total Energy =                       -399.7647608814810383
  Basis Set: (AUG-CC-PVTZ AUX)
    Blend: AUG-CC-PVTZ-RI
    Molecular point group: c1

    Geometry (in Angstrom), charge = 0, multiplicity = 1:

       Center              X                  Y                   Z               Mass
    ------------   -----------------  -----------------  -----------------  -----------------
         O            1.728284465609     0.396305559099     0.004883804434    15.994914619570
         N            0.184235465609    -1.338748440901     0.004880804434    14.003074004430
         C           -0.543388334391     0.983790459099    -0.045125195566    12.000000000000
         C            0.436232465609    -0.033233440901     0.004880804434    12.000000000000
         C           -1.866287534391     0.558213559099     0.004871804434    12.000000000000
         C           -0.134403534391     2.427046559099     0.004873804434    12.000000000000
         C           -2.165570534391    -0.810305440901     0.004871804434    12.000000000000
         C           -1.113685534391    -1.714665440901     0.004875804434    12.000000000000
         C            2.723734465609    -0.637369440901     0.004865804434    12.000000000000
         H           -2.665979534391     1.297016559099     0.004866804434     1.007825032230
         H           -1.013884534391     3.076387559099     0.004856804434     1.007825032230
         H            0.474372465609     2.657653559099     0.883976804434     1.007825032230
         H            0.474401465609     2.657644559099    -0.874211195566     1.007825032230
         H           -3.193373534391    -1.160837440901     0.004869804434     1.007825032230
         H           -1.291944534391    -2.788241440901     0.004875804434     1.007825032230
         H            2.632419465609    -1.266085440901    -0.883238195566     1.007825032230
         H            2.632467465609    -1.266070440901     0.892985804434     1.007825032230
         H            3.674833465609    -0.105740440901     0.004836804434     1.007825032230

  Basis Set: AUG-CC-PVTZ
    Blend: AUG-CC-PVTZ
  Basis Set: (AUG-CC-PVTZ AUX)
    Blend: AUG-CC-PVTZ-JKFIT
	 Reference Energy          =    -399.7647608814809814 [Eh]
	 Singles Energy            =      -0.0000000000000000 [Eh]
	 Same-Spin Energy          =      -0.4237891507204220 [Eh]
	 Opposite-Spin Energy      =      -1.3367179154028013 [Eh]
	 Correlation Energy        =      -1.7605070661232234 [Eh]
	 Total Energy              =    -401.5252679476042204 [Eh]

	 ================> DF-SCS-MP2 Energies <==================
	-----------------------------------------------------------
	 SCS Same-Spin Scale       =       0.3333333333333333 [-]
	 SCS Opposite-Spin Scale   =       1.2000000000000000 [-]
	 SCS Same-Spin Energy      =      -0.1412630502401407 [Eh]
	 SCS Opposite-Spin Energy  =      -1.6040614984833614 [Eh]
	 SCS Correlation Energy    =      -1.7453245487235021 [Eh]
	 SCS Total Energy          =    -401.5100854302044695 [Eh]
	-----------------------------------------------------------

  Dipole Moment: [D]
     X:    -0.5273      Y:     0.6474      Z:     0.0122     Total:     0.8351

*** Psi4 exiting successfully. Buy a developer a beer!
