                               Psi4 1.3.2 release

  ==> Input File <==

--------------------------------------------------------------------------
#psi4
#
memory 32 gb

molecule  {
0 1
  O        1.7152690     0.3729450     0.0000090
  N        0.1712200    -1.3621090     0.0000060
  C       -0.5564040     0.9604300     0.0000000
  C        0.4232170    -0.0565940     0.0000060
  C       -1.8793030     0.5348530    -0.0000030
  C       -0.1474190     2.4036860    -0.0000010
  C       -2.1785860    -0.8336660    -0.0000030
  C       -1.1267010    -1.7380260     0.0000010
  C        2.7107190    -0.6607300    -0.0000090
  H       -2.6789950     1.2736560    -0.0000080
  H       -1.0269000     3.0530270    -0.0000180
  H        0.4613570     2.6342930     0.8791020
  H        0.4613860     2.6342840    -0.8790860
  H       -3.2063890    -1.1841980    -0.0000050
  H       -1.3049609    -2.8116019     0.2500010
  H        2.6194040    -1.2894460    -0.8881130
  H        2.6194520    -1.2894310     0.8881110
  H        3.6618180    -0.1291010    -0.0000380
units angstrom
no_reorient  #important for SAPT in psi4, default
symmetry c1  #important for SAPT in psi4, default
}

set PROPERTIES_ORIGIN ["COM"]
properties('MP2/aug-cc-pvtz', properties = ['dipole'])
--------------------------------------------------------------------------

    Molecular point group: c1
  Charge       = 0
  Multiplicity = 1
  Basis Set: AUG-CC-PVTZ
    Blend: AUG-CC-PVTZ
  Basis Set: (AUG-CC-PVTZ AUX)
    Blend: AUG-CC-PVTZ-JKFIT

    Orbital Energies [Eh]
    ---------------------

    Doubly Occupied:

       1A    -20.587054     2A    -15.559307     3A    -11.332445
       4A    -11.276454     5A    -11.274169     6A    -11.254608
       7A    -11.242428     8A    -11.230917     9A    -11.224690
      10A     -1.415575    11A     -1.244585    12A     -1.099993
      13A     -1.040113    14A     -0.955815    15A     -0.934596
      16A     -0.835378    17A     -0.824719    18A     -0.717508
      19A     -0.688392    20A     -0.654008    21A     -0.648072
      22A     -0.603393    23A     -0.587457    24A     -0.576568
      25A     -0.559991    26A     -0.547792    27A     -0.530414
      28A     -0.526589    29A     -0.501146    30A     -0.476086
      31A     -0.422407    32A     -0.376859    33A     -0.315156

  @DF-RHF Final Energy:  -399.76121890125552

   => Energetics <=

    Nuclear Repulsion Energy =            435.2087215258045489
    One-Electron Energy =               -1405.8105116084798283
    Two-Electron Energy =                 570.8405711814197048
    Total Energy =                       -399.7612189012555746
  Basis Set: (AUG-CC-PVTZ AUX)
    Blend: AUG-CC-PVTZ-RI
    Molecular point group: c1

    Geometry (in Angstrom), charge = 0, multiplicity = 1:

       Center              X                  Y                   Z               Mass
    ------------   -----------------  -----------------  -----------------  -----------------
         O            1.728284492481     0.396305548529    -0.002038818771    15.994914619570
         N            0.184235492481    -1.338748451471    -0.002041818771    14.003074004430
         C           -0.543388507519     0.983790548529    -0.002047818771    12.000000000000
         C            0.436232492481    -0.033233451471    -0.002041818771    12.000000000000
         C           -1.866287507519     0.558213548529    -0.002050818771    12.000000000000
         C           -0.134403507519     2.427046548529    -0.002048818771    12.000000000000
         C           -2.165570507519    -0.810305451471    -0.002050818771    12.000000000000
         C           -1.113685507519    -1.714665451471    -0.002046818771    12.000000000000
         C            2.723734492481    -0.637369451471    -0.002056818771    12.000000000000
         H           -2.665979507519     1.297016548529    -0.002055818771     1.007825032230
         H           -1.013884507519     3.076387548529    -0.002065818771     1.007825032230
         H            0.474372492481     2.657653548529     0.877054181229     1.007825032230
         H            0.474401492481     2.657644548529    -0.881133818771     1.007825032230
         H           -3.193373507519    -1.160837451471    -0.002052818771     1.007825032230
         H           -1.291945407519    -2.788241351471     0.247953181229     1.007825032230
         H            2.632419492481    -1.266085451471    -0.890160818771     1.007825032230
         H            2.632467492481    -1.266070451471     0.886063181229     1.007825032230
         H            3.674833492481    -0.105740451471    -0.002085818771     1.007825032230

  Basis Set: AUG-CC-PVTZ
    Blend: AUG-CC-PVTZ
  Basis Set: (AUG-CC-PVTZ AUX)
    Blend: AUG-CC-PVTZ-JKFIT
	 Reference Energy          =    -399.7612189012555177 [Eh]
	 Singles Energy            =      -0.0000000000000000 [Eh]
	 Same-Spin Energy          =      -0.4240384219564256 [Eh]
	 Opposite-Spin Energy      =      -1.3372499248989960 [Eh]
	 Correlation Energy        =      -1.7612883468554217 [Eh]
	 Total Energy              =    -401.5225072481109123 [Eh]

	 ================> DF-SCS-MP2 Energies <==================
	-----------------------------------------------------------
	 SCS Same-Spin Scale       =       0.3333333333333333 [-]
	 SCS Opposite-Spin Scale   =       1.2000000000000000 [-]
	 SCS Same-Spin Energy      =      -0.1413461406521418 [Eh]
	 SCS Opposite-Spin Energy  =      -1.6046999098787951 [Eh]
	 SCS Correlation Energy    =      -1.7460460505309370 [Eh]
	 SCS Total Energy          =    -401.5072649517864534 [Eh]
	-----------------------------------------------------------

  Dipole Moment: [D]
     X:    -0.5114      Y:     0.7088      Z:     0.1362     Total:     0.8846

*** Psi4 exiting successfully. Buy a developer a beer!
