                               Psi4 1.3.2 release

  ==> Input File <==

--------------------------------------------------------------------------
#psi4
#
memory 32 gb

molecule  {
0 1
  O        1.7152690     0.3729450     0.0000090
  N        0.1712200    -1.3621090     0.0000060
  C       -0.5564036     0.9604299    -0.1000000
  C        0.4232170    -0.0565940     0.0000060
  C       -1.8793030     0.5348530    -0.0000030
  C       -0.1474190     2.4036860    -0.0000010
  C       -2.1785860    -0.8336660    -0.0000030
  C       -1.1267010    -1.7380260     0.0000010
  C        2.7107190    -0.6607300    -0.0000090
  H       -2.6789950     1.2736560    -0.0000080
  H       -1.0269000     3.0530270    -0.0000180
  H        0.4613570     2.6342930     0.8791020
  H        0.4613860     2.6342840    -0.8790860
  H       -3.2063890    -1.1841980    -0.0000050
  H       -1.3049600    -2.8116020     0.0000010
  H        2.6194040    -1.2894460    -0.8881130
  H        2.6194520    -1.2894310     0.8881110
  H        3.6618180    -0.1291010    -0.0000380
units angstrom
no_reorient  #important for SAPT in psi4, default
symmetry c1  #important for SAPT in psi4, default
}

set PROPERTIES_ORIGIN ["COM"]
properties('MP2/aug-cc-pvtz', properties = ['dipole'])
--------------------------------------------------------------------------

    Molecular point group: c1
  Charge       = 0
  Multiplicity = 1
  Basis Set: AUG-CC-PVTZ
    Blend: AUG-CC-PVTZ
  Basis Set: (AUG-CC-PVTZ AUX)
    Blend: AUG-CC-PVTZ-JKFIT

    Orbital Energies [Eh]
    ---------------------

    Doubly Occupied:

       1A    -20.587101     2A    -15.558917     3A    -11.332922
       4A    -11.274434     5A    -11.274125     6A    -11.255167
       7A    -11.242483     8A    -11.230312     9A    -11.224305
      10A     -1.415529    11A     -1.244457    12A     -1.098917
      13A     -1.040026    14A     -0.955366    15A     -0.935113
      16A     -0.835190    17A     -0.824812    18A     -0.720026
      19A     -0.688037    20A     -0.654079    21A     -0.647925
      22A     -0.604232    23A     -0.589805    24A     -0.575945
      25A     -0.559572    26A     -0.547258    27A     -0.531906
      28A     -0.524330    29A     -0.501087    30A     -0.476462
      31A     -0.422551    32A     -0.376425    33A     -0.315399

  @DF-RHF Final Energy:  -399.76212528732123

   => Energetics <=

    Nuclear Repulsion Energy =            435.1837507742123989
    One-Electron Energy =               -1405.7633263474876912
    Two-Electron Energy =                 570.8174502859540098
    Total Energy =                       -399.7621252873212825
  Basis Set: (AUG-CC-PVTZ AUX)
    Blend: AUG-CC-PVTZ-RI
    Molecular point group: c1

    Geometry (in Angstrom), charge = 0, multiplicity = 1:

       Center              X                  Y                   Z               Mass
    ------------   -----------------  -----------------  -----------------  -----------------
         O            1.728284446108     0.396305559099     0.009759141500    15.994914619570
         N            0.184235446108    -1.338748440901     0.009756141500    14.003074004430
         C           -0.543388153892     0.983790459099    -0.090249858500    12.000000000000
         C            0.436232446108    -0.033233440901     0.009756141500    12.000000000000
         C           -1.866287553892     0.558213559099     0.009747141500    12.000000000000
         C           -0.134403553892     2.427046559099     0.009749141500    12.000000000000
         C           -2.165570553892    -0.810305440901     0.009747141500    12.000000000000
         C           -1.113685553892    -1.714665440901     0.009751141500    12.000000000000
         C            2.723734446108    -0.637369440901     0.009741141500    12.000000000000
         H           -2.665979553892     1.297016559099     0.009742141500     1.007825032230
         H           -1.013884553892     3.076387559099     0.009732141500     1.007825032230
         H            0.474372446108     2.657653559099     0.888852141500     1.007825032230
         H            0.474401446108     2.657644559099    -0.869335858500     1.007825032230
         H           -3.193373553892    -1.160837440901     0.009745141500     1.007825032230
         H           -1.291944553892    -2.788241440901     0.009751141500     1.007825032230
         H            2.632419446108    -1.266085440901    -0.878362858500     1.007825032230
         H            2.632467446108    -1.266070440901     0.897861141500     1.007825032230
         H            3.674833446108    -0.105740440901     0.009712141500     1.007825032230

  Basis Set: AUG-CC-PVTZ
    Blend: AUG-CC-PVTZ
  Basis Set: (AUG-CC-PVTZ AUX)
    Blend: AUG-CC-PVTZ-JKFIT
	 Reference Energy          =    -399.7621252873212256 [Eh]
	 Singles Energy            =      -0.0000000000000000 [Eh]
	 Same-Spin Energy          =      -0.4238613869511508 [Eh]
	 Opposite-Spin Energy      =      -1.3369386453532583 [Eh]
	 Correlation Energy        =      -1.7608000323044091 [Eh]
	 Total Energy              =    -401.5229253196256423 [Eh]

	 ================> DF-SCS-MP2 Energies <==================
	-----------------------------------------------------------
	 SCS Same-Spin Scale       =       0.3333333333333333 [-]
	 SCS Opposite-Spin Scale   =       1.2000000000000000 [-]
	 SCS Same-Spin Energy      =      -0.1412871289837169 [Eh]
	 SCS Opposite-Spin Energy  =      -1.6043263744239100 [Eh]
	 SCS Correlation Energy    =      -1.7456135034076270 [Eh]
	 SCS Total Energy          =    -401.5077387907288653 [Eh]
	-----------------------------------------------------------

  Dipole Moment: [D]
     X:    -0.5273      Y:     0.6300      Z:     0.0247     Total:     0.8219

*** Psi4 exiting successfully. Buy a developer a beer!
