                               Psi4 1.3.2 release

  ==> Input File <==

--------------------------------------------------------------------------
#psi4
#
memory 32 gb

molecule  {
0 1
  O        1.7152690     0.3729450     0.0000090
  N        0.1712200    -1.3621090     0.0000060
  C       -0.5564033     0.9604297    -0.2000000
  C        0.4232170    -0.0565940     0.0000060
  C       -1.8793030     0.5348530    -0.0000030
  C       -0.1474190     2.4036860    -0.0000010
  C       -2.1785860    -0.8336660    -0.0000030
  C       -1.1267010    -1.7380260     0.0000010
  C        2.7107190    -0.6607300    -0.0000090
  H       -2.6789950     1.2736560    -0.0000080
  H       -1.0269000     3.0530270    -0.0000180
  H        0.4613570     2.6342930     0.8791020
  H        0.4613860     2.6342840    -0.8790860
  H       -3.2063890    -1.1841980    -0.0000050
  H       -1.3049600    -2.8116020     0.0000010
  H        2.6194040    -1.2894460    -0.8881130
  H        2.6194520    -1.2894310     0.8881110
  H        3.6618180    -0.1291010    -0.0000380
units angstrom
no_reorient  #important for SAPT in psi4, default
symmetry c1  #important for SAPT in psi4, default
}

set PROPERTIES_ORIGIN ["COM"]
properties('MP2/aug-cc-pvtz', properties = ['dipole'])
--------------------------------------------------------------------------

    Molecular point group: c1
  Charge       = 0
  Multiplicity = 1
  Basis Set: AUG-CC-PVTZ
    Blend: AUG-CC-PVTZ
  Basis Set: (AUG-CC-PVTZ AUX)
    Blend: AUG-CC-PVTZ-JKFIT

    Orbital Energies [Eh]
    ---------------------

    Doubly Occupied:

       1A    -20.587757     2A    -15.558793     3A    -11.335226
       4A    -11.276205     5A    -11.274372     6A    -11.257599
       7A    -11.244224     8A    -11.230247     9A    -11.224052
      10A     -1.415971    11A     -1.244634    12A     -1.096725
      13A     -1.039564    14A     -0.954534    15A     -0.934254
      16A     -0.833727    17A     -0.824181    18A     -0.720338
      19A     -0.686774    20A     -0.654889    21A     -0.647135
      22A     -0.605305    23A     -0.589692    24A     -0.574031
      25A     -0.558195    26A     -0.546487    27A     -0.533774
      28A     -0.519211    29A     -0.499534    30A     -0.476096
      31A     -0.421776    32A     -0.375572    33A     -0.315632

  @DF-RHF Final Energy:  -399.75158125524962

   => Energetics <=

    Nuclear Repulsion Energy =            434.7864015870882213
    One-Electron Energy =               -1404.9629568115590246
    Two-Electron Energy =                 570.4249739692212415
    Total Energy =                       -399.7515812552495618
  Basis Set: (AUG-CC-PVTZ AUX)
    Blend: AUG-CC-PVTZ-RI
    Molecular point group: c1

    Geometry (in Angstrom), charge = 0, multiplicity = 1:

       Center              X                  Y                   Z               Mass
    ------------   -----------------  -----------------  -----------------  -----------------
         O            1.728284416856     0.396305578600     0.019509815632    15.994914619570
         N            0.184235416856    -1.338748421400     0.019506815632    14.003074004430
         C           -0.543387883144     0.983790278600    -0.180499184368    12.000000000000
         C            0.436232416856    -0.033233421400     0.019506815632    12.000000000000
         C           -1.866287583144     0.558213578600     0.019497815632    12.000000000000
         C           -0.134403583144     2.427046578600     0.019499815632    12.000000000000
         C           -2.165570583144    -0.810305421400     0.019497815632    12.000000000000
         C           -1.113685583144    -1.714665421400     0.019501815632    12.000000000000
         C            2.723734416856    -0.637369421400     0.019491815632    12.000000000000
         H           -2.665979583144     1.297016578600     0.019492815632     1.007825032230
         H           -1.013884583144     3.076387578600     0.019482815632     1.007825032230
         H            0.474372416856     2.657653578600     0.898602815632     1.007825032230
         H            0.474401416856     2.657644578600    -0.859585184368     1.007825032230
         H           -3.193373583144    -1.160837421400     0.019495815632     1.007825032230
         H           -1.291944583144    -2.788241421400     0.019501815632     1.007825032230
         H            2.632419416856    -1.266085421400    -0.868612184368     1.007825032230
         H            2.632467416856    -1.266070421400     0.907611815632     1.007825032230
         H            3.674833416856    -0.105740421400     0.019462815632     1.007825032230

  Basis Set: AUG-CC-PVTZ
    Blend: AUG-CC-PVTZ
  Basis Set: (AUG-CC-PVTZ AUX)
    Blend: AUG-CC-PVTZ-JKFIT
	 Reference Energy          =    -399.7515812552496186 [Eh]
	 Singles Energy            =      -0.0000000000000000 [Eh]
	 Same-Spin Energy          =      -0.4241497029255459 [Eh]
	 Opposite-Spin Energy      =      -1.3379315700170153 [Eh]
	 Correlation Energy        =      -1.7620812729425612 [Eh]
	 Total Energy              =    -401.5136625281921852 [Eh]

	 ================> DF-SCS-MP2 Energies <==================
	-----------------------------------------------------------
	 SCS Same-Spin Scale       =       0.3333333333333333 [-]
	 SCS Opposite-Spin Scale   =       1.2000000000000000 [-]
	 SCS Same-Spin Energy      =      -0.1413832343085153 [Eh]
	 SCS Opposite-Spin Energy  =      -1.6055178840204183 [Eh]
	 SCS Correlation Energy    =      -1.7469011183289336 [Eh]
	 SCS Total Energy          =    -401.4984823735785540 [Eh]
	-----------------------------------------------------------

  Dipole Moment: [D]
     X:    -0.5267      Y:     0.5607      Z:     0.0519     Total:     0.7710

*** Psi4 exiting successfully. Buy a developer a beer!
