                               Psi4 1.3.2 release

  ==> Input File <==

--------------------------------------------------------------------------
#psi4
#
memory 32 gb

molecule  {
0 1
  O        1.7152690     0.3729450     0.0000090
  N        0.1712200    -1.3621090     0.0000060
  C       -0.5564040     0.9604300     0.0000000
  C        0.4232170    -0.0565940     0.0000060
  C       -1.8793030     0.5348530    -0.0000030
  C       -0.1474190     2.4036860    -0.0000010
  C       -2.1785860    -0.8336660    -0.0000030
  C       -1.1267010    -1.7380260     0.0000010
  C        2.7107190    -0.6607300    -0.0000090
  H       -2.6789950     1.2736560    -0.0000080
  H       -1.0269000     3.0530270    -0.0000180
  H        0.4613570     2.6342930     0.8791020
  H        0.4613860     2.6342840    -0.8790860
  H       -3.2063890    -1.1841980    -0.0000050
  H       -1.3049602    -2.8116020     0.0500010
  H        2.6194040    -1.2894460    -0.8881130
  H        2.6194520    -1.2894310     0.8881110
  H        3.6618180    -0.1291010    -0.0000380
units angstrom
no_reorient  #important for SAPT in psi4, default
symmetry c1  #important for SAPT in psi4, default
}

set PROPERTIES_ORIGIN ["COM"]
properties('MP2/aug-cc-pvtz', properties = ['dipole'])
--------------------------------------------------------------------------

    Molecular point group: c1
  Charge       = 0
  Multiplicity = 1
  Basis Set: AUG-CC-PVTZ
    Blend: AUG-CC-PVTZ
  Basis Set: (AUG-CC-PVTZ AUX)
    Blend: AUG-CC-PVTZ-JKFIT

    Orbital Energies [Eh]
    ---------------------

    Doubly Occupied:

       1A    -20.586893     2A    -15.558983     3A    -11.332154
       4A    -11.274049     5A    -11.273963     6A    -11.254355
       7A    -11.241895     8A    -11.230368     9A    -11.224390
      10A     -1.415392    11A     -1.244417    12A     -1.099672
      13A     -1.040176    14A     -0.955672    15A     -0.935366
      16A     -0.835688    17A     -0.825011    18A     -0.719828
      19A     -0.688470    20A     -0.653763    21A     -0.648248
      22A     -0.603804    23A     -0.589698    24A     -0.576689
      25A     -0.560058    26A     -0.547548    27A     -0.529453
      28A     -0.527966    29A     -0.501471    30A     -0.476546
      31A     -0.422787    32A     -0.376728    33A     -0.315332

  @DF-RHF Final Energy:  -399.76547509855595

   => Energetics <=

    Nuclear Repulsion Energy =            435.3132878971158561
    One-Electron Energy =               -1406.0238595145031013
    Two-Electron Energy =                 570.9450965188312921
    Total Energy =                       -399.7654750985559531
  Basis Set: (AUG-CC-PVTZ AUX)
    Blend: AUG-CC-PVTZ-RI
    Molecular point group: c1

    Geometry (in Angstrom), charge = 0, multiplicity = 1:

       Center              X                  Y                   Z               Mass
    ------------   -----------------  -----------------  -----------------  -----------------
         O            1.728284486748     0.396305549348    -0.000400989860    15.994914619570
         N            0.184235486748    -1.338748450652    -0.000403989860    14.003074004430
         C           -0.543388513252     0.983790549348    -0.000409989860    12.000000000000
         C            0.436232486748    -0.033233450652    -0.000403989860    12.000000000000
         C           -1.866287513252     0.558213549348    -0.000412989860    12.000000000000
         C           -0.134403513252     2.427046549348    -0.000410989860    12.000000000000
         C           -2.165570513252    -0.810305450652    -0.000412989860    12.000000000000
         C           -1.113685513252    -1.714665450652    -0.000408989860    12.000000000000
         C            2.723734486748    -0.637369450652    -0.000418989860    12.000000000000
         H           -2.665979513252     1.297016549348    -0.000417989860     1.007825032230
         H           -1.013884513252     3.076387549348    -0.000427989860     1.007825032230
         H            0.474372486748     2.657653549348     0.878692010140     1.007825032230
         H            0.474401486748     2.657644549348    -0.879495989860     1.007825032230
         H           -3.193373513252    -1.160837450652    -0.000414989860     1.007825032230
         H           -1.291944713252    -2.788241450652     0.049591010140     1.007825032230
         H            2.632419486748    -1.266085450652    -0.888522989860     1.007825032230
         H            2.632467486748    -1.266070450652     0.887701010140     1.007825032230
         H            3.674833486748    -0.105740450652    -0.000447989860     1.007825032230

  Basis Set: AUG-CC-PVTZ
    Blend: AUG-CC-PVTZ
  Basis Set: (AUG-CC-PVTZ AUX)
    Blend: AUG-CC-PVTZ-JKFIT
	 Reference Energy          =    -399.7654750985559531 [Eh]
	 Singles Energy            =      -0.0000000000000000 [Eh]
	 Same-Spin Energy          =      -0.4237762382340062 [Eh]
	 Opposite-Spin Energy      =      -1.3366744672601207 [Eh]
	 Correlation Energy        =      -1.7604507054941270 [Eh]
	 Total Energy              =    -401.5259258040500754 [Eh]

	 ================> DF-SCS-MP2 Energies <==================
	-----------------------------------------------------------
	 SCS Same-Spin Scale       =       0.3333333333333333 [-]
	 SCS Opposite-Spin Scale   =       1.2000000000000000 [-]
	 SCS Same-Spin Energy      =      -0.1412587460780021 [Eh]
	 SCS Opposite-Spin Energy  =      -1.6040093607121448 [Eh]
	 SCS Correlation Energy    =      -1.7452681067901470 [Eh]
	 SCS Total Energy          =    -401.5107432053461025 [Eh]
	-----------------------------------------------------------

  Dipole Moment: [D]
     X:    -0.5266      Y:     0.6555      Z:     0.0278     Total:     0.8413

*** Psi4 exiting successfully. Buy a developer a beer!
