                               Psi4 1.3.2 release

  ==> Input File <==

--------------------------------------------------------------------------
#psi4
#
memory 32 gb

molecule  {
0 1
  O        1.7152690     0.3729450     0.0000090
  N        0.1712200    -1.3621090     0.0000060
  C       -0.5564040     0.9604300     0.0000000
  C        0.4232170    -0.0565940     0.0000060
  C       -1.8793030     0.5348530    -0.0000030
  C       -0.1474190     2.4036860    -0.0000010
  C       -2.1785860    -0.8336660    -0.0000030
  C       -1.1267010    -1.7380260     0.0000010
  C        2.7107190    -0.6607300    -0.0000090
  H       -2.6789950     1.2736560    -0.0000080
  H       -1.0269000     3.0530270    -0.0000180
  H        0.4613570     2.6342930     0.8791020
  H        0.4613860     2.6342840    -0.8790860
  H       -3.2063890    -1.1841980    -0.0000050
  H       -1.3049607    -2.8116019     0.2000010
  H        2.6194040    -1.2894460    -0.8881130
  H        2.6194520    -1.2894310     0.8881110
  H        3.6618180    -0.1291010    -0.0000380
units angstrom
no_reorient  #important for SAPT in psi4, default
symmetry c1  #important for SAPT in psi4, default
}

set PROPERTIES_ORIGIN ["COM"]
properties('MP2/aug-cc-pvtz', properties = ['dipole'])
--------------------------------------------------------------------------

    Molecular point group: c1
  Charge       = 0
  Multiplicity = 1
  Basis Set: AUG-CC-PVTZ
    Blend: AUG-CC-PVTZ
  Basis Set: (AUG-CC-PVTZ AUX)
    Blend: AUG-CC-PVTZ-JKFIT

    Orbital Energies [Eh]
    ---------------------

    Doubly Occupied:

       1A    -20.586992     2A    -15.559184     3A    -11.332335
       4A    -11.275531     5A    -11.274124     6A    -11.254513
       7A    -11.242230     8A    -11.230711     9A    -11.224578
      10A     -1.415506    11A     -1.244520    12A     -1.099872
      13A     -1.040131    14A     -0.955760    15A     -0.934869
      16A     -0.835479    17A     -0.824826    18A     -0.718335
      19A     -0.688421    20A     -0.653918    21A     -0.648129
      22A     -0.603523    23A     -0.588294    24A     -0.576626
      25A     -0.560023    26A     -0.547703    27A     -0.530143
      28A     -0.527013    29A     -0.501273    30A     -0.476258
      31A     -0.422555    32A     -0.376809    33A     -0.315218

  @DF-RHF Final Energy:  -399.76288201591854

   => Energetics <=

    Nuclear Repulsion Energy =            435.2472609700992052
    One-Electron Energy =               -1405.8894845569843710
    Two-Electron Energy =                 570.8793415709666306
    Total Energy =                       -399.7628820159185352
  Basis Set: (AUG-CC-PVTZ AUX)
    Blend: AUG-CC-PVTZ-RI
    Molecular point group: c1

    Geometry (in Angstrom), charge = 0, multiplicity = 1:

       Center              X                  Y                   Z               Mass
    ------------   -----------------  -----------------  -----------------  -----------------
         O            1.728284490843     0.396305548529    -0.001629361543    15.994914619570
         N            0.184235490843    -1.338748451471    -0.001632361543    14.003074004430
         C           -0.543388509157     0.983790548529    -0.001638361543    12.000000000000
         C            0.436232490843    -0.033233451471    -0.001632361543    12.000000000000
         C           -1.866287509157     0.558213548529    -0.001641361543    12.000000000000
         C           -0.134403509157     2.427046548529    -0.001639361543    12.000000000000
         C           -2.165570509157    -0.810305451471    -0.001641361543    12.000000000000
         C           -1.113685509157    -1.714665451471    -0.001637361543    12.000000000000
         C            2.723734490843    -0.637369451471    -0.001647361543    12.000000000000
         H           -2.665979509157     1.297016548529    -0.001646361543     1.007825032230
         H           -1.013884509157     3.076387548529    -0.001656361543     1.007825032230
         H            0.474372490843     2.657653548529     0.877463638457     1.007825032230
         H            0.474401490843     2.657644548529    -0.880724361543     1.007825032230
         H           -3.193373509157    -1.160837451471    -0.001643361543     1.007825032230
         H           -1.291945209157    -2.788241351471     0.198362638457     1.007825032230
         H            2.632419490843    -1.266085451471    -0.889751361543     1.007825032230
         H            2.632467490843    -1.266070451471     0.886472638457     1.007825032230
         H            3.674833490843    -0.105740451471    -0.001676361543     1.007825032230

  Basis Set: AUG-CC-PVTZ
    Blend: AUG-CC-PVTZ
  Basis Set: (AUG-CC-PVTZ AUX)
    Blend: AUG-CC-PVTZ-JKFIT
	 Reference Energy          =    -399.7628820159185352 [Eh]
	 Singles Energy            =      -0.0000000000000000 [Eh]
	 Same-Spin Energy          =      -0.4239406773038633 [Eh]
	 Opposite-Spin Energy      =      -1.3370235932400840 [Eh]
	 Correlation Energy        =      -1.7609642705439472 [Eh]
	 Total Energy              =    -401.5238462864624580 [Eh]

	 ================> DF-SCS-MP2 Energies <==================
	-----------------------------------------------------------
	 SCS Same-Spin Scale       =       0.3333333333333333 [-]
	 SCS Opposite-Spin Scale   =       1.2000000000000000 [-]
	 SCS Same-Spin Energy      =      -0.1413135591012877 [Eh]
	 SCS Opposite-Spin Energy  =      -1.6044283118881009 [Eh]
	 SCS Correlation Energy    =      -1.7457418709893886 [Eh]
	 SCS Total Energy          =    -401.5086238869079125 [Eh]
	-----------------------------------------------------------

  Dipole Moment: [D]
     X:    -0.5171      Y:     0.6890      Z:     0.1098     Total:     0.8684

*** Psi4 exiting successfully. Buy a developer a beer!
