                               Psi4 1.4a3.dev225

  ==> Input File <==

--------------------------------------------------------------------------
#psi4
#
memory 32 gb

molecule  {
0 1
  S       -0.8563830     1.5743139    -0.1382085
  O        2.1464270     1.2641370     0.3857660
  N        2.2049820    -0.9697390    -0.1110850
  C       -2.1414430    -0.6044570     0.0238790
  C        0.0782130     0.1386370     0.0349560
  C       -0.7695060    -0.9522330     0.1212440
  C       -2.2969850     0.7606620    -0.1265510
  C        1.5543500     0.2131940     0.1149440
  C       -3.2736380    -1.5890470     0.0915590
  C        3.6575090    -0.9906510    -0.1565210
  H       -0.4188890    -1.9677560     0.2899290
  H       -3.2284760     1.3059560    -0.2284190
  H       -3.2707310    -2.1282860     1.0440440
  H       -4.2368380    -1.0812090    -0.0045560
  H       -3.2021610    -2.3307440    -0.7101950
  H        1.7010110    -1.6882330    -0.6139760
  H        4.0494680    -0.5484410    -1.0790020
  H        3.9975300    -2.0243190    -0.0750760
  H        4.0378180    -0.4153140     0.6868970
units angstrom
no_reorient  #important for SAPT in psi4, default
symmetry c1  #important for SAPT in psi4, default
}

set PROPERTIES_ORIGIN ["COM"]
properties('MP2/aug-cc-pvtz', properties = ['dipole'])
--------------------------------------------------------------------------

    Molecular point group: c1
  Charge       = 0
  Multiplicity = 1
  Basis Set: AUG-CC-PVTZ
    Blend: AUG-CC-PVTZ
  Basis Set: (AUG-CC-PVTZ AUX)
    Blend: AUG-CC-PVTZ-JKFIT

    Orbital Energies [Eh]
    ---------------------

    Doubly Occupied:

       1A    -91.989120     2A    -20.521173     3A    -15.589334
       4A    -11.361231     5A    -11.273275     6A    -11.265058
       7A    -11.260629     8A    -11.256487     9A    -11.251718
      10A    -11.237006    11A     -8.990365    12A     -6.671343
      13A     -6.670744    14A     -6.669986    15A     -1.375662
      16A     -1.231684    17A     -1.191402    18A     -1.045137
      19A     -1.016203    20A     -0.954373    21A     -0.920719
      22A     -0.828314    23A     -0.768562    24A     -0.753319
      25A     -0.708497    26A     -0.644264    27A     -0.628901
      28A     -0.622735    29A     -0.593474    30A     -0.590771
      31A     -0.569992    32A     -0.551709    33A     -0.549571
      34A     -0.534313    35A     -0.527867    36A     -0.505070
      37A     -0.475987    38A     -0.434338    39A     -0.398594
      40A     -0.350860    41A     -0.325912

  @DF-RHF Final Energy:  -797.31799897622534

   => Energetics <=

    Nuclear Repulsion Energy =            589.3226092693819282
    One-Electron Energy =               -2263.0698243513261332
    Two-Electron Energy =                 876.4292161057188650
    Total Energy =                       -797.3179989762253399
  Basis Set: (AUG-CC-PVTZ AUX)
    Blend: AUG-CC-PVTZ-RI
    Molecular point group: c1

    Geometry (in Angstrom), charge = 0, multiplicity = 1:

       Center              X                  Y                   Z               Mass
    ------------   -----------------  -----------------  -----------------  -----------------
         S           -0.849638737739     1.511592843313    -0.142996376636    31.972071174400
         O            2.153171262261     1.201415943313     0.380978123364    15.994914619570
         N            2.211726262261    -1.032460056687    -0.115872876636    14.003074004430
         C           -2.134698737739    -0.667178056687     0.019091123364    12.000000000000
         C            0.084957262261     0.075915943313     0.030168123364    12.000000000000
         C           -0.762761737739    -1.014954056687     0.116456123364    12.000000000000
         C           -2.290240737739     0.697940943313    -0.131338876636    12.000000000000
         C            1.561094262261     0.150472943313     0.110156123364    12.000000000000
         C           -3.266893737739    -1.651768056687     0.086771123364    12.000000000000
         C            3.664253262261    -1.053372056687    -0.161308876636    12.000000000000
         H           -0.412144737739    -2.030477056687     0.285141123364     1.007825032230
         H           -3.221731737739     1.243234943313    -0.233206876636     1.007825032230
         H           -3.263986737739    -2.191007056687     1.039256123364     1.007825032230
         H           -4.230093737739    -1.143930056687    -0.009343876636     1.007825032230
         H           -3.195416737739    -2.393465056687    -0.714982876636     1.007825032230
         H            1.707755262261    -1.750954056687    -0.618763876636     1.007825032230
         H            4.056212262261    -0.611162056687    -1.083789876636     1.007825032230
         H            4.004274262261    -2.087040056687    -0.079863876636     1.007825032230
         H            4.044562262261    -0.478035056687     0.682109123364     1.007825032230

  Basis Set: AUG-CC-PVTZ
    Blend: AUG-CC-PVTZ
  Basis Set: (AUG-CC-PVTZ AUX)
    Blend: AUG-CC-PVTZ-JKFIT
	 Reference Energy          =    -797.3179989762253399 [Eh]
	 Singles Energy            =      -0.0000000000000000 [Eh]
	 Same-Spin Energy          =      -0.4875082407562831 [Eh]
	 Opposite-Spin Energy      =      -1.5031871705401243 [Eh]
	 Correlation Energy        =      -1.9906954112964073 [Eh]
	 Total Energy              =    -799.3086943875217685 [Eh]

	 ================> DF-SCS-MP2 Energies <==================
	-----------------------------------------------------------
	 SCS Same-Spin Scale       =       0.3333333333333333 [-]
	 SCS Opposite-Spin Scale   =       1.2000000000000000 [-]
	 SCS Same-Spin Energy      =      -0.1625027469187610 [Eh]
	 SCS Opposite-Spin Energy  =      -1.8038246046481490 [Eh]
	 SCS Correlation Energy    =      -1.9663273515669100 [Eh]
	 SCS Total Energy          =    -799.2843263277922006 [Eh]
	-----------------------------------------------------------

  Dipole Moment: [D]
     X:    -1.5248      Y:    -3.7084      Z:    -1.1532     Total:     4.1722

*** Psi4 exiting successfully. Buy a developer a beer!
