                               Psi4 1.4a3.dev225

  ==> Input File <==

--------------------------------------------------------------------------
#psi4
#
memory 32 gb

molecule  {
0 1
  S       -0.8053760     1.6060500    -0.1399530
  O        2.1464270     1.2641370     0.3857660
  N        2.2049820    -0.9697390    -0.1110850
  C       -2.1414430    -0.6044570     0.0238790
  C        0.0782130     0.1386370     0.0349560
  C       -0.7635070    -0.9283160     0.1189951
  C       -2.2969850     0.7606620    -0.1265510
  C        1.5543500     0.2131940     0.1149440
  C       -3.2736380    -1.5890470     0.0915590
  C        3.6575090    -0.9906510    -0.1565210
  H       -0.4188890    -1.9677560     0.2899290
  H       -3.2284760     1.3059560    -0.2284190
  H       -3.2707310    -2.1282860     1.0440440
  H       -4.2368380    -1.0812090    -0.0045560
  H       -3.2021610    -2.3307440    -0.7101950
  H        1.7010110    -1.6882330    -0.6139760
  H        4.0494680    -0.5484410    -1.0790020
  H        3.9975300    -2.0243190    -0.0750760
  H        4.0378180    -0.4153140     0.6868970
units angstrom
no_reorient  #important for SAPT in psi4, default
symmetry c1  #important for SAPT in psi4, default
}

set PROPERTIES_ORIGIN ["COM"]
properties('MP2/aug-cc-pvtz', properties = ['dipole'])
--------------------------------------------------------------------------

    Molecular point group: c1
  Charge       = 0
  Multiplicity = 1
  Basis Set: AUG-CC-PVTZ
    Blend: AUG-CC-PVTZ
  Basis Set: (AUG-CC-PVTZ AUX)
    Blend: AUG-CC-PVTZ-JKFIT

    Orbital Energies [Eh]
    ---------------------

    Doubly Occupied:

       1A    -91.988804     2A    -20.522306     3A    -15.589605
       4A    -11.361359     5A    -11.272349     6A    -11.269091
       7A    -11.260795     8A    -11.256471     9A    -11.253523
      10A    -11.238977    11A     -8.988710    12A     -6.669581
      13A     -6.669044    14A     -6.668297    15A     -1.376713
      16A     -1.232096    17A     -1.186163    18A     -1.047442
      19A     -1.007631    20A     -0.954742    21A     -0.923134
      22A     -0.828364    23A     -0.768960    24A     -0.749244
      25A     -0.710078    26A     -0.644179    27A     -0.629294
      28A     -0.620614    29A     -0.592304    30A     -0.590834
      31A     -0.568177    32A     -0.551867    33A     -0.550220
      34A     -0.534633    35A     -0.522483    36A     -0.501715
      37A     -0.477312    38A     -0.435144    39A     -0.399022
      40A     -0.349390    41A     -0.329006

  @DF-RHF Final Energy:  -797.31963864137686

   => Energetics <=

    Nuclear Repulsion Energy =            588.4011543440910827
    One-Electron Energy =               -2261.2622433829528745
    Two-Electron Energy =                 875.5414503974849367
    Total Energy =                       -797.3196386413768550
  Basis Set: (AUG-CC-PVTZ AUX)
    Blend: AUG-CC-PVTZ-RI
    Molecular point group: c1

    Geometry (in Angstrom), charge = 0, multiplicity = 1:

       Center              X                  Y                   Z               Mass
    ------------   -----------------  -----------------  -----------------  -----------------
         S           -0.809614594465     1.534933246877    -0.144207067172    31.972071174400
         O            2.142188405535     1.193020246877     0.381511932828    15.994914619570
         N            2.200743405535    -1.040855753123    -0.115339067172    14.003074004430
         C           -2.145681594465    -0.675573753123     0.019624932828    12.000000000000
         C            0.073974405535     0.067520246877     0.030701932828    12.000000000000
         C           -0.767745594465    -0.999432753123     0.114741032828    12.000000000000
         C           -2.301223594465     0.689545246877    -0.130805067172    12.000000000000
         C            1.550111405535     0.142077246877     0.110689932828    12.000000000000
         C           -3.277876594465    -1.660163753123     0.087304932828    12.000000000000
         C            3.653270405535    -1.061767753123    -0.160775067172    12.000000000000
         H           -0.423127594465    -2.038872753123     0.285674932828     1.007825032230
         H           -3.232714594465     1.234839246877    -0.232673067172     1.007825032230
         H           -3.274969594465    -2.199402753123     1.039789932828     1.007825032230
         H           -4.241076594465    -1.152325753123    -0.008810067172     1.007825032230
         H           -3.206399594465    -2.401860753123    -0.714449067172     1.007825032230
         H            1.696772405535    -1.759349753123    -0.618230067172     1.007825032230
         H            4.045229405535    -0.619557753123    -1.083256067172     1.007825032230
         H            3.993291405535    -2.095435753123    -0.079330067172     1.007825032230
         H            4.033579405535    -0.486430753123     0.682642932828     1.007825032230

  Basis Set: AUG-CC-PVTZ
    Blend: AUG-CC-PVTZ
  Basis Set: (AUG-CC-PVTZ AUX)
    Blend: AUG-CC-PVTZ-JKFIT
	 Reference Energy          =    -797.3196386413768550 [Eh]
	 Singles Energy            =      -0.0000000000000000 [Eh]
	 Same-Spin Energy          =      -0.4866831330065395 [Eh]
	 Opposite-Spin Energy      =      -1.5033029257521995 [Eh]
	 Correlation Energy        =      -1.9899860587587390 [Eh]
	 Total Energy              =    -799.3096247001356005 [Eh]

	 ================> DF-SCS-MP2 Energies <==================
	-----------------------------------------------------------
	 SCS Same-Spin Scale       =       0.3333333333333333 [-]
	 SCS Opposite-Spin Scale   =       1.2000000000000000 [-]
	 SCS Same-Spin Energy      =      -0.1622277110021798 [Eh]
	 SCS Opposite-Spin Energy  =      -1.8039635109026393 [Eh]
	 SCS Correlation Energy    =      -1.9661912219048192 [Eh]
	 SCS Total Energy          =    -799.2858298632817196 [Eh]
	-----------------------------------------------------------

  Dipole Moment: [D]
     X:    -1.4873      Y:    -3.7774      Z:    -1.1436     Total:     4.2176

*** Psi4 exiting successfully. Buy a developer a beer!
