                               Psi4 1.4a3.dev225

  ==> Input File <==

--------------------------------------------------------------------------
#psi4
#
memory 32 gb

molecule  {
0 1
  S       -0.8053760     1.6060500    -0.1399530
  O        2.1464270     1.2641370     0.3857660
  N        2.2049820    -0.9697390    -0.1110850
  C       -2.1414430    -0.6044570     0.0238790
  C        0.0782130     0.1386370     0.0349560
  C       -0.7695060    -0.9522330     0.1212440
  C       -2.3082385     0.8594289    -0.1374347
  C        1.5543500     0.2131940     0.1149440
  C       -3.2736380    -1.5890470     0.0915590
  C        3.6575090    -0.9906510    -0.1565210
  H       -0.4188890    -1.9677560     0.2899290
  H       -3.2284760     1.3059560    -0.2284190
  H       -3.2707310    -2.1282860     1.0440440
  H       -4.2368380    -1.0812090    -0.0045560
  H       -3.2021610    -2.3307440    -0.7101950
  H        1.7010110    -1.6882330    -0.6139760
  H        4.0494680    -0.5484410    -1.0790020
  H        3.9975300    -2.0243190    -0.0750760
  H        4.0378180    -0.4153140     0.6868970
units angstrom
no_reorient  #important for SAPT in psi4, default
symmetry c1  #important for SAPT in psi4, default
}

set PROPERTIES_ORIGIN ["COM"]
properties('MP2/aug-cc-pvtz', properties = ['dipole'])
--------------------------------------------------------------------------

    Molecular point group: c1
  Charge       = 0
  Multiplicity = 1
  Basis Set: AUG-CC-PVTZ
    Blend: AUG-CC-PVTZ
  Basis Set: (AUG-CC-PVTZ AUX)
    Blend: AUG-CC-PVTZ-JKFIT

    Orbital Energies [Eh]
    ---------------------

    Doubly Occupied:

       1A    -91.996881     2A    -20.520581     3A    -15.589202
       4A    -11.360756     5A    -11.273992     6A    -11.273589
       7A    -11.263990     8A    -11.260536     9A    -11.256931
      10A    -11.238003    11A     -8.996556    12A     -6.677442
      13A     -6.676949    14A     -6.676300    15A     -1.375572
      16A     -1.231446    17A     -1.177795    18A     -1.041328
      19A     -1.014745    20A     -0.954620    21A     -0.917311
      22A     -0.826828    23A     -0.771027    24A     -0.752122
      25A     -0.707451    26A     -0.645654    27A     -0.628021
      28A     -0.623044    29A     -0.593927    30A     -0.588424
      31A     -0.569873    32A     -0.552377    33A     -0.549249
      34A     -0.539006    35A     -0.525467    36A     -0.499906
      37A     -0.473160    38A     -0.433425    39A     -0.398718
      40A     -0.353428    41A     -0.313574

  @DF-RHF Final Energy:  -797.30468004220029

   => Energetics <=

    Nuclear Repulsion Energy =            586.9377937965293768
    One-Electron Energy =               -2258.2465305284317765
    Two-Electron Energy =                 874.0040566897021108
    Total Energy =                       -797.3046800422002889
  Basis Set: (AUG-CC-PVTZ AUX)
    Blend: AUG-CC-PVTZ-RI
    Molecular point group: c1

    Geometry (in Angstrom), charge = 0, multiplicity = 1:

       Center              X                  Y                   Z               Mass
    ------------   -----------------  -----------------  -----------------  -----------------
         S           -0.808279265825     1.529139929090    -0.143538741090    31.972071174400
         O            2.143523734175     1.187226929090     0.382180258910    15.994914619570
         N            2.202078734175    -1.046649070910    -0.114670741090    14.003074004430
         C           -2.144346265825    -0.681367070910     0.020293258910    12.000000000000
         C            0.075309734175     0.061726929090     0.031370258910    12.000000000000
         C           -0.772409265825    -1.029143070910     0.117658258910    12.000000000000
         C           -2.311141765825     0.782518829090    -0.141020441090    12.000000000000
         C            1.551446734175     0.136283929090     0.111358258910    12.000000000000
         C           -3.276541265825    -1.665957070910     0.087973258910    12.000000000000
         C            3.654605734175    -1.067561070910    -0.160106741090    12.000000000000
         H           -0.421792265825    -2.044666070910     0.286343258910     1.007825032230
         H           -3.231379265825     1.229045929090    -0.232004741090     1.007825032230
         H           -3.273634265825    -2.205196070910     1.040458258910     1.007825032230
         H           -4.239741265825    -1.158119070910    -0.008141741090     1.007825032230
         H           -3.205064265825    -2.407654070910    -0.713780741090     1.007825032230
         H            1.698107734175    -1.765143070910    -0.617561741090     1.007825032230
         H            4.046564734175    -0.625351070910    -1.082587741090     1.007825032230
         H            3.994626734175    -2.101229070910    -0.078661741090     1.007825032230
         H            4.034914734175    -0.492224070910     0.683311258910     1.007825032230

  Basis Set: AUG-CC-PVTZ
    Blend: AUG-CC-PVTZ
  Basis Set: (AUG-CC-PVTZ AUX)
    Blend: AUG-CC-PVTZ-JKFIT
	 Reference Energy          =    -797.3046800422002889 [Eh]
	 Singles Energy            =      -0.0000000000000000 [Eh]
	 Same-Spin Energy          =      -0.4889541485779155 [Eh]
	 Opposite-Spin Energy      =      -1.5062058270706284 [Eh]
	 Correlation Energy        =      -1.9951599756485439 [Eh]
	 Total Energy              =    -799.2998400178488509 [Eh]

	 ================> DF-SCS-MP2 Energies <==================
	-----------------------------------------------------------
	 SCS Same-Spin Scale       =       0.3333333333333333 [-]
	 SCS Opposite-Spin Scale   =       1.2000000000000000 [-]
	 SCS Same-Spin Energy      =      -0.1629847161926385 [Eh]
	 SCS Opposite-Spin Energy  =      -1.8074469924847540 [Eh]
	 SCS Correlation Energy    =      -1.9704317086773926 [Eh]
	 SCS Total Energy          =    -799.2751117508777270 [Eh]
	-----------------------------------------------------------

  Dipole Moment: [D]
     X:    -1.4835      Y:    -3.7409      Z:    -1.1452     Total:     4.1840

*** Psi4 exiting successfully. Buy a developer a beer!
