                               Psi4 1.4a3.dev225

  ==> Input File <==

--------------------------------------------------------------------------
#psi4
#
memory 32 gb

molecule  {
0 1
  S       -0.8053760     1.6060500    -0.1399530
  O        2.1464270     1.2641370     0.3857660
  N        2.2060643    -0.9554968    -0.0901225
  C       -2.1414430    -0.6044570     0.0238790
  C        0.0782130     0.1386370     0.0349560
  C       -0.7695060    -0.9522330     0.1212440
  C       -2.2969850     0.7606620    -0.1265510
  C        1.5543500     0.2131940     0.1149440
  C       -3.2736380    -1.5890470     0.0915590
  C        3.6575090    -0.9906510    -0.1565210
  H       -0.4188890    -1.9677560     0.2899290
  H       -3.2284760     1.3059560    -0.2284190
  H       -3.2707310    -2.1282860     1.0440440
  H       -4.2368380    -1.0812090    -0.0045560
  H       -3.2021610    -2.3307440    -0.7101950
  H        1.7010110    -1.6882330    -0.6139760
  H        4.0494680    -0.5484410    -1.0790020
  H        3.9975300    -2.0243190    -0.0750760
  H        4.0378180    -0.4153140     0.6868970
units angstrom
no_reorient  #important for SAPT in psi4, default
symmetry c1  #important for SAPT in psi4, default
}

set PROPERTIES_ORIGIN ["COM"]
properties('MP2/aug-cc-pvtz', properties = ['dipole'])
--------------------------------------------------------------------------

    Molecular point group: c1
  Charge       = 0
  Multiplicity = 1
  Basis Set: AUG-CC-PVTZ
    Blend: AUG-CC-PVTZ
  Basis Set: (AUG-CC-PVTZ AUX)
    Blend: AUG-CC-PVTZ-JKFIT

    Orbital Energies [Eh]
    ---------------------

    Doubly Occupied:

       1A    -91.990206     2A    -20.519402     3A    -15.591623
       4A    -11.358748     5A    -11.274790     6A    -11.268875
       7A    -11.261398     8A    -11.257008     9A    -11.253795
      10A    -11.238178    11A     -8.989944    12A     -6.670811
      13A     -6.670262    14A     -6.669550    15A     -1.376613
      16A     -1.232712    17A     -1.183381    18A     -1.046558
      19A     -1.007513    20A     -0.955574    21A     -0.923022
      22A     -0.826412    23A     -0.767884    24A     -0.749721
      25A     -0.708600    26A     -0.645356    27A     -0.629325
      28A     -0.620474    29A     -0.593628    30A     -0.590721
      31A     -0.567398    32A     -0.549759    33A     -0.548688
      34A     -0.534458    35A     -0.524207    36A     -0.500948
      37A     -0.478013    38A     -0.433838    39A     -0.399343
      40A     -0.348057    41A     -0.327709

  @DF-RHF Final Energy:  -797.31868085194185

   => Energetics <=

    Nuclear Repulsion Energy =            588.2027767481990850
    One-Electron Energy =               -2260.8739120728678245
    Two-Electron Energy =                 875.3524544727268903
    Total Energy =                       -797.3186808519418491
  Basis Set: (AUG-CC-PVTZ AUX)
    Blend: AUG-CC-PVTZ-RI
    Molecular point group: c1

    Geometry (in Angstrom), charge = 0, multiplicity = 1:

       Center              X                  Y                   Z               Mass
    ------------   -----------------  -----------------  -----------------  -----------------
         S           -0.809248029093     1.535498063347    -0.146274438405    31.972071174400
         O            2.142554970907     1.193585063347     0.379444561595    15.994914619570
         N            2.202192270907    -1.026048736653    -0.096443938405    14.003074004430
         C           -2.145315029093    -0.675008936653     0.017557561595    12.000000000000
         C            0.074340970907     0.068085063347     0.028634561595    12.000000000000
         C           -0.773378029093    -1.022784936653     0.114922561595    12.000000000000
         C           -2.300857029093     0.690110063347    -0.132872438405    12.000000000000
         C            1.550477970907     0.142642063347     0.108622561595    12.000000000000
         C           -3.277510029093    -1.659598936653     0.085237561595    12.000000000000
         C            3.653636970907    -1.061202936653    -0.162842438405    12.000000000000
         H           -0.422761029093    -2.038307936653     0.283607561595     1.007825032230
         H           -3.232348029093     1.235404063347    -0.234740438405     1.007825032230
         H           -3.274603029093    -2.198837936653     1.037722561595     1.007825032230
         H           -4.240710029093    -1.151760936653    -0.010877438405     1.007825032230
         H           -3.206033029093    -2.401295936653    -0.716516438405     1.007825032230
         H            1.697138970907    -1.758784936653    -0.620297438405     1.007825032230
         H            4.045595970907    -0.618992936653    -1.085323438405     1.007825032230
         H            3.993657970907    -2.094870936653    -0.081397438405     1.007825032230
         H            4.033945970907    -0.485865936653     0.680575561595     1.007825032230

  Basis Set: AUG-CC-PVTZ
    Blend: AUG-CC-PVTZ
  Basis Set: (AUG-CC-PVTZ AUX)
    Blend: AUG-CC-PVTZ-JKFIT
	 Reference Energy          =    -797.3186808519418491 [Eh]
	 Singles Energy            =      -0.0000000000000000 [Eh]
	 Same-Spin Energy          =      -0.4870934941397227 [Eh]
	 Opposite-Spin Energy      =      -1.5038942752298554 [Eh]
	 Correlation Energy        =      -1.9909877693695781 [Eh]
	 Total Energy              =    -799.3096686213114026 [Eh]

	 ================> DF-SCS-MP2 Energies <==================
	-----------------------------------------------------------
	 SCS Same-Spin Scale       =       0.3333333333333333 [-]
	 SCS Opposite-Spin Scale   =       1.2000000000000000 [-]
	 SCS Same-Spin Energy      =      -0.1623644980465742 [Eh]
	 SCS Opposite-Spin Energy  =      -1.8046731302758263 [Eh]
	 SCS Correlation Energy    =      -1.9670376283224005 [Eh]
	 SCS Total Energy          =    -799.2857184802642223 [Eh]
	-----------------------------------------------------------

  Dipole Moment: [D]
     X:    -1.4588      Y:    -3.8024      Z:    -1.1817     Total:     4.2406

*** Psi4 exiting successfully. Buy a developer a beer!
