                               Psi4 1.4a3.dev225

  ==> Input File <==

--------------------------------------------------------------------------
#psi4
#
memory 32 gb

molecule  {
0 1
  S       -0.8053760     1.6060500    -0.1399530
  O        2.1464270     1.2641370     0.3857660
  N        2.2049820    -0.9697390    -0.1110850
  C       -2.1414430    -0.6044570     0.0238790
  C        0.0782130     0.1386370     0.0349560
  C       -0.7695060    -0.9522330     0.1212440
  C       -2.2969850     0.7606620    -0.1265510
  C        1.5543500     0.2131940     0.1149440
  C       -3.2736380    -1.5890470     0.0915590
  C        3.6575090    -0.9906510    -0.1565210
  H       -0.4188890    -1.9677560     0.2899290
  H       -3.2284760     1.3059560    -0.2284190
  H       -3.2707310    -2.1282860     1.0440440
  H       -4.2368380    -1.0812090    -0.0045560
  H       -3.2021610    -2.3307440    -0.7101950
  H        1.7010110    -1.6882330    -0.6139760
  H        4.0586982    -0.5353240    -1.0685941
  H        3.9975300    -2.0243190    -0.0750760
  H        4.0378180    -0.4153140     0.6868970
units angstrom
no_reorient  #important for SAPT in psi4, default
symmetry c1  #important for SAPT in psi4, default
}

set PROPERTIES_ORIGIN ["COM"]
properties('MP2/aug-cc-pvtz', properties = ['dipole'])
--------------------------------------------------------------------------

    Molecular point group: c1
  Charge       = 0
  Multiplicity = 1
  Basis Set: AUG-CC-PVTZ
    Blend: AUG-CC-PVTZ
  Basis Set: (AUG-CC-PVTZ AUX)
    Blend: AUG-CC-PVTZ-JKFIT

    Orbital Energies [Eh]
    ---------------------

    Doubly Occupied:

       1A    -91.990444     2A    -20.522008     3A    -15.589578
       4A    -11.360968     5A    -11.275011     6A    -11.269171
       7A    -11.260569     8A    -11.257307     9A    -11.254023
      10A    -11.238323    11A     -8.990192    12A     -6.671060
      13A     -6.670510    14A     -6.669798    15A     -1.376442
      16A     -1.231798    17A     -1.183584    18A     -1.046686
      19A     -1.007313    20A     -0.954092    21A     -0.922835
      22A     -0.828965    23A     -0.768791    24A     -0.750065
      25A     -0.708726    26A     -0.644546    27A     -0.628535
      28A     -0.620465    29A     -0.594075    30A     -0.590896
      31A     -0.567812    32A     -0.551862    33A     -0.549015
      34A     -0.534659    35A     -0.523619    36A     -0.500691
      37A     -0.478337    38A     -0.434810    39A     -0.398972
      40A     -0.348283    41A     -0.327931

  @DF-RHF Final Energy:  -797.31945854166133

   => Energetics <=

    Nuclear Repulsion Energy =            587.9258060653745588
    One-Electron Energy =               -2260.3049997962152702
    Two-Electron Energy =                 875.0597351891792641
    Total Energy =                       -797.3194585416613336
  Basis Set: (AUG-CC-PVTZ AUX)
    Blend: AUG-CC-PVTZ-RI
    Molecular point group: c1

    Geometry (in Angstrom), charge = 0, multiplicity = 1:

       Center              X                  Y                   Z               Mass
    ------------   -----------------  -----------------  -----------------  -----------------
         S           -0.809210277016     1.536699136341    -0.144448785599    31.972071174400
         O            2.142592722984     1.194786136341     0.381270214401    15.994914619570
         N            2.201147722984    -1.039089863659    -0.115580785599    14.003074004430
         C           -2.145277277016    -0.673807863659     0.019383214401    12.000000000000
         C            0.074378722984     0.069286136341     0.030460214401    12.000000000000
         C           -0.773340277016    -1.021583863659     0.116748214401    12.000000000000
         C           -2.300819277016     0.691311136341    -0.131046785599    12.000000000000
         C            1.550515722984     0.143843136341     0.110448214401    12.000000000000
         C           -3.277472277016    -1.658397863659     0.087063214401    12.000000000000
         C            3.653674722984    -1.060001863659    -0.161016785599    12.000000000000
         H           -0.422723277016    -2.037106863659     0.285433214401     1.007825032230
         H           -3.232310277016     1.236605136341    -0.232914785599     1.007825032230
         H           -3.274565277016    -2.197636863659     1.039548214401     1.007825032230
         H           -4.240672277016    -1.150559863659    -0.009051785599     1.007825032230
         H           -3.205995277016    -2.400094863659    -0.714690785599     1.007825032230
         H            1.697176722984    -1.757583863659    -0.618471785599     1.007825032230
         H            4.054863922984    -0.604674863659    -1.073089885599     1.007825032230
         H            3.993695722984    -2.093669863659    -0.079571785599     1.007825032230
         H            4.033983722984    -0.484664863659     0.682401214401     1.007825032230

  Basis Set: AUG-CC-PVTZ
    Blend: AUG-CC-PVTZ
  Basis Set: (AUG-CC-PVTZ AUX)
    Blend: AUG-CC-PVTZ-JKFIT
	 Reference Energy          =    -797.3194585416613336 [Eh]
	 Singles Energy            =      -0.0000000000000000 [Eh]
	 Same-Spin Energy          =      -0.4870249597173798 [Eh]
	 Opposite-Spin Energy      =      -1.5038047782985400 [Eh]
	 Correlation Energy        =      -1.9908297380159197 [Eh]
	 Total Energy              =    -799.3102882796772519 [Eh]

	 ================> DF-SCS-MP2 Energies <==================
	-----------------------------------------------------------
	 SCS Same-Spin Scale       =       0.3333333333333333 [-]
	 SCS Opposite-Spin Scale   =       1.2000000000000000 [-]
	 SCS Same-Spin Energy      =      -0.1623416532391266 [Eh]
	 SCS Opposite-Spin Energy  =      -1.8045657339582479 [Eh]
	 SCS Correlation Energy    =      -1.9669073871973746 [Eh]
	 SCS Total Energy          =    -799.2863659288586859 [Eh]
	-----------------------------------------------------------

  Dipole Moment: [D]
     X:    -1.4946      Y:    -3.7399      Z:    -1.1424     Total:     4.1864

*** Psi4 exiting successfully. Buy a developer a beer!
