                               Psi4 1.4a3.dev225

  ==> Input File <==

--------------------------------------------------------------------------
#psi4
#
memory 32 gb

molecule  {
0 1
  S       -0.9549202     1.5056349    -0.1340890
  O        2.1464270     1.2641370     0.3857660
  N        2.2049820    -0.9697390    -0.1110850
  C       -2.1414430    -0.6044570     0.0238790
  C        0.0782130     0.1386370     0.0349560
  C       -0.7695060    -0.9522330     0.1212440
  C       -2.2969850     0.7606620    -0.1265510
  C        1.5543500     0.2131940     0.1149440
  C       -3.2736380    -1.5890470     0.0915590
  C        3.6575090    -0.9906510    -0.1565210
  H       -0.4188890    -1.9677560     0.2899290
  H       -3.2284760     1.3059560    -0.2284190
  H       -3.2707310    -2.1282860     1.0440440
  H       -4.2368380    -1.0812090    -0.0045560
  H       -3.2021610    -2.3307440    -0.7101950
  H        1.7010110    -1.6882330    -0.6139760
  H        4.0494680    -0.5484410    -1.0790020
  H        3.9975300    -2.0243190    -0.0750760
  H        4.0378180    -0.4153140     0.6868970
units angstrom
no_reorient  #important for SAPT in psi4, default
symmetry c1  #important for SAPT in psi4, default
}

set PROPERTIES_ORIGIN ["COM"]
properties('MP2/aug-cc-pvtz', properties = ['dipole'])
--------------------------------------------------------------------------

    Molecular point group: c1
  Charge       = 0
  Multiplicity = 1
  Basis Set: AUG-CC-PVTZ
    Blend: AUG-CC-PVTZ
  Basis Set: (AUG-CC-PVTZ AUX)
    Blend: AUG-CC-PVTZ-JKFIT

    Orbital Energies [Eh]
    ---------------------

    Doubly Occupied:

       1A    -91.985367     2A    -20.519498     3A    -15.589052
       4A    -11.361722     5A    -11.269250     6A    -11.260438
       7A    -11.256187     8A    -11.254726     9A    -11.247023
      10A    -11.234429    11A     -8.990797    12A     -6.672343
      13A     -6.670887    14A     -6.670225    15A     -1.374150
      16A     -1.231688    17A     -1.212459    18A     -1.042507
      19A     -1.034536    20A     -0.955029    21A     -0.915966
      22A     -0.826943    23A     -0.768438    24A     -0.761513
      25A     -0.706924    26A     -0.645834    27A     -0.630727
      28A     -0.626000    29A     -0.593269    30A     -0.591250
      31A     -0.575925    32A     -0.551515    33A     -0.550986
      34A     -0.534277    35A     -0.533132    36A     -0.514291
      37A     -0.466704    38A     -0.433200    39A     -0.397971
      40A     -0.359744    41A     -0.318805

  @DF-RHF Final Energy:  -797.29625402234024

   => Energetics <=

    Nuclear Repulsion Energy =            592.5938562243612751
    One-Electron Energy =               -2269.5087657719227536
    Two-Electron Energy =                 879.6186555252211292
    Total Energy =                       -797.2962540223402357
  Basis Set: (AUG-CC-PVTZ AUX)
    Blend: AUG-CC-PVTZ-RI
    Molecular point group: c1

    Geometry (in Angstrom), charge = 0, multiplicity = 1:

       Center              X                  Y                   Z               Mass
    ------------   -----------------  -----------------  -----------------  -----------------
         S           -0.927855836380     1.457076659399    -0.139726389891    31.972071174400
         O            2.173491363620     1.215578759399     0.380128610109    15.994914619570
         N            2.232046363620    -1.018297240601    -0.116722389891    14.003074004430
         C           -2.114378636380    -0.653015240601     0.018241610109    12.000000000000
         C            0.105277363620     0.090078759399     0.029318610109    12.000000000000
         C           -0.742441636380    -1.000791240601     0.115606610109    12.000000000000
         C           -2.269920636380     0.712103759399    -0.132188389891    12.000000000000
         C            1.581414363620     0.164635759399     0.109306610109    12.000000000000
         C           -3.246573636380    -1.637605240601     0.085921610109    12.000000000000
         C            3.684573363620    -1.039209240601    -0.162158389891    12.000000000000
         H           -0.391824636380    -2.016314240601     0.284291610109     1.007825032230
         H           -3.201411636380     1.257397759399    -0.234056389891     1.007825032230
         H           -3.243666636380    -2.176844240601     1.038406610109     1.007825032230
         H           -4.209773636380    -1.129767240601    -0.010193389891     1.007825032230
         H           -3.175096636380    -2.379302240601    -0.715832389891     1.007825032230
         H            1.728075363620    -1.736791240601    -0.619613389891     1.007825032230
         H            4.076532363620    -0.596999240601    -1.084639389891     1.007825032230
         H            4.024594363620    -2.072877240601    -0.080713389891     1.007825032230
         H            4.064882363620    -0.463872240601     0.681259610109     1.007825032230

  Basis Set: AUG-CC-PVTZ
    Blend: AUG-CC-PVTZ
  Basis Set: (AUG-CC-PVTZ AUX)
    Blend: AUG-CC-PVTZ-JKFIT
	 Reference Energy          =    -797.2962540223402357 [Eh]
	 Singles Energy            =      -0.0000000000000000 [Eh]
	 Same-Spin Energy          =      -0.4888462302003451 [Eh]
	 Opposite-Spin Energy      =      -1.5026215869465334 [Eh]
	 Correlation Energy        =      -1.9914678171468785 [Eh]
	 Total Energy              =    -799.2877218394870624 [Eh]

	 ================> DF-SCS-MP2 Energies <==================
	-----------------------------------------------------------
	 SCS Same-Spin Scale       =       0.3333333333333333 [-]
	 SCS Opposite-Spin Scale   =       1.2000000000000000 [-]
	 SCS Same-Spin Energy      =      -0.1629487434001150 [Eh]
	 SCS Opposite-Spin Energy  =      -1.8031459043358400 [Eh]
	 SCS Correlation Energy    =      -1.9660946477359551 [Eh]
	 SCS Total Energy          =    -799.2623486700762214 [Eh]
	-----------------------------------------------------------

  Dipole Moment: [D]
     X:    -1.6257      Y:    -3.6417      Z:    -1.1679     Total:     4.1556

*** Psi4 exiting successfully. Buy a developer a beer!
