                               Psi4 1.4a3.dev225

  ==> Input File <==

--------------------------------------------------------------------------
#psi4
#
memory 32 gb

molecule  {
0 1
  S       -0.8053760     1.6060500    -0.1399530
  O        2.1464270     1.2641370     0.3857660
  N        2.2049820    -0.9697390    -0.1110850
  C       -2.1414430    -0.6044570     0.0238790
  C        0.0782130     0.1386370     0.0349560
  C       -0.8178588    -0.9399759     0.1178125
  C       -2.2969850     0.7606620    -0.1265510
  C        1.5543500     0.2131940     0.1149440
  C       -3.2736380    -1.5890470     0.0915590
  C        3.6575090    -0.9906510    -0.1565210
  H       -0.4188890    -1.9677560     0.2899290
  H       -3.2284760     1.3059560    -0.2284190
  H       -3.2707310    -2.1282860     1.0440440
  H       -4.2368380    -1.0812090    -0.0045560
  H       -3.2021610    -2.3307440    -0.7101950
  H        1.7010110    -1.6882330    -0.6139760
  H        4.0494680    -0.5484410    -1.0790020
  H        3.9975300    -2.0243190    -0.0750760
  H        4.0378180    -0.4153140     0.6868970
units angstrom
no_reorient  #important for SAPT in psi4, default
symmetry c1  #important for SAPT in psi4, default
}

set PROPERTIES_ORIGIN ["COM"]
properties('MP2/aug-cc-pvtz', properties = ['dipole'])
--------------------------------------------------------------------------

    Molecular point group: c1
  Charge       = 0
  Multiplicity = 1
  Basis Set: AUG-CC-PVTZ
    Blend: AUG-CC-PVTZ
  Basis Set: (AUG-CC-PVTZ AUX)
    Blend: AUG-CC-PVTZ-JKFIT

    Orbital Energies [Eh]
    ---------------------

    Doubly Occupied:

       1A    -91.993019     2A    -20.521384     3A    -15.589124
       4A    -11.361376     5A    -11.274927     6A    -11.270549
       7A    -11.260414     8A    -11.256860     9A    -11.249400
      10A    -11.238362    11A     -8.992495    12A     -6.673301
      13A     -6.672808    14A     -6.672157    15A     -1.375988
      16A     -1.231333    17A     -1.188141    18A     -1.048811
      19A     -1.004941    20A     -0.954878    21A     -0.924737
      22A     -0.828968    23A     -0.769645    24A     -0.748518
      25A     -0.706867    26A     -0.643822    27A     -0.629124
      28A     -0.621602    29A     -0.594451    30A     -0.592231
      31A     -0.564083    32A     -0.551278    33A     -0.548579
      34A     -0.540316    35A     -0.519137    36A     -0.502150
      37A     -0.477464    38A     -0.435232    39A     -0.398695
      40A     -0.351328    41A     -0.324777

  @DF-RHF Final Energy:  -797.31446201619133

   => Energetics <=

    Nuclear Repulsion Energy =            588.2076775750002753
    One-Electron Energy =               -2260.8377355368547796
    Two-Electron Energy =                 875.3155959456632900
    Total Energy =                       -797.3144620161913281
  Basis Set: (AUG-CC-PVTZ AUX)
    Blend: AUG-CC-PVTZ-RI
    Molecular point group: c1

    Geometry (in Angstrom), charge = 0, multiplicity = 1:

       Center              X                  Y                   Z               Mass
    ------------   -----------------  -----------------  -----------------  -----------------
         S           -0.805407811961     1.535835713094    -0.144115534951    31.972071174400
         O            2.146395188039     1.193922713094     0.381603465049    15.994914619570
         N            2.204950188039    -1.039953286906    -0.115247534951    14.003074004430
         C           -2.141474811961    -0.674671286906     0.019716465049    12.000000000000
         C            0.078181188039     0.068422713094     0.030793465049    12.000000000000
         C           -0.817890611961    -1.010190186906     0.113649965049    12.000000000000
         C           -2.297016811961     0.690447713094    -0.130713534951    12.000000000000
         C            1.554318188039     0.142979713094     0.110781465049    12.000000000000
         C           -3.273669811961    -1.659261286906     0.087396465049    12.000000000000
         C            3.657477188039    -1.060865286906    -0.160683534951    12.000000000000
         H           -0.418920811961    -2.037970286906     0.285766465049     1.007825032230
         H           -3.228507811961     1.235741713094    -0.232581534951     1.007825032230
         H           -3.270762811961    -2.198500286906     1.039881465049     1.007825032230
         H           -4.236869811961    -1.151423286906    -0.008718534951     1.007825032230
         H           -3.202192811961    -2.400958286906    -0.714357534951     1.007825032230
         H            1.700979188039    -1.758447286906    -0.618138534951     1.007825032230
         H            4.049436188039    -0.618655286906    -1.083164534951     1.007825032230
         H            3.997498188039    -2.094533286906    -0.079238534951     1.007825032230
         H            4.037786188039    -0.485528286906     0.682734465049     1.007825032230

  Basis Set: AUG-CC-PVTZ
    Blend: AUG-CC-PVTZ
  Basis Set: (AUG-CC-PVTZ AUX)
    Blend: AUG-CC-PVTZ-JKFIT
	 Reference Energy          =    -797.3144620161913281 [Eh]
	 Singles Energy            =      -0.0000000000000000 [Eh]
	 Same-Spin Energy          =      -0.4883456250190251 [Eh]
	 Opposite-Spin Energy      =      -1.5050683459704550 [Eh]
	 Correlation Energy        =      -1.9934139709894803 [Eh]
	 Total Energy              =    -799.3078759871808643 [Eh]

	 ================> DF-SCS-MP2 Energies <==================
	-----------------------------------------------------------
	 SCS Same-Spin Scale       =       0.3333333333333333 [-]
	 SCS Opposite-Spin Scale   =       1.2000000000000000 [-]
	 SCS Same-Spin Energy      =      -0.1627818750063417 [Eh]
	 SCS Opposite-Spin Energy  =      -1.8060820151645460 [Eh]
	 SCS Correlation Energy    =      -1.9688638901708877 [Eh]
	 SCS Total Energy          =    -799.2833259063621654 [Eh]
	-----------------------------------------------------------

  Dipole Moment: [D]
     X:    -1.4935      Y:    -3.7129      Z:    -1.1521     Total:     4.1646

*** Psi4 exiting successfully. Buy a developer a beer!
