                               Psi4 1.4a3.dev225

  ==> Input File <==

--------------------------------------------------------------------------
#psi4
#
memory 32 gb

molecule  {
0 1
  S       -0.8053760     1.6060500    -0.1399530
  O        2.1464270     1.2641370     0.3857660
  N        2.2096901    -0.8688205    -0.1202711
  C       -2.1414430    -0.6044570     0.0238790
  C        0.0782130     0.1386370     0.0349560
  C       -0.7695060    -0.9522330     0.1212440
  C       -2.2969850     0.7606620    -0.1265510
  C        1.5543500     0.2131940     0.1149440
  C       -3.2736380    -1.5890470     0.0915590
  C        3.6575090    -0.9906510    -0.1565210
  H       -0.4188890    -1.9677560     0.2899290
  H       -3.2284760     1.3059560    -0.2284190
  H       -3.2707310    -2.1282860     1.0440440
  H       -4.2368380    -1.0812090    -0.0045560
  H       -3.2021610    -2.3307440    -0.7101950
  H        1.7010110    -1.6882330    -0.6139760
  H        4.0494680    -0.5484410    -1.0790020
  H        3.9975300    -2.0243190    -0.0750760
  H        4.0378180    -0.4153140     0.6868970
units angstrom
no_reorient  #important for SAPT in psi4, default
symmetry c1  #important for SAPT in psi4, default
}

set PROPERTIES_ORIGIN ["COM"]
properties('MP2/aug-cc-pvtz', properties = ['dipole'])
--------------------------------------------------------------------------

    Molecular point group: c1
  Charge       = 0
  Multiplicity = 1
  Basis Set: AUG-CC-PVTZ
    Blend: AUG-CC-PVTZ
  Basis Set: (AUG-CC-PVTZ AUX)
    Blend: AUG-CC-PVTZ-JKFIT

    Orbital Energies [Eh]
    ---------------------

    Doubly Occupied:

       1A    -91.988748     2A    -20.504850     3A    -15.598013
       4A    -11.348087     5A    -11.273551     6A    -11.266897
       7A    -11.266518     8A    -11.255282     9A    -11.252500
      10A    -11.237360    11A     -8.988433    12A     -6.669293
      13A     -6.668747    14A     -6.668037    15A     -1.378395
      16A     -1.239628    17A     -1.182109    18A     -1.045791
      19A     -1.008782    20A     -0.964162    21A     -0.923852
      22A     -0.820769    23A     -0.772710    24A     -0.748319
      25A     -0.707905    26A     -0.649041    27A     -0.636681
      28A     -0.618992    29A     -0.591651    30A     -0.589833
      31A     -0.569721    32A     -0.550689    33A     -0.540599
      34A     -0.533104    35A     -0.523880    36A     -0.501575
      37A     -0.476101    38A     -0.426595    39A     -0.396041
      40A     -0.346829    41A     -0.326252

  @DF-RHF Final Energy:  -797.30851927462868

   => Energetics <=

    Nuclear Repulsion Energy =            589.6671404821709075
    One-Electron Energy =               -2263.8386731720638636
    Two-Electron Energy =                 876.8630134152642768
    Total Energy =                       -797.3085192746286793
  Basis Set: (AUG-CC-PVTZ AUX)
    Blend: AUG-CC-PVTZ-RI
    Molecular point group: c1

    Geometry (in Angstrom), charge = 0, multiplicity = 1:

       Center              X                  Y                   Z               Mass
    ------------   -----------------  -----------------  -----------------  -----------------
         S           -0.809575507079     1.527669562019    -0.143551452363    31.972071174400
         O            2.142227492921     1.185756562019     0.382167547637    15.994914619570
         N            2.205490592921    -0.947200937981    -0.123869552363    14.003074004430
         C           -2.145642507079    -0.682837437981     0.020280547637    12.000000000000
         C            0.074013492921     0.060256562019     0.031357547637    12.000000000000
         C           -0.773705507079    -1.030613437981     0.117645547637    12.000000000000
         C           -2.301184507079     0.682281562019    -0.130149452363    12.000000000000
         C            1.550150492921     0.134813562019     0.111345547637    12.000000000000
         C           -3.277837507079    -1.667427437981     0.087960547637    12.000000000000
         C            3.653309492921    -1.069031437981    -0.160119452363    12.000000000000
         H           -0.423088507079    -2.046136437981     0.286330547637     1.007825032230
         H           -3.232675507079     1.227575562019    -0.232017452363     1.007825032230
         H           -3.274930507079    -2.206666437981     1.040445547637     1.007825032230
         H           -4.241037507079    -1.159589437981    -0.008154452363     1.007825032230
         H           -3.206360507079    -2.409124437981    -0.713793452363     1.007825032230
         H            1.696811492921    -1.766613437981    -0.617574452363     1.007825032230
         H            4.045268492921    -0.626821437981    -1.082600452363     1.007825032230
         H            3.993330492921    -2.102699437981    -0.078674452363     1.007825032230
         H            4.033618492921    -0.493694437981     0.683298547637     1.007825032230

  Basis Set: AUG-CC-PVTZ
    Blend: AUG-CC-PVTZ
  Basis Set: (AUG-CC-PVTZ AUX)
    Blend: AUG-CC-PVTZ-JKFIT
	 Reference Energy          =    -797.3085192746286793 [Eh]
	 Singles Energy            =      -0.0000000000000000 [Eh]
	 Same-Spin Energy          =      -0.4873438650300115 [Eh]
	 Opposite-Spin Energy      =      -1.5038257851017884 [Eh]
	 Correlation Energy        =      -1.9911696501317999 [Eh]
	 Total Energy              =    -799.2996889247605168 [Eh]

	 ================> DF-SCS-MP2 Energies <==================
	-----------------------------------------------------------
	 SCS Same-Spin Scale       =       0.3333333333333333 [-]
	 SCS Opposite-Spin Scale   =       1.2000000000000000 [-]
	 SCS Same-Spin Energy      =      -0.1624479550100038 [Eh]
	 SCS Opposite-Spin Energy  =      -1.8045909421221460 [Eh]
	 SCS Correlation Energy    =      -1.9670388971321497 [Eh]
	 SCS Total Energy          =    -799.2755581717608493 [Eh]
	-----------------------------------------------------------

  Dipole Moment: [D]
     X:    -1.2461      Y:    -4.2039      Z:    -1.1796     Total:     4.5406

*** Psi4 exiting successfully. Buy a developer a beer!
