                               Psi4 1.4a3.dev225

  ==> Input File <==

--------------------------------------------------------------------------
#psi4
#
memory 32 gb

molecule  {
0 1
  S       -0.8053760     1.6060500    -0.1399530
  O        2.1464270     1.2641370     0.3857660
  N        2.2046530    -0.9585334    -0.1338394
  C       -2.1414430    -0.6044570     0.0238790
  C        0.0782130     0.1386370     0.0349560
  C       -0.7695060    -0.9522330     0.1212440
  C       -2.2969850     0.7606620    -0.1265510
  C        1.5543500     0.2131940     0.1149440
  C       -3.2736380    -1.5890470     0.0915590
  C        3.6575090    -0.9906510    -0.1565210
  H       -0.4188890    -1.9677560     0.2899290
  H       -3.2284760     1.3059560    -0.2284190
  H       -3.2707310    -2.1282860     1.0440440
  H       -4.2368380    -1.0812090    -0.0045560
  H       -3.2021610    -2.3307440    -0.7101950
  H        1.7010110    -1.6882330    -0.6139760
  H        4.0494680    -0.5484410    -1.0790020
  H        3.9975300    -2.0243190    -0.0750760
  H        4.0378180    -0.4153140     0.6868970
units angstrom
no_reorient  #important for SAPT in psi4, default
symmetry c1  #important for SAPT in psi4, default
}

set PROPERTIES_ORIGIN ["COM"]
properties('MP2/aug-cc-pvtz', properties = ['dipole'])
--------------------------------------------------------------------------

    Molecular point group: c1
  Charge       = 0
  Multiplicity = 1
  Basis Set: AUG-CC-PVTZ
    Blend: AUG-CC-PVTZ
  Basis Set: (AUG-CC-PVTZ AUX)
    Blend: AUG-CC-PVTZ-JKFIT

    Orbital Energies [Eh]
    ---------------------

    Doubly Occupied:

       1A    -91.990206     2A    -20.520328     3A    -15.589373
       4A    -11.360051     5A    -11.274796     6A    -11.268839
       7A    -11.261208     8A    -11.257031     9A    -11.253824
      10A    -11.238199    11A     -8.989949    12A     -6.670816
      13A     -6.670265    14A     -6.669554    15A     -1.376022
      16A     -1.232924    17A     -1.183371    18A     -1.046519
      19A     -1.007283    20A     -0.954793    21A     -0.922901
      22A     -0.829045    23A     -0.770895    24A     -0.749883
      25A     -0.708590    26A     -0.643813    27A     -0.628814
      28A     -0.621629    29A     -0.593785    30A     -0.590829
      31A     -0.567944    32A     -0.552578    33A     -0.549326
      34A     -0.534430    35A     -0.523428    36A     -0.500680
      37A     -0.478043    38A     -0.433887    39A     -0.397910
      40A     -0.348100    41A     -0.327677

  @DF-RHF Final Energy:  -797.31980671113422

   => Energetics <=

    Nuclear Repulsion Energy =            588.0855770303996906
    One-Electron Energy =               -2260.6316974112419302
    Two-Electron Energy =                 875.2263136697080199
    Total Energy =                       -797.3198067111342198
  Basis Set: (AUG-CC-PVTZ AUX)
    Blend: AUG-CC-PVTZ-RI
    Molecular point group: c1

    Geometry (in Angstrom), charge = 0, multiplicity = 1:

       Center              X                  Y                   Z               Mass
    ------------   -----------------  -----------------  -----------------  -----------------
         S           -0.809120562140     1.535772325482    -0.142325979488    31.972071174400
         O            2.142682437860     1.193859325482     0.383393020512    15.994914619570
         N            2.200908437860    -1.028811074518    -0.136212379488    14.003074004430
         C           -2.145187562140    -0.674734674518     0.021506020512    12.000000000000
         C            0.074468437860     0.068359325482     0.032583020512    12.000000000000
         C           -0.773250562140    -1.022510674518     0.118871020512    12.000000000000
         C           -2.300729562140     0.690384325482    -0.128923979488    12.000000000000
         C            1.550605437860     0.142916325482     0.112571020512    12.000000000000
         C           -3.277382562140    -1.659324674518     0.089186020512    12.000000000000
         C            3.653764437860    -1.060928674518    -0.158893979488    12.000000000000
         H           -0.422633562140    -2.038033674518     0.287556020512     1.007825032230
         H           -3.232220562140     1.235678325482    -0.230791979488     1.007825032230
         H           -3.274475562140    -2.198563674518     1.041671020512     1.007825032230
         H           -4.240582562140    -1.151486674518    -0.006928979488     1.007825032230
         H           -3.205905562140    -2.401021674518    -0.712567979488     1.007825032230
         H            1.697266437860    -1.758510674518    -0.616348979488     1.007825032230
         H            4.045723437860    -0.618718674518    -1.081374979488     1.007825032230
         H            3.993785437860    -2.094596674518    -0.077448979488     1.007825032230
         H            4.034073437860    -0.485591674518     0.684524020512     1.007825032230

  Basis Set: AUG-CC-PVTZ
    Blend: AUG-CC-PVTZ
  Basis Set: (AUG-CC-PVTZ AUX)
    Blend: AUG-CC-PVTZ-JKFIT
	 Reference Energy          =    -797.3198067111342198 [Eh]
	 Singles Energy            =      -0.0000000000000000 [Eh]
	 Same-Spin Energy          =      -0.4869910371217542 [Eh]
	 Opposite-Spin Energy      =      -1.5036240104547738 [Eh]
	 Correlation Energy        =      -1.9906150475765281 [Eh]
	 Total Energy              =    -799.3104217587107314 [Eh]

	 ================> DF-SCS-MP2 Energies <==================
	-----------------------------------------------------------
	 SCS Same-Spin Scale       =       0.3333333333333333 [-]
	 SCS Opposite-Spin Scale   =       1.2000000000000000 [-]
	 SCS Same-Spin Energy      =      -0.1623303457072514 [Eh]
	 SCS Opposite-Spin Energy  =      -1.8043488125457285 [Eh]
	 SCS Correlation Energy    =      -1.9666791582529799 [Eh]
	 SCS Total Energy          =    -799.2864858693872065 [Eh]
	-----------------------------------------------------------

  Dipole Moment: [D]
     X:    -1.4620      Y:    -3.8081      Z:    -1.1159     Total:     4.2290

*** Psi4 exiting successfully. Buy a developer a beer!
