                               Psi4 1.4a3.dev225

  ==> Input File <==

--------------------------------------------------------------------------
#psi4
#
memory 32 gb

molecule  {
0 1
  S       -0.8053760     1.6060500    -0.1399530
  O        2.1464270     1.2641370     0.3857660
  N        2.2049820    -0.9697390    -0.1110850
  C       -2.1414430    -0.6044570     0.0238790
  C        0.0782130     0.1386370     0.0349560
  C       -0.7695060    -0.9522330     0.1212440
  C       -2.2969850     0.7606620    -0.1265510
  C        1.5543500     0.2131940     0.1149440
  C       -3.2736380    -1.5890470     0.0915590
  C        3.6575090    -0.9906510    -0.1565210
  H       -0.4188890    -1.9677560     0.2899290
  H       -3.2284760     1.3059560    -0.2284190
  H       -3.2707310    -2.1282860     1.0440440
  H       -4.2368380    -1.0812090    -0.0045560
  H       -3.2021610    -2.3307440    -0.7101950
  H        1.7010110    -1.6882330    -0.6139760
  H        4.0306522    -0.5750751    -1.0989718
  H        3.9975300    -2.0243190    -0.0750760
  H        4.0378180    -0.4153140     0.6868970
units angstrom
no_reorient  #important for SAPT in psi4, default
symmetry c1  #important for SAPT in psi4, default
}

set PROPERTIES_ORIGIN ["COM"]
properties('MP2/aug-cc-pvtz', properties = ['dipole'])
--------------------------------------------------------------------------

    Molecular point group: c1
  Charge       = 0
  Multiplicity = 1
  Basis Set: AUG-CC-PVTZ
    Blend: AUG-CC-PVTZ
  Basis Set: (AUG-CC-PVTZ AUX)
    Blend: AUG-CC-PVTZ-JKFIT

    Orbital Energies [Eh]
    ---------------------

    Doubly Occupied:

       1A    -91.990344     2A    -20.521669     3A    -15.589038
       4A    -11.360744     5A    -11.274896     6A    -11.269077
       7A    -11.260857     8A    -11.257194     9A    -11.253938
      10A    -11.238269    11A     -8.990093    12A     -6.670961
      13A     -6.670411    14A     -6.669699    15A     -1.376199
      16A     -1.231741    17A     -1.183494    18A     -1.046616
      19A     -1.007276    20A     -0.954099    21A     -0.922754
      22A     -0.828482    23A     -0.768580    24A     -0.749934
      25A     -0.708661    26A     -0.643168    27A     -0.629889
      28A     -0.620683    29A     -0.593976    30A     -0.590904
      31A     -0.567722    32A     -0.552749    33A     -0.548391
      34A     -0.534541    35A     -0.523675    36A     -0.500891
      37A     -0.478239    38A     -0.434491    39A     -0.398585
      40A     -0.348198    41A     -0.327845

  @DF-RHF Final Energy:  -797.31938598556053

   => Energetics <=

    Nuclear Repulsion Energy =            587.9434275459869923
    One-Electron Energy =               -2260.3476797616267504
    Two-Electron Energy =                 875.0848662300791148
    Total Energy =                       -797.3193859855605297
  Basis Set: (AUG-CC-PVTZ AUX)
    Blend: AUG-CC-PVTZ-RI
    Molecular point group: c1

    Geometry (in Angstrom), charge = 0, multiplicity = 1:

       Center              X                  Y                   Z               Mass
    ------------   -----------------  -----------------  -----------------  -----------------
         S           -0.809027966822     1.536957534356    -0.144251318425    31.972071174400
         O            2.142775033178     1.195044534356     0.381467681575    15.994914619570
         N            2.201330033178    -1.038831465644    -0.115383318425    14.003074004430
         C           -2.145094966822    -0.673549465644     0.019580681575    12.000000000000
         C            0.074561033178     0.069544534356     0.030657681575    12.000000000000
         C           -0.773157966822    -1.021325465644     0.116945681575    12.000000000000
         C           -2.300636966822     0.691569534356    -0.130849318425    12.000000000000
         C            1.550698033178     0.144101534356     0.110645681575    12.000000000000
         C           -3.277289966822    -1.658139465644     0.087260681575    12.000000000000
         C            3.653857033178    -1.059743465644    -0.160819318425    12.000000000000
         H           -0.422540966822    -2.036848465644     0.285630681575     1.007825032230
         H           -3.232127966822     1.236863534356    -0.232717318425     1.007825032230
         H           -3.274382966822    -2.197378465644     1.039745681575     1.007825032230
         H           -4.240489966822    -1.150301465644    -0.008854318425     1.007825032230
         H           -3.205812966822    -2.399836465644    -0.714493318425     1.007825032230
         H            1.697359033178    -1.757325465644    -0.618274318425     1.007825032230
         H            4.027000233178    -0.644167565644    -1.103270118425     1.007825032230
         H            3.993878033178    -2.093411465644    -0.079374318425     1.007825032230
         H            4.034166033178    -0.484406465644     0.682598681575     1.007825032230

  Basis Set: AUG-CC-PVTZ
    Blend: AUG-CC-PVTZ
  Basis Set: (AUG-CC-PVTZ AUX)
    Blend: AUG-CC-PVTZ-JKFIT
	 Reference Energy          =    -797.3193859855605297 [Eh]
	 Singles Energy            =      -0.0000000000000000 [Eh]
	 Same-Spin Energy          =      -0.4870051850491305 [Eh]
	 Opposite-Spin Energy      =      -1.5037981322126259 [Eh]
	 Correlation Energy        =      -1.9908033172617565 [Eh]
	 Total Energy              =    -799.3101893028223230 [Eh]

	 ================> DF-SCS-MP2 Energies <==================
	-----------------------------------------------------------
	 SCS Same-Spin Scale       =       0.3333333333333333 [-]
	 SCS Opposite-Spin Scale   =       1.2000000000000000 [-]
	 SCS Same-Spin Energy      =      -0.1623350616830435 [Eh]
	 SCS Opposite-Spin Energy  =      -1.8045577586551511 [Eh]
	 SCS Correlation Energy    =      -1.9668928203381946 [Eh]
	 SCS Total Energy          =    -799.2862788058987462 [Eh]
	-----------------------------------------------------------

  Dipole Moment: [D]
     X:    -1.4853      Y:    -3.7624      Z:    -1.1502     Total:     4.2053

*** Psi4 exiting successfully. Buy a developer a beer!
