                               Psi4 1.4a3.dev225

  ==> Input File <==

--------------------------------------------------------------------------
#psi4
#
memory 32 gb

molecule  {
0 1
  S       -0.8053760     1.6060500    -0.1399530
  O        2.1464270     1.2641370     0.3857660
  N        2.2049820    -0.9697390    -0.1110850
  C       -2.1414430    -0.6044570     0.0238790
  C        0.0782130     0.1386370     0.0349560
  C       -0.7695060    -0.9522330     0.1212440
  C       -2.2969850     0.7606620    -0.1265510
  C        1.4546232     0.2081570     0.1095401
  C       -3.2736380    -1.5890470     0.0915590
  C        3.6575090    -0.9906510    -0.1565210
  H       -0.4188890    -1.9677560     0.2899290
  H       -3.2284760     1.3059560    -0.2284190
  H       -3.2707310    -2.1282860     1.0440440
  H       -4.2368380    -1.0812090    -0.0045560
  H       -3.2021610    -2.3307440    -0.7101950
  H        1.7010110    -1.6882330    -0.6139760
  H        4.0494680    -0.5484410    -1.0790020
  H        3.9975300    -2.0243190    -0.0750760
  H        4.0378180    -0.4153140     0.6868970
units angstrom
no_reorient  #important for SAPT in psi4, default
symmetry c1  #important for SAPT in psi4, default
}

set PROPERTIES_ORIGIN ["COM"]
properties('MP2/aug-cc-pvtz', properties = ['dipole'])
--------------------------------------------------------------------------

    Molecular point group: c1
  Charge       = 0
  Multiplicity = 1
  Basis Set: AUG-CC-PVTZ
    Blend: AUG-CC-PVTZ
  Basis Set: (AUG-CC-PVTZ AUX)
    Blend: AUG-CC-PVTZ-JKFIT

    Orbital Energies [Eh]
    ---------------------

    Doubly Occupied:

       1A    -91.997882     2A    -20.512730     3A    -15.583038
       4A    -11.359669     5A    -11.279809     6A    -11.273430
       7A    -11.268956     8A    -11.260675     9A    -11.255681
      10A    -11.243185    11A     -8.997526    12A     -6.678350
      13A     -6.677771    14A     -6.677060    15A     -1.340561
      16A     -1.209090    17A     -1.191718    18A     -1.060677
      19A     -1.018633    20A     -0.955803    21A     -0.926279
      22A     -0.846050    23A     -0.759561    24A     -0.749876
      25A     -0.715044    26A     -0.637749    27A     -0.617081
      28A     -0.614242    29A     -0.597667    30A     -0.594782
      31A     -0.571967    32A     -0.550780    33A     -0.544589
      34A     -0.539110    35A     -0.524048    36A     -0.491494
      37A     -0.483776    38A     -0.427506    39A     -0.385166
      40A     -0.354385    41A     -0.334612

  @DF-RHF Final Energy:  -797.29854853421125

   => Energetics <=

    Nuclear Repulsion Energy =            588.3384178863565239
    One-Electron Energy =               -2261.0579234674005420
    Two-Electron Energy =                 875.4209570468326547
    Total Energy =                       -797.2985485342112497
  Basis Set: (AUG-CC-PVTZ AUX)
    Blend: AUG-CC-PVTZ-RI
    Molecular point group: c1

    Geometry (in Angstrom), charge = 0, multiplicity = 1:

       Center              X                  Y                   Z               Mass
    ------------   -----------------  -----------------  -----------------  -----------------
         S           -0.801431508613     1.537174261538    -0.143962872890    31.972071174400
         O            2.150371491387     1.195261261538     0.381756127110    15.994914619570
         N            2.208926491387    -1.038614738462    -0.115094872890    14.003074004430
         C           -2.137498508613    -0.673332738462     0.019869127110    12.000000000000
         C            0.082157491387     0.069761261538     0.030946127110    12.000000000000
         C           -0.765561508613    -1.021108738462     0.117234127110    12.000000000000
         C           -2.293040508613     0.691786261538    -0.130560872890    12.000000000000
         C            1.458567691387     0.139281261538     0.105530227110    12.000000000000
         C           -3.269693508613    -1.657922738462     0.087549127110    12.000000000000
         C            3.661453491387    -1.059526738462    -0.160530872890    12.000000000000
         H           -0.414944508613    -2.036631738462     0.285919127110     1.007825032230
         H           -3.224531508613     1.237080261538    -0.232428872890     1.007825032230
         H           -3.266786508613    -2.197161738462     1.040034127110     1.007825032230
         H           -4.232893508613    -1.150084738462    -0.008565872890     1.007825032230
         H           -3.198216508613    -2.399619738462    -0.714204872890     1.007825032230
         H            1.704955491387    -1.757108738462    -0.617985872890     1.007825032230
         H            4.053412491387    -0.617316738462    -1.083011872890     1.007825032230
         H            4.001474491387    -2.093194738462    -0.079085872890     1.007825032230
         H            4.041762491387    -0.484189738462     0.682887127110     1.007825032230

  Basis Set: AUG-CC-PVTZ
    Blend: AUG-CC-PVTZ
  Basis Set: (AUG-CC-PVTZ AUX)
    Blend: AUG-CC-PVTZ-JKFIT
	 Reference Energy          =    -797.2985485342112497 [Eh]
	 Singles Energy            =      -0.0000000000000000 [Eh]
	 Same-Spin Energy          =      -0.4896957949741467 [Eh]
	 Opposite-Spin Energy      =      -1.5086413531394918 [Eh]
	 Correlation Energy        =      -1.9983371481136385 [Eh]
	 Total Energy              =    -799.2968856823248416 [Eh]

	 ================> DF-SCS-MP2 Energies <==================
	-----------------------------------------------------------
	 SCS Same-Spin Scale       =       0.3333333333333333 [-]
	 SCS Opposite-Spin Scale   =       1.2000000000000000 [-]
	 SCS Same-Spin Energy      =      -0.1632319316580489 [Eh]
	 SCS Opposite-Spin Energy  =      -1.8103696237673901 [Eh]
	 SCS Correlation Energy    =      -1.9736015554254389 [Eh]
	 SCS Total Energy          =    -799.2721500896367388 [Eh]
	-----------------------------------------------------------

  Dipole Moment: [D]
     X:    -2.3244      Y:    -3.6921      Z:    -1.1638     Total:     4.5154

*** Psi4 exiting successfully. Buy a developer a beer!
