                               Psi4 1.4a3.dev225

  ==> Input File <==

--------------------------------------------------------------------------
#psi4
#
memory 32 gb

molecule  {
0 1
  S       -0.8053760     1.6060500    -0.1399530
  O        2.1464270     1.2641370     0.3857660
  N        2.2049820    -0.9697390    -0.1110850
  C       -2.1414430    -0.6044570     0.0238790
  C        0.0782130     0.1386370     0.0349560
  C       -0.7695060    -0.9522330     0.1212440
  C       -2.2969850     0.7606620    -0.1265510
  C        1.5044866     0.2106755     0.1122420
  C       -3.2736380    -1.5890470     0.0915590
  C        3.6575090    -0.9906510    -0.1565210
  H       -0.4188890    -1.9677560     0.2899290
  H       -3.2284760     1.3059560    -0.2284190
  H       -3.2707310    -2.1282860     1.0440440
  H       -4.2368380    -1.0812090    -0.0045560
  H       -3.2021610    -2.3307440    -0.7101950
  H        1.7010110    -1.6882330    -0.6139760
  H        4.0494680    -0.5484410    -1.0790020
  H        3.9975300    -2.0243190    -0.0750760
  H        4.0378180    -0.4153140     0.6868970
units angstrom
no_reorient  #important for SAPT in psi4, default
symmetry c1  #important for SAPT in psi4, default
}

set PROPERTIES_ORIGIN ["COM"]
properties('MP2/aug-cc-pvtz', properties = ['dipole'])
--------------------------------------------------------------------------

    Molecular point group: c1
  Charge       = 0
  Multiplicity = 1
  Basis Set: AUG-CC-PVTZ
    Blend: AUG-CC-PVTZ
  Basis Set: (AUG-CC-PVTZ AUX)
    Blend: AUG-CC-PVTZ-JKFIT

    Orbital Energies [Eh]
    ---------------------

    Doubly Occupied:

       1A    -91.994071     2A    -20.517506     3A    -15.586334
       4A    -11.360485     5A    -11.274744     6A    -11.274218
       7A    -11.262940     8A    -11.258254     9A    -11.257242
      10A    -11.240671    11A     -8.993767    12A     -6.674614
      13A     -6.674051    14A     -6.673339    15A     -1.358373
      16A     -1.220124    17A     -1.187887    18A     -1.053083
      19A     -1.012833    20A     -0.954177    21A     -0.925312
      22A     -0.837066    23A     -0.760320    24A     -0.754116
      25A     -0.711863    26A     -0.640404    27A     -0.621762
      28A     -0.617861    29A     -0.596124    30A     -0.593074
      31A     -0.569943    32A     -0.549552    33A     -0.546786
      34A     -0.536750    35A     -0.525383    36A     -0.496683
      37A     -0.481184    38A     -0.432347    39A     -0.392058
      40A     -0.351320    41A     -0.331340

  @DF-RHF Final Energy:  -797.31266997358875

   => Energetics <=

    Nuclear Repulsion Energy =            588.1140079649391055
    One-Electron Energy =               -2260.6534398773974317
    Two-Electron Energy =                 875.2267619388696858
    Total Energy =                       -797.3126699735887541
  Basis Set: (AUG-CC-PVTZ AUX)
    Blend: AUG-CC-PVTZ-RI
    Molecular point group: c1

    Geometry (in Angstrom), charge = 0, multiplicity = 1:

       Center              X                  Y                   Z               Mass
    ------------   -----------------  -----------------  -----------------  -----------------
         S           -0.805290892822     1.536979331807    -0.144171997623    31.972071174400
         O            2.146512107178     1.195066331807     0.381547002377    15.994914619570
         N            2.205067107178    -1.038809668193    -0.115303997623    14.003074004430
         C           -2.141357892822    -0.673527668193     0.019660002377    12.000000000000
         C            0.078298107178     0.069566331807     0.030737002377    12.000000000000
         C           -0.769420892822    -1.021303668193     0.117025002377    12.000000000000
         C           -2.296899892822     0.691591331807    -0.130769997623    12.000000000000
         C            1.504571707178     0.141604831807     0.108023002377    12.000000000000
         C           -3.273552892822    -1.658117668193     0.087340002377    12.000000000000
         C            3.657594107178    -1.059721668193    -0.160739997623    12.000000000000
         H           -0.418803892822    -2.036826668193     0.285710002377     1.007825032230
         H           -3.228390892822     1.236885331807    -0.232637997623     1.007825032230
         H           -3.270645892822    -2.197356668193     1.039825002377     1.007825032230
         H           -4.236752892822    -1.150279668193    -0.008774997623     1.007825032230
         H           -3.202075892822    -2.399814668193    -0.714413997623     1.007825032230
         H            1.701096107178    -1.757303668193    -0.618194997623     1.007825032230
         H            4.049553107178    -0.617511668193    -1.083220997623     1.007825032230
         H            3.997615107178    -2.093389668193    -0.079294997623     1.007825032230
         H            4.037903107178    -0.484384668193     0.682678002377     1.007825032230

  Basis Set: AUG-CC-PVTZ
    Blend: AUG-CC-PVTZ
  Basis Set: (AUG-CC-PVTZ AUX)
    Blend: AUG-CC-PVTZ-JKFIT
	 Reference Energy          =    -797.3126699735887541 [Eh]
	 Singles Energy            =      -0.0000000000000000 [Eh]
	 Same-Spin Energy          =      -0.4882180803379343 [Eh]
	 Opposite-Spin Energy      =      -1.5059843921436546 [Eh]
	 Correlation Energy        =      -1.9942024724815890 [Eh]
	 Total Energy              =    -799.3068724460703152 [Eh]

	 ================> DF-SCS-MP2 Energies <==================
	-----------------------------------------------------------
	 SCS Same-Spin Scale       =       0.3333333333333333 [-]
	 SCS Opposite-Spin Scale   =       1.2000000000000000 [-]
	 SCS Same-Spin Energy      =      -0.1627393601126448 [Eh]
	 SCS Opposite-Spin Energy  =      -1.8071812705723855 [Eh]
	 SCS Correlation Energy    =      -1.9699206306850303 [Eh]
	 SCS Total Energy          =    -799.2825906042737643 [Eh]
	-----------------------------------------------------------

  Dipole Moment: [D]
     X:    -1.9091      Y:    -3.7240      Z:    -1.1552     Total:     4.3414

*** Psi4 exiting successfully. Buy a developer a beer!
