                               Psi4 1.4a3.dev225

  ==> Input File <==

--------------------------------------------------------------------------
#psi4
#
memory 32 gb

molecule  {
0 1
  S       -0.8053760     1.6060500    -0.1399530
  O        2.1464270     1.2641370     0.3857660
  N        2.2049820    -0.9697390    -0.1110850
  C       -2.1414430    -0.6044570     0.0238790
  C        0.1038718     0.0960244     0.0400352
  C       -0.7695060    -0.9522330     0.1212440
  C       -2.2969850     0.7606620    -0.1265510
  C        1.5543500     0.2131940     0.1149440
  C       -3.2736380    -1.5890470     0.0915590
  C        3.6575090    -0.9906510    -0.1565210
  H       -0.4188890    -1.9677560     0.2899290
  H       -3.2284760     1.3059560    -0.2284190
  H       -3.2707310    -2.1282860     1.0440440
  H       -4.2368380    -1.0812090    -0.0045560
  H       -3.2021610    -2.3307440    -0.7101950
  H        1.7010110    -1.6882330    -0.6139760
  H        4.0494680    -0.5484410    -1.0790020
  H        3.9975300    -2.0243190    -0.0750760
  H        4.0378180    -0.4153140     0.6868970
units angstrom
no_reorient  #important for SAPT in psi4, default
symmetry c1  #important for SAPT in psi4, default
}

set PROPERTIES_ORIGIN ["COM"]
properties('MP2/aug-cc-pvtz', properties = ['dipole'])
--------------------------------------------------------------------------

    Molecular point group: c1
  Charge       = 0
  Multiplicity = 1
  Basis Set: AUG-CC-PVTZ
    Blend: AUG-CC-PVTZ
  Basis Set: (AUG-CC-PVTZ AUX)
    Blend: AUG-CC-PVTZ-JKFIT

    Orbital Energies [Eh]
    ---------------------

    Doubly Occupied:

       1A    -91.988256     2A    -20.522684     3A    -15.588674
       4A    -11.360197     5A    -11.275297     6A    -11.271934
       7A    -11.260146     8A    -11.259258     9A    -11.254441
      10A    -11.239000    11A     -8.987339    12A     -6.668188
      13A     -6.667570    14A     -6.666927    15A     -1.377050
      16A     -1.232622    17A     -1.181050    18A     -1.046301
      19A     -1.010170    20A     -0.956660    21A     -0.920177
      22A     -0.832341    23A     -0.769360    24A     -0.752246
      25A     -0.711012    26A     -0.644408    27A     -0.629381
      28A     -0.619648    29A     -0.595501    30A     -0.591407
      31A     -0.570590    32A     -0.551294    33A     -0.549749
      34A     -0.536904    35A     -0.516642    36A     -0.498811
      37A     -0.473957    38A     -0.435796    39A     -0.399208
      40A     -0.351963    41A     -0.326784

  @DF-RHF Final Energy:  -797.31725110684590

   => Energetics <=

    Nuclear Repulsion Energy =            587.6017858464200572
    One-Electron Energy =               -2259.6561805495371118
    Two-Electron Energy =                 874.7371435962710393
    Total Energy =                       -797.3172511068459016
  Basis Set: (AUG-CC-PVTZ AUX)
    Blend: AUG-CC-PVTZ-RI
    Molecular point group: c1

    Geometry (in Angstrom), charge = 0, multiplicity = 1:

       Center              X                  Y                   Z               Mass
    ------------   -----------------  -----------------  -----------------  -----------------
         S           -0.811136246051     1.540082580611    -0.144774255800    31.972071174400
         O            2.140666753949     1.198169580611     0.380944744200    15.994914619570
         N            2.199221753949    -1.035706419389    -0.115906255800    14.003074004430
         C           -2.147203246051    -0.670424419389     0.019057744200    12.000000000000
         C            0.098111553949     0.030056980611     0.035213944200    12.000000000000
         C           -0.775266246051    -1.018200419389     0.116422744200    12.000000000000
         C           -2.302745246051     0.694694580611    -0.131372255800    12.000000000000
         C            1.548589753949     0.147226580611     0.110122744200    12.000000000000
         C           -3.279398246051    -1.655014419389     0.086737744200    12.000000000000
         C            3.651748753949    -1.056618419389    -0.161342255800    12.000000000000
         H           -0.424649246051    -2.033723419389     0.285107744200     1.007825032230
         H           -3.234236246051     1.239988580611    -0.233240255800     1.007825032230
         H           -3.276491246051    -2.194253419389     1.039222744200     1.007825032230
         H           -4.242598246051    -1.147176419389    -0.009377255800     1.007825032230
         H           -3.207921246051    -2.396711419389    -0.715016255800     1.007825032230
         H            1.695250753949    -1.754200419389    -0.618797255800     1.007825032230
         H            4.043707753949    -0.614408419389    -1.083823255800     1.007825032230
         H            3.991769753949    -2.090286419389    -0.079897255800     1.007825032230
         H            4.032057753949    -0.481281419389     0.682075744200     1.007825032230

  Basis Set: AUG-CC-PVTZ
    Blend: AUG-CC-PVTZ
  Basis Set: (AUG-CC-PVTZ AUX)
    Blend: AUG-CC-PVTZ-JKFIT
	 Reference Energy          =    -797.3172511068459016 [Eh]
	 Singles Energy            =      -0.0000000000000000 [Eh]
	 Same-Spin Energy          =      -0.4868618851601215 [Eh]
	 Opposite-Spin Energy      =      -1.5041155717599730 [Eh]
	 Correlation Energy        =      -1.9909774569200944 [Eh]
	 Total Energy              =    -799.3082285637659652 [Eh]

	 ================> DF-SCS-MP2 Energies <==================
	-----------------------------------------------------------
	 SCS Same-Spin Scale       =       0.3333333333333333 [-]
	 SCS Opposite-Spin Scale   =       1.2000000000000000 [-]
	 SCS Same-Spin Energy      =      -0.1622872950533738 [Eh]
	 SCS Opposite-Spin Energy  =      -1.8049386861119676 [Eh]
	 SCS Correlation Energy    =      -1.9672259811653414 [Eh]
	 SCS Total Energy          =    -799.2844770880112719 [Eh]
	-----------------------------------------------------------

  Dipole Moment: [D]
     X:    -1.5222      Y:    -3.8222      Z:    -1.1325     Total:     4.2672

*** Psi4 exiting successfully. Buy a developer a beer!
