                               Psi4 1.4a3.dev225

  ==> Input File <==

--------------------------------------------------------------------------
#psi4
#
memory 32 gb

molecule  {
0 1
  S       -0.8053760     1.6060500    -0.1399530
  O        2.1464270     1.2641370     0.3857660
  N        2.2049820    -0.9697390    -0.1110850
  C       -2.1414430    -0.6044570     0.0238790
  C        0.0782130     0.1386370     0.0349560
  C       -0.7503342    -0.9666285     0.1242212
  C       -2.2969850     0.7606620    -0.1265510
  C        1.5543500     0.2131940     0.1149440
  C       -3.2736380    -1.5890470     0.0915590
  C        3.6575090    -0.9906510    -0.1565210
  H       -0.4188890    -1.9677560     0.2899290
  H       -3.2284760     1.3059560    -0.2284190
  H       -3.2707310    -2.1282860     1.0440440
  H       -4.2368380    -1.0812090    -0.0045560
  H       -3.2021610    -2.3307440    -0.7101950
  H        1.7010110    -1.6882330    -0.6139760
  H        4.0494680    -0.5484410    -1.0790020
  H        3.9975300    -2.0243190    -0.0750760
  H        4.0378180    -0.4153140     0.6868970
units angstrom
no_reorient  #important for SAPT in psi4, default
symmetry c1  #important for SAPT in psi4, default
}

set PROPERTIES_ORIGIN ["COM"]
properties('MP2/aug-cc-pvtz', properties = ['dipole'])
--------------------------------------------------------------------------

    Molecular point group: c1
  Charge       = 0
  Multiplicity = 1
  Basis Set: AUG-CC-PVTZ
    Blend: AUG-CC-PVTZ
  Basis Set: (AUG-CC-PVTZ AUX)
    Blend: AUG-CC-PVTZ-JKFIT

    Orbital Energies [Eh]
    ---------------------

    Doubly Occupied:

       1A    -91.990005     2A    -20.521914     3A    -15.589394
       4A    -11.360462     5A    -11.276006     6A    -11.268633
       7A    -11.260696     8A    -11.257773     9A    -11.256032
      10A    -11.238052    11A     -8.989804    12A     -6.670696
      13A     -6.670116    14A     -6.669393    15A     -1.376353
      16A     -1.231826    17A     -1.180844    18A     -1.045719
      19A     -1.008166    20A     -0.953577    21A     -0.921835
      22A     -0.828976    23A     -0.768349    24A     -0.751169
      25A     -0.709089    26A     -0.644137    27A     -0.628786
      28A     -0.620080    29A     -0.594945    30A     -0.590239
      31A     -0.569142    32A     -0.551797    33A     -0.549294
      34A     -0.531751    35A     -0.525495    36A     -0.499853
      37A     -0.478854    38A     -0.434172    39A     -0.398845
      40A     -0.347270    41A     -0.328309

  @DF-RHF Final Energy:  -797.31920909515009

   => Energetics <=

    Nuclear Repulsion Energy =            587.6434494246631175
    One-Electron Energy =               -2259.7496190293836662
    Two-Electron Energy =                 874.7869605095703491
    Total Energy =                       -797.3192090951500859
  Basis Set: (AUG-CC-PVTZ AUX)
    Blend: AUG-CC-PVTZ-RI
    Molecular point group: c1

    Geometry (in Angstrom), charge = 0, multiplicity = 1:

       Center              X                  Y                   Z               Mass
    ------------   -----------------  -----------------  -----------------  -----------------
         S           -0.810634157838     1.537898601377    -0.144611562811    31.972071174400
         O            2.141168842162     1.195985601377     0.381107437189    15.994914619570
         N            2.199723842162    -1.037890398623    -0.115743562811    14.003074004430
         C           -2.146701157838    -0.672608398623     0.019220437189    12.000000000000
         C            0.072954842162     0.070485601377     0.030297437189    12.000000000000
         C           -0.755592357838    -1.034779898623     0.119562637189    12.000000000000
         C           -2.302243157838     0.692510601377    -0.131209562811    12.000000000000
         C            1.549091842162     0.145042601377     0.110285437189    12.000000000000
         C           -3.278896157838    -1.657198398623     0.086900437189    12.000000000000
         C            3.652250842162    -1.058802398623    -0.161179562811    12.000000000000
         H           -0.424147157838    -2.035907398623     0.285270437189     1.007825032230
         H           -3.233734157838     1.237804601377    -0.233077562811     1.007825032230
         H           -3.275989157838    -2.196437398623     1.039385437189     1.007825032230
         H           -4.242096157838    -1.149360398623    -0.009214562811     1.007825032230
         H           -3.207419157838    -2.398895398623    -0.714853562811     1.007825032230
         H            1.695752842162    -1.756384398623    -0.618634562811     1.007825032230
         H            4.044209842162    -0.616592398623    -1.083660562811     1.007825032230
         H            3.992271842162    -2.092470398623    -0.079734562811     1.007825032230
         H            4.032559842162    -0.483465398623     0.682238437189     1.007825032230

  Basis Set: AUG-CC-PVTZ
    Blend: AUG-CC-PVTZ
  Basis Set: (AUG-CC-PVTZ AUX)
    Blend: AUG-CC-PVTZ-JKFIT
	 Reference Energy          =    -797.3192090951500859 [Eh]
	 Singles Energy            =      -0.0000000000000000 [Eh]
	 Same-Spin Energy          =      -0.4866027165477315 [Eh]
	 Opposite-Spin Energy      =      -1.5035546247963023 [Eh]
	 Correlation Energy        =      -1.9901573413440339 [Eh]
	 Total Energy              =    -799.3093664364940878 [Eh]

	 ================> DF-SCS-MP2 Energies <==================
	-----------------------------------------------------------
	 SCS Same-Spin Scale       =       0.3333333333333333 [-]
	 SCS Opposite-Spin Scale   =       1.2000000000000000 [-]
	 SCS Same-Spin Energy      =      -0.1622009055159105 [Eh]
	 SCS Opposite-Spin Energy  =      -1.8042655497555626 [Eh]
	 SCS Correlation Energy    =      -1.9664664552714730 [Eh]
	 SCS Total Energy          =    -799.2856755504216153 [Eh]
	-----------------------------------------------------------

  Dipole Moment: [D]
     X:    -1.4929      Y:    -3.7500      Z:    -1.1431     Total:     4.1950

*** Psi4 exiting successfully. Buy a developer a beer!
