                               Psi4 1.4a3.dev225

  ==> Input File <==

--------------------------------------------------------------------------
#psi4
#
memory 32 gb

molecule  {
0 1
  S       -0.7769287     1.5538482    -0.1330705
  O        2.1464270     1.2641370     0.3857660
  N        2.2049820    -0.9697390    -0.1110850
  C       -2.1414430    -0.6044570     0.0238790
  C        0.0782130     0.1386370     0.0349560
  C       -0.7695060    -0.9522330     0.1212440
  C       -2.2969850     0.7606620    -0.1265510
  C        1.5543500     0.2131940     0.1149440
  C       -3.2736380    -1.5890470     0.0915590
  C        3.6575090    -0.9906510    -0.1565210
  H       -0.4188890    -1.9677560     0.2899290
  H       -3.2284760     1.3059560    -0.2284190
  H       -3.2707310    -2.1282860     1.0440440
  H       -4.2368380    -1.0812090    -0.0045560
  H       -3.2021610    -2.3307440    -0.7101950
  H        1.7010110    -1.6882330    -0.6139760
  H        4.0494680    -0.5484410    -1.0790020
  H        3.9975300    -2.0243190    -0.0750760
  H        4.0378180    -0.4153140     0.6868970
units angstrom
no_reorient  #important for SAPT in psi4, default
symmetry c1  #important for SAPT in psi4, default
}

set PROPERTIES_ORIGIN ["COM"]
properties('MP2/aug-cc-pvtz', properties = ['dipole'])
--------------------------------------------------------------------------

    Molecular point group: c1
  Charge       = 0
  Multiplicity = 1
  Basis Set: AUG-CC-PVTZ
    Blend: AUG-CC-PVTZ
  Basis Set: (AUG-CC-PVTZ AUX)
    Blend: AUG-CC-PVTZ-JKFIT

    Orbital Energies [Eh]
    ---------------------

    Doubly Occupied:

       1A    -91.988332     2A    -20.522952     3A    -15.589980
       4A    -11.361962     5A    -11.270317     6A    -11.267387
       7A    -11.261026     8A    -11.254243     9A    -11.253132
      10A    -11.237728    11A     -8.989540    12A     -6.670480
      13A     -6.669938    14A     -6.669144    15A     -1.377652
      16A     -1.232480    17A     -1.191136    18A     -1.051655
      19A     -1.005122    20A     -0.953622    21A     -0.927055
      22A     -0.828683    23A     -0.768576    24A     -0.750743
      25A     -0.708674    26A     -0.645284    27A     -0.629805
      28A     -0.623291    29A     -0.593155    30A     -0.590933
      31A     -0.569490    32A     -0.552685    33A     -0.551640
      34A     -0.534444    35A     -0.529023    36A     -0.503717
      37A     -0.474706    38A     -0.435737    39A     -0.399410
      40A     -0.344183    41A     -0.331395

  @DF-RHF Final Energy:  -797.31783125146126

   => Energetics <=

    Nuclear Repulsion Energy =            590.7312430498301410
    One-Electron Energy =               -2265.8772361241567523
    Two-Electron Energy =                 877.8281618228654679
    Total Energy =                       -797.3178312514612571
  Basis Set: (AUG-CC-PVTZ AUX)
    Blend: AUG-CC-PVTZ-RI
    Molecular point group: c1

    Geometry (in Angstrom), charge = 0, multiplicity = 1:

       Center              X                  Y                   Z               Mass
    ------------   -----------------  -----------------  -----------------  -----------------
         S           -0.786569309944     1.495347530115    -0.138917922480    31.972071174400
         O            2.136786390056     1.205636330115     0.379918577520    15.994914619570
         N            2.195341390056    -1.028239669885    -0.116932422480    14.003074004430
         C           -2.151083609944    -0.662957669885     0.018031577520    12.000000000000
         C            0.068572390056     0.080136330115     0.029108577520    12.000000000000
         C           -0.779146609944    -1.010733669885     0.115396577520    12.000000000000
         C           -2.306625609944     0.702161330115    -0.132398422480    12.000000000000
         C            1.544709390056     0.154693330115     0.109096577520    12.000000000000
         C           -3.283278609944    -1.647547669885     0.085711577520    12.000000000000
         C            3.647868390056    -1.049151669885    -0.162368422480    12.000000000000
         H           -0.428529609944    -2.026256669885     0.284081577520     1.007825032230
         H           -3.238116609944     1.247455330115    -0.234266422480     1.007825032230
         H           -3.280371609944    -2.186786669885     1.038196577520     1.007825032230
         H           -4.246478609944    -1.139709669885    -0.010403422480     1.007825032230
         H           -3.211801609944    -2.389244669885    -0.716042422480     1.007825032230
         H            1.691370390056    -1.746733669885    -0.619823422480     1.007825032230
         H            4.039827390056    -0.606941669885    -1.084849422480     1.007825032230
         H            3.987889390056    -2.082819669885    -0.080923422480     1.007825032230
         H            4.028177390056    -0.473814669885     0.681049577520     1.007825032230

  Basis Set: AUG-CC-PVTZ
    Blend: AUG-CC-PVTZ
  Basis Set: (AUG-CC-PVTZ AUX)
    Blend: AUG-CC-PVTZ-JKFIT
	 Reference Energy          =    -797.3178312514612571 [Eh]
	 Singles Energy            =      -0.0000000000000000 [Eh]
	 Same-Spin Energy          =      -0.4876849985678590 [Eh]
	 Opposite-Spin Energy      =      -1.5035320838128010 [Eh]
	 Correlation Energy        =      -1.9912170823806599 [Eh]
	 Total Energy              =    -799.3090483338419290 [Eh]

	 ================> DF-SCS-MP2 Energies <==================
	-----------------------------------------------------------
	 SCS Same-Spin Scale       =       0.3333333333333333 [-]
	 SCS Opposite-Spin Scale   =       1.2000000000000000 [-]
	 SCS Same-Spin Energy      =      -0.1625616661892863 [Eh]
	 SCS Opposite-Spin Energy  =      -1.8042385005753612 [Eh]
	 SCS Correlation Energy    =      -1.9668001667646475 [Eh]
	 SCS Total Energy          =    -799.2846314182258993 [Eh]
	-----------------------------------------------------------

  Dipole Moment: [D]
     X:    -1.4611      Y:    -3.7266      Z:    -1.1470     Total:     4.1639

*** Psi4 exiting successfully. Buy a developer a beer!
