                               Psi4 1.4a3.dev225

  ==> Input File <==

--------------------------------------------------------------------------
#psi4
#
memory 32 gb

molecule  {
0 1
  S       -0.8053760     1.6060500    -0.1399530
  O        2.1464270     1.2641370     0.3857660
  N        2.2049820    -0.9697390    -0.1110850
  C       -2.1414430    -0.6044570     0.0238790
  C        0.0782130     0.1386370     0.0349560
  C       -0.8662115    -0.9277189     0.1143809
  C       -2.2969850     0.7606620    -0.1265510
  C        1.5543500     0.2131940     0.1149440
  C       -3.2736380    -1.5890470     0.0915590
  C        3.6575090    -0.9906510    -0.1565210
  H       -0.4188890    -1.9677560     0.2899290
  H       -3.2284760     1.3059560    -0.2284190
  H       -3.2707310    -2.1282860     1.0440440
  H       -4.2368380    -1.0812090    -0.0045560
  H       -3.2021610    -2.3307440    -0.7101950
  H        1.7010110    -1.6882330    -0.6139760
  H        4.0494680    -0.5484410    -1.0790020
  H        3.9975300    -2.0243190    -0.0750760
  H        4.0378180    -0.4153140     0.6868970
units angstrom
no_reorient  #important for SAPT in psi4, default
symmetry c1  #important for SAPT in psi4, default
}

set PROPERTIES_ORIGIN ["COM"]
properties('MP2/aug-cc-pvtz', properties = ['dipole'])
--------------------------------------------------------------------------

    Molecular point group: c1
  Charge       = 0
  Multiplicity = 1
  Basis Set: AUG-CC-PVTZ
    Blend: AUG-CC-PVTZ
  Basis Set: (AUG-CC-PVTZ AUX)
    Blend: AUG-CC-PVTZ-JKFIT

    Orbital Energies [Eh]
    ---------------------

    Doubly Occupied:

       1A    -91.996054     2A    -20.520653     3A    -15.588685
       4A    -11.361659     5A    -11.274784     6A    -11.272235
       7A    -11.260064     8A    -11.256197     9A    -11.244238
      10A    -11.238499    11A     -8.995220    12A     -6.675960
      13A     -6.675522    14A     -6.674939    15A     -1.375439
      16A     -1.230781    17A     -1.193692    18A     -1.051863
      19A     -1.002446    20A     -0.955992    21A     -0.926417
      22A     -0.829238    23A     -0.770660    24A     -0.746574
      25A     -0.706033    26A     -0.643491    27A     -0.629389
      28A     -0.622523    29A     -0.595396    30A     -0.593504
      31A     -0.560525    32A     -0.550837    33A     -0.548406
      34A     -0.544082    35A     -0.514231    36A     -0.503495
      37A     -0.475728    38A     -0.435360    39A     -0.398414
      40A     -0.356461    41A     -0.320480

  @DF-RHF Final Energy:  -797.30246829746852

   => Energetics <=

    Nuclear Repulsion Energy =            588.5237223743523600
    One-Electron Energy =               -2261.4200510421524086
    Two-Electron Energy =                 875.5938603703314129
    Total Energy =                       -797.3024682974685220
  Basis Set: (AUG-CC-PVTZ AUX)
    Blend: AUG-CC-PVTZ-RI
    Molecular point group: c1

    Geometry (in Angstrom), charge = 0, multiplicity = 1:

       Center              X                  Y                   Z               Mass
    ------------   -----------------  -----------------  -----------------  -----------------
         S           -0.801665354630     1.534887031852    -0.143849932067    31.972071174400
         O            2.150137645370     1.192974031852     0.381869067933    15.994914619570
         N            2.208692645370    -1.040901968148    -0.114981932067    14.003074004430
         C           -2.137732354630    -0.675619968148     0.019982067933    12.000000000000
         C            0.081923645370     0.067474031852     0.031059067933    12.000000000000
         C           -0.862500854630    -0.998881868148     0.110483967933    12.000000000000
         C           -2.293274354630     0.689499031852    -0.130447932067    12.000000000000
         C            1.558060645370     0.142031031852     0.111047067933    12.000000000000
         C           -3.269927354630    -1.660209968148     0.087662067933    12.000000000000
         C            3.661219645370    -1.061813968148    -0.160417932067    12.000000000000
         H           -0.415178354630    -2.038918968148     0.286032067933     1.007825032230
         H           -3.224765354630     1.234793031852    -0.232315932067     1.007825032230
         H           -3.267020354630    -2.199448968148     1.040147067933     1.007825032230
         H           -4.233127354630    -1.152371968148    -0.008452932067     1.007825032230
         H           -3.198450354630    -2.401906968148    -0.714091932067     1.007825032230
         H            1.704721645370    -1.759395968148    -0.617872932067     1.007825032230
         H            4.053178645370    -0.619603968148    -1.082898932067     1.007825032230
         H            4.001240645370    -2.095481968148    -0.078972932067     1.007825032230
         H            4.041528645370    -0.486476968148     0.683000067933     1.007825032230

  Basis Set: AUG-CC-PVTZ
    Blend: AUG-CC-PVTZ
  Basis Set: (AUG-CC-PVTZ AUX)
    Blend: AUG-CC-PVTZ-JKFIT
	 Reference Energy          =    -797.3024682974685220 [Eh]
	 Singles Energy            =      -0.0000000000000000 [Eh]
	 Same-Spin Energy          =      -0.4897610511062528 [Eh]
	 Opposite-Spin Energy      =      -1.5066377453804136 [Eh]
	 Correlation Energy        =      -1.9963987964866665 [Eh]
	 Total Energy              =    -799.2988670939552094 [Eh]

	 ================> DF-SCS-MP2 Energies <==================
	-----------------------------------------------------------
	 SCS Same-Spin Scale       =       0.3333333333333333 [-]
	 SCS Opposite-Spin Scale   =       1.2000000000000000 [-]
	 SCS Same-Spin Energy      =      -0.1632536837020843 [Eh]
	 SCS Opposite-Spin Energy  =      -1.8079652944564963 [Eh]
	 SCS Correlation Energy    =      -1.9712189781585805 [Eh]
	 SCS Total Energy          =    -799.2736872756271396 [Eh]
	-----------------------------------------------------------

  Dipole Moment: [D]
     X:    -1.4943      Y:    -3.6791      Z:    -1.1590     Total:     4.1367

*** Psi4 exiting successfully. Buy a developer a beer!
