                               Psi4 1.4a3.dev225

  ==> Input File <==

--------------------------------------------------------------------------
#psi4
#
memory 32 gb

molecule  {
0 1
  S       -0.8053760     1.6060500    -0.1399530
  O        2.2206063     1.2206158     0.3787334
  N        2.2049820    -0.9697390    -0.1110850
  C       -2.1414430    -0.6044570     0.0238790
  C        0.0782130     0.1386370     0.0349560
  C       -0.7695060    -0.9522330     0.1212440
  C       -2.2969850     0.7606620    -0.1265510
  C        1.5543500     0.2131940     0.1149440
  C       -3.2736380    -1.5890470     0.0915590
  C        3.6575090    -0.9906510    -0.1565210
  H       -0.4188890    -1.9677560     0.2899290
  H       -3.2284760     1.3059560    -0.2284190
  H       -3.2707310    -2.1282860     1.0440440
  H       -4.2368380    -1.0812090    -0.0045560
  H       -3.2021610    -2.3307440    -0.7101950
  H        1.7010110    -1.6882330    -0.6139760
  H        4.0494680    -0.5484410    -1.0790020
  H        3.9975300    -2.0243190    -0.0750760
  H        4.0378180    -0.4153140     0.6868970
units angstrom
no_reorient  #important for SAPT in psi4, default
symmetry c1  #important for SAPT in psi4, default
}

set PROPERTIES_ORIGIN ["COM"]
properties('MP2/aug-cc-pvtz', properties = ['dipole'])
--------------------------------------------------------------------------

    Molecular point group: c1
  Charge       = 0
  Multiplicity = 1
  Basis Set: AUG-CC-PVTZ
    Blend: AUG-CC-PVTZ
  Basis Set: (AUG-CC-PVTZ AUX)
    Blend: AUG-CC-PVTZ-JKFIT

    Orbital Energies [Eh]
    ---------------------

    Doubly Occupied:

       1A    -91.992905     2A    -20.519898     3A    -15.584765
       4A    -11.359954     5A    -11.278383     6A    -11.271641
       7A    -11.260123     8A    -11.257208     9A    -11.256191
      10A    -11.239785    11A     -8.992676    12A     -6.673550
      13A     -6.672998    14A     -6.672287    15A     -1.376567
      16A     -1.225845    17A     -1.185897    18A     -1.048963
      19A     -1.008974    20A     -0.953599    21A     -0.923487
      22A     -0.828922    23A     -0.766405    24A     -0.751989
      25A     -0.710323    26A     -0.641562    27A     -0.627914
      28A     -0.619955    29A     -0.595661    30A     -0.592264
      31A     -0.568493    32A     -0.548459    33A     -0.547365
      34A     -0.536046    35A     -0.524920    36A     -0.501788
      37A     -0.480450    38A     -0.434392    39A     -0.395017
      40A     -0.350306    41A     -0.330502

  @DF-RHF Final Energy:  -797.31790979720893

   => Energetics <=

    Nuclear Repulsion Energy =            587.5717357820095685
    One-Electron Energy =               -2259.5624346395015891
    Two-Electron Energy =                 874.6727890602832076
    Total Energy =                       -797.3179097972089266
  Basis Set: (AUG-CC-PVTZ AUX)
    Blend: AUG-CC-PVTZ-RI
    Molecular point group: c1

    Geometry (in Angstrom), charge = 0, multiplicity = 1:

       Center              X                  Y                   Z               Mass
    ------------   -----------------  -----------------  -----------------  -----------------
         S           -0.816803062492     1.541274312423    -0.143655604524    31.972071174400
         O            2.209179237508     1.155840112423     0.375030795476    15.994914619570
         N            2.193554937508    -1.034514687577    -0.114787604524    14.003074004430
         C           -2.152870062492    -0.669232687577     0.020176395476    12.000000000000
         C            0.066785937508     0.073861312423     0.031253395476    12.000000000000
         C           -0.780933062492    -1.017008687577     0.117541395476    12.000000000000
         C           -2.308412062492     0.695886312423    -0.130253604524    12.000000000000
         C            1.542922937508     0.148418312423     0.111241395476    12.000000000000
         C           -3.285065062492    -1.653822687577     0.087856395476    12.000000000000
         C            3.646081937508    -1.055426687577    -0.160223604524    12.000000000000
         H           -0.430316062492    -2.032531687577     0.286226395476     1.007825032230
         H           -3.239903062492     1.241180312423    -0.232121604524     1.007825032230
         H           -3.282158062492    -2.193061687577     1.040341395476     1.007825032230
         H           -4.248265062492    -1.145984687577    -0.008258604524     1.007825032230
         H           -3.213588062492    -2.395519687577    -0.713897604524     1.007825032230
         H            1.689583937508    -1.753008687577    -0.617678604524     1.007825032230
         H            4.038040937508    -0.613216687577    -1.082704604524     1.007825032230
         H            3.986102937508    -2.089094687577    -0.078778604524     1.007825032230
         H            4.026390937508    -0.480089687577     0.683194395476     1.007825032230

  Basis Set: AUG-CC-PVTZ
    Blend: AUG-CC-PVTZ
  Basis Set: (AUG-CC-PVTZ AUX)
    Blend: AUG-CC-PVTZ-JKFIT
	 Reference Energy          =    -797.3179097972089266 [Eh]
	 Singles Energy            =      -0.0000000000000000 [Eh]
	 Same-Spin Energy          =      -0.4872055568535745 [Eh]
	 Opposite-Spin Energy      =      -1.5039981551283448 [Eh]
	 Correlation Energy        =      -1.9912037119819193 [Eh]
	 Total Energy              =    -799.3091135091908654 [Eh]

	 ================> DF-SCS-MP2 Energies <==================
	-----------------------------------------------------------
	 SCS Same-Spin Scale       =       0.3333333333333333 [-]
	 SCS Opposite-Spin Scale   =       1.2000000000000000 [-]
	 SCS Same-Spin Energy      =      -0.1624018522845248 [Eh]
	 SCS Opposite-Spin Energy  =      -1.8047977861540137 [Eh]
	 SCS Correlation Energy    =      -1.9671996384385384 [Eh]
	 SCS Total Energy          =    -799.2851094356474277 [Eh]
	-----------------------------------------------------------

  Dipole Moment: [D]
     X:    -1.8045      Y:    -3.6464      Z:    -1.1306     Total:     4.2226

*** Psi4 exiting successfully. Buy a developer a beer!
