                               Psi4 1.4a3.dev225

  ==> Input File <==

--------------------------------------------------------------------------
#psi4
#
memory 32 gb

molecule  {
0 1
  S       -0.8053760     1.6060500    -0.1399530
  O        2.1464270     1.2641370     0.3857660
  N        2.2054959    -0.9444806    -0.1133625
  C       -2.1414430    -0.6044570     0.0238790
  C        0.0782130     0.1386370     0.0349560
  C       -0.7695060    -0.9522330     0.1212440
  C       -2.2969850     0.7606620    -0.1265510
  C        1.5543500     0.2131940     0.1149440
  C       -3.2736380    -1.5890470     0.0915590
  C        3.6575090    -0.9906510    -0.1565210
  H       -0.4188890    -1.9677560     0.2899290
  H       -3.2284760     1.3059560    -0.2284190
  H       -3.2707310    -2.1282860     1.0440440
  H       -4.2368380    -1.0812090    -0.0045560
  H       -3.2021610    -2.3307440    -0.7101950
  H        1.7010110    -1.6882330    -0.6139760
  H        4.0494680    -0.5484410    -1.0790020
  H        3.9975300    -2.0243190    -0.0750760
  H        4.0378180    -0.4153140     0.6868970
units angstrom
no_reorient  #important for SAPT in psi4, default
symmetry c1  #important for SAPT in psi4, default
}

set PROPERTIES_ORIGIN ["COM"]
properties('MP2/aug-cc-pvtz', properties = ['dipole'])
--------------------------------------------------------------------------

    Molecular point group: c1
  Charge       = 0
  Multiplicity = 1
  Basis Set: AUG-CC-PVTZ
    Blend: AUG-CC-PVTZ
  Basis Set: (AUG-CC-PVTZ AUX)
    Blend: AUG-CC-PVTZ-JKFIT

    Orbital Energies [Eh]
    ---------------------

    Doubly Occupied:

       1A    -91.989981     2A    -20.517734     3A    -15.591566
       4A    -11.357833     5A    -11.274589     6A    -11.268553
       7A    -11.261987     8A    -11.256748     9A    -11.253609
      10A    -11.238062    11A     -8.989713    12A     -6.670579
      13A     -6.670030    14A     -6.669319    15A     -1.376295
      16A     -1.233925    17A     -1.183179    18A     -1.046405
      19A     -1.007508    20A     -0.956342    21A     -0.923095
      22A     -0.826622    23A     -0.770292    24A     -0.749582
      25A     -0.708475    26A     -0.645062    27A     -0.629582
      28A     -0.621242    29A     -0.593355    30A     -0.590644
      31A     -0.567561    32A     -0.550396    33A     -0.549156
      34A     -0.534250    35A     -0.523956    36A     -0.500867
      37A     -0.477733    38A     -0.432934    39A     -0.398319
      40A     -0.347885    41A     -0.327465

  @DF-RHF Final Energy:  -797.31910117413076

   => Energetics <=

    Nuclear Repulsion Energy =            588.3660697063495491
    One-Electron Energy =               -2261.2054828619693581
    Two-Electron Energy =                 875.5203119814889305
    Total Energy =                       -797.3191011741307648
  Basis Set: (AUG-CC-PVTZ AUX)
    Blend: AUG-CC-PVTZ-RI
    Molecular point group: c1

    Geometry (in Angstrom), charge = 0, multiplicity = 1:

       Center              X                  Y                   Z               Mass
    ------------   -----------------  -----------------  -----------------  -----------------
         S           -0.809196691875     1.534503093138    -0.144175428978    31.972071174400
         O            2.142606308125     1.192590093138     0.381543571022    15.994914619570
         N            2.201675208125    -1.016027506862    -0.117584928978    14.003074004430
         C           -2.145263691875    -0.676003906862     0.019656571022    12.000000000000
         C            0.074392308125     0.067090093138     0.030733571022    12.000000000000
         C           -0.773326691875    -1.023779906862     0.117021571022    12.000000000000
         C           -2.300805691875     0.689115093138    -0.130773428978    12.000000000000
         C            1.550529308125     0.141647093138     0.110721571022    12.000000000000
         C           -3.277458691875    -1.660593906862     0.087336571022    12.000000000000
         C            3.653688308125    -1.062197906862    -0.160743428978    12.000000000000
         H           -0.422709691875    -2.039302906862     0.285706571022     1.007825032230
         H           -3.232296691875     1.234409093138    -0.232641428978     1.007825032230
         H           -3.274551691875    -2.199832906862     1.039821571022     1.007825032230
         H           -4.240658691875    -1.152755906862    -0.008778428978     1.007825032230
         H           -3.205981691875    -2.402290906862    -0.714417428978     1.007825032230
         H            1.697190308125    -1.759779906862    -0.618198428978     1.007825032230
         H            4.045647308125    -0.619987906862    -1.083224428978     1.007825032230
         H            3.993709308125    -2.095865906862    -0.079298428978     1.007825032230
         H            4.033997308125    -0.486860906862     0.682674571022     1.007825032230

  Basis Set: AUG-CC-PVTZ
    Blend: AUG-CC-PVTZ
  Basis Set: (AUG-CC-PVTZ AUX)
    Blend: AUG-CC-PVTZ-JKFIT
	 Reference Energy          =    -797.3191011741307648 [Eh]
	 Singles Energy            =      -0.0000000000000000 [Eh]
	 Same-Spin Energy          =      -0.4870614591775713 [Eh]
	 Opposite-Spin Energy      =      -1.5036932054111489 [Eh]
	 Correlation Energy        =      -1.9907546645887202 [Eh]
	 Total Energy              =    -799.3098558387194998 [Eh]

	 ================> DF-SCS-MP2 Energies <==================
	-----------------------------------------------------------
	 SCS Same-Spin Scale       =       0.3333333333333333 [-]
	 SCS Opposite-Spin Scale   =       1.2000000000000000 [-]
	 SCS Same-Spin Energy      =      -0.1623538197258571 [Eh]
	 SCS Opposite-Spin Energy  =      -1.8044318464933786 [Eh]
	 SCS Correlation Energy    =      -1.9667856662192358 [Eh]
	 SCS Total Energy          =    -799.2858868403500310 [Eh]
	-----------------------------------------------------------

  Dipole Moment: [D]
     X:    -1.4272      Y:    -3.8657      Z:    -1.1536     Total:     4.2792

*** Psi4 exiting successfully. Buy a developer a beer!
