                               Psi4 1.4a3.dev225

  ==> Input File <==

--------------------------------------------------------------------------
#psi4
#
memory 32 gb

molecule  {
0 1
  S       -0.8053760     1.6060500    -0.1399530
  O        2.1464270     1.2641370     0.3857660
  N        2.2049820    -0.9697390    -0.1110850
  C       -2.1414430    -0.6044570     0.0238790
  C        0.1808480    -0.0318132     0.0552729
  C       -0.7695060    -0.9522330     0.1212440
  C       -2.2969850     0.7606620    -0.1265510
  C        1.5543500     0.2131940     0.1149440
  C       -3.2736380    -1.5890470     0.0915590
  C        3.6575090    -0.9906510    -0.1565210
  H       -0.4188890    -1.9677560     0.2899290
  H       -3.2284760     1.3059560    -0.2284190
  H       -3.2707310    -2.1282860     1.0440440
  H       -4.2368380    -1.0812090    -0.0045560
  H       -3.2021610    -2.3307440    -0.7101950
  H        1.7010110    -1.6882330    -0.6139760
  H        4.0494680    -0.5484410    -1.0790020
  H        3.9975300    -2.0243190    -0.0750760
  H        4.0378180    -0.4153140     0.6868970
units angstrom
no_reorient  #important for SAPT in psi4, default
symmetry c1  #important for SAPT in psi4, default
}

set PROPERTIES_ORIGIN ["COM"]
properties('MP2/aug-cc-pvtz', properties = ['dipole'])
--------------------------------------------------------------------------

    Molecular point group: c1
  Charge       = 0
  Multiplicity = 1
  Basis Set: AUG-CC-PVTZ
    Blend: AUG-CC-PVTZ
  Basis Set: (AUG-CC-PVTZ AUX)
    Blend: AUG-CC-PVTZ-JKFIT

    Orbital Energies [Eh]
    ---------------------

    Doubly Occupied:

       1A    -91.979039     2A    -20.525734     3A    -15.587938
       4A    -11.360250     5A    -11.279540     6A    -11.279215
       7A    -11.266759     8A    -11.259395     9A    -11.255450
      10A    -11.240662    11A     -8.977253    12A     -6.658083
      13A     -6.657196    14A     -6.656709    15A     -1.379919
      16A     -1.237689    17A     -1.176491    18A     -1.053714
      19A     -1.011816    20A     -0.967078    21A     -0.913466
      22A     -0.842279    23A     -0.772964    24A     -0.760710
      25A     -0.713938    26A     -0.646849    27A     -0.632665
      28A     -0.617599    29A     -0.600399    30A     -0.592727
      31A     -0.576681    32A     -0.552772    33A     -0.551296
      34A     -0.542683    35A     -0.502202    36A     -0.494063
      37A     -0.456378    38A     -0.428805    39A     -0.401789
      40A     -0.364480    41A     -0.320879

  @DF-RHF Final Energy:  -797.28638771227611

   => Energetics <=

    Nuclear Repulsion Energy =            586.7471376601131396
    One-Electron Energy =               -2257.8759385930611643
    Two-Electron Energy =                 873.8424132206719150
    Total Energy =                       -797.2863877122761096
  Basis Set: (AUG-CC-PVTZ AUX)
    Blend: AUG-CC-PVTZ-RI
    Molecular point group: c1

    Geometry (in Angstrom), charge = 0, multiplicity = 1:

       Center              X                  Y                   Z               Mass
    ------------   -----------------  -----------------  -----------------  -----------------
         S           -0.817094137626     1.549977100737    -0.145953640655    31.972071174400
         O            2.134708862374     1.208064100737     0.379765359345    15.994914619570
         N            2.193263862374    -1.025811899263    -0.117085640655    14.003074004430
         C           -2.153161137626    -0.660529899263     0.017878359345    12.000000000000
         C            0.169129862374    -0.087886099263     0.049272259345    12.000000000000
         C           -0.781224137626    -1.008305899263     0.115243359345    12.000000000000
         C           -2.308703137626     0.704589100737    -0.132551640655    12.000000000000
         C            1.542631862374     0.157121100737     0.108943359345    12.000000000000
         C           -3.285356137626    -1.645119899263     0.085558359345    12.000000000000
         C            3.645790862374    -1.046723899263    -0.162521640655    12.000000000000
         H           -0.430607137626    -2.023828899263     0.283928359345     1.007825032230
         H           -3.240194137626     1.249883100737    -0.234419640655     1.007825032230
         H           -3.282449137626    -2.184358899263     1.038043359345     1.007825032230
         H           -4.248556137626    -1.137281899263    -0.010556640655     1.007825032230
         H           -3.213879137626    -2.386816899263    -0.716195640655     1.007825032230
         H            1.689292862374    -1.744305899263    -0.619976640655     1.007825032230
         H            4.037749862374    -0.604513899263    -1.085002640655     1.007825032230
         H            3.985811862374    -2.080391899263    -0.081076640655     1.007825032230
         H            4.026099862374    -0.471386899263     0.680896359345     1.007825032230

  Basis Set: AUG-CC-PVTZ
    Blend: AUG-CC-PVTZ
  Basis Set: (AUG-CC-PVTZ AUX)
    Blend: AUG-CC-PVTZ-JKFIT
	 Reference Energy          =    -797.2863877122761096 [Eh]
	 Singles Energy            =      -0.0000000000000000 [Eh]
	 Same-Spin Energy          =      -0.4877421033746110 [Eh]
	 Opposite-Spin Energy      =      -1.5068247882411956 [Eh]
	 Correlation Energy        =      -1.9945668916158066 [Eh]
	 Total Energy              =    -799.2809546038919279 [Eh]

	 ================> DF-SCS-MP2 Energies <==================
	-----------------------------------------------------------
	 SCS Same-Spin Scale       =       0.3333333333333333 [-]
	 SCS Opposite-Spin Scale   =       1.2000000000000000 [-]
	 SCS Same-Spin Energy      =      -0.1625807011248703 [Eh]
	 SCS Opposite-Spin Energy  =      -1.8081897458894347 [Eh]
	 SCS Correlation Energy    =      -1.9707704470143050 [Eh]
	 SCS Total Energy          =    -799.2571581592903840 [Eh]
	-----------------------------------------------------------

  Dipole Moment: [D]
     X:    -1.5274      Y:    -4.0745      Z:    -1.0913     Total:     4.4861

*** Psi4 exiting successfully. Buy a developer a beer!
