                               Psi4 1.4a3.dev225

  ==> Input File <==

--------------------------------------------------------------------------
#psi4
#
memory 32 gb

molecule  {
0 1
  S       -0.8202834     1.6317686    -0.1433886
  O        2.1464270     1.2641370     0.3857660
  N        2.2049820    -0.9697390    -0.1110850
  C       -2.1414430    -0.6044570     0.0238790
  C        0.0782130     0.1386370     0.0349560
  C       -0.7695060    -0.9522330     0.1212440
  C       -2.2969850     0.7606620    -0.1265510
  C        1.5543500     0.2131940     0.1149440
  C       -3.2736380    -1.5890470     0.0915590
  C        3.6575090    -0.9906510    -0.1565210
  H       -0.4188890    -1.9677560     0.2899290
  H       -3.2284760     1.3059560    -0.2284190
  H       -3.2707310    -2.1282860     1.0440440
  H       -4.2368380    -1.0812090    -0.0045560
  H       -3.2021610    -2.3307440    -0.7101950
  H        1.7010110    -1.6882330    -0.6139760
  H        4.0494680    -0.5484410    -1.0790020
  H        3.9975300    -2.0243190    -0.0750760
  H        4.0378180    -0.4153140     0.6868970
units angstrom
no_reorient  #important for SAPT in psi4, default
symmetry c1  #important for SAPT in psi4, default
}

set PROPERTIES_ORIGIN ["COM"]
properties('MP2/aug-cc-pvtz', properties = ['dipole'])
--------------------------------------------------------------------------

    Molecular point group: c1
  Charge       = 0
  Multiplicity = 1
  Basis Set: AUG-CC-PVTZ
    Blend: AUG-CC-PVTZ
  Basis Set: (AUG-CC-PVTZ AUX)
    Blend: AUG-CC-PVTZ-JKFIT

    Orbital Energies [Eh]
    ---------------------

    Doubly Occupied:

       1A    -91.991332     2A    -20.521419     3A    -15.589171
       4A    -11.360470     5A    -11.277219     6A    -11.269958
       7A    -11.260521     8A    -11.258998     9A    -11.254142
      10A    -11.238574    11A     -8.990466    12A     -6.671326
      13A     -6.670713    14A     -6.670057    15A     -1.375783
      16A     -1.231495    17A     -1.180319    18A     -1.044370
      19A     -1.008381    20A     -0.954322    21A     -0.920749
      22A     -0.828956    23A     -0.768842    24A     -0.749582
      25A     -0.708750    26A     -0.643587    27A     -0.628634
      28A     -0.619319    29A     -0.594483    30A     -0.590902
      31A     -0.567313    32A     -0.551255    33A     -0.548205
      34A     -0.534850    35A     -0.520346    36A     -0.499391
      37A     -0.479598    38A     -0.434255    39A     -0.398629
      40A     -0.350469    41A     -0.326062

  @DF-RHF Final Energy:  -797.31866175621542

   => Energetics <=

    Nuclear Repulsion Energy =            586.5719096496944758
    One-Electron Energy =               -2257.6147174459451890
    Two-Electron Energy =                 873.7241460400351798
    Total Energy =                       -797.3186617562154197
  Basis Set: (AUG-CC-PVTZ AUX)
    Blend: AUG-CC-PVTZ-RI
    Molecular point group: c1

    Geometry (in Angstrom), charge = 0, multiplicity = 1:

       Center              X                  Y                   Z               Mass
    ------------   -----------------  -----------------  -----------------  -----------------
         S           -0.820983509317     1.557199375032    -0.147108249032    31.972071174400
         O            2.145726890683     1.189567775032     0.382046350968    15.994914619570
         N            2.204281890683    -1.044308224968    -0.114804649032    14.003074004430
         C           -2.142143109317    -0.679026224968     0.020159350968    12.000000000000
         C            0.077512890683     0.064067775032     0.031236350968    12.000000000000
         C           -0.770206109317    -1.026802224968     0.117524350968    12.000000000000
         C           -2.297685109317     0.686092775032    -0.130270649032    12.000000000000
         C            1.553649890683     0.138624775032     0.111224350968    12.000000000000
         C           -3.274338109317    -1.663616224968     0.087839350968    12.000000000000
         C            3.656808890683    -1.065220224968    -0.160240649032    12.000000000000
         H           -0.419589109317    -2.042325224968     0.286209350968     1.007825032230
         H           -3.229176109317     1.231386775032    -0.232138649032     1.007825032230
         H           -3.271431109317    -2.202855224968     1.040324350968     1.007825032230
         H           -4.237538109317    -1.155778224968    -0.008275649032     1.007825032230
         H           -3.202861109317    -2.405313224968    -0.713914649032     1.007825032230
         H            1.700310890683    -1.762802224968    -0.617695649032     1.007825032230
         H            4.048767890683    -0.623010224968    -1.082721649032     1.007825032230
         H            3.996829890683    -2.098888224968    -0.078795649032     1.007825032230
         H            4.037117890683    -0.489883224968     0.683177350968     1.007825032230

  Basis Set: AUG-CC-PVTZ
    Blend: AUG-CC-PVTZ
  Basis Set: (AUG-CC-PVTZ AUX)
    Blend: AUG-CC-PVTZ-JKFIT
	 Reference Energy          =    -797.3186617562154197 [Eh]
	 Singles Energy            =      -0.0000000000000000 [Eh]
	 Same-Spin Energy          =      -0.4867266236024246 [Eh]
	 Opposite-Spin Energy      =      -1.5040104973531747 [Eh]
	 Correlation Energy        =      -1.9907371209555993 [Eh]
	 Total Energy              =    -799.3093988771710201 [Eh]

	 ================> DF-SCS-MP2 Energies <==================
	-----------------------------------------------------------
	 SCS Same-Spin Scale       =       0.3333333333333333 [-]
	 SCS Opposite-Spin Scale   =       1.2000000000000000 [-]
	 SCS Same-Spin Energy      =      -0.1622422078674748 [Eh]
	 SCS Opposite-Spin Energy  =      -1.8048125968238096 [Eh]
	 SCS Correlation Energy    =      -1.9670548046912844 [Eh]
	 SCS Total Energy          =    -799.2857165609067351 [Eh]
	-----------------------------------------------------------

  Dipole Moment: [D]
     X:    -1.5024      Y:    -3.7608      Z:    -1.1438     Total:     4.2082

*** Psi4 exiting successfully. Buy a developer a beer!
