                               Psi4 1.4a3.dev225

  ==> Input File <==

--------------------------------------------------------------------------
#psi4
#
memory 32 gb

molecule  {
0 1
  S       -0.8053760     1.6060500    -0.1399530
  O        2.1464270     1.2641370     0.3857660
  N        2.2049820    -0.9697390    -0.1110850
  C       -2.1414430    -0.6044570     0.0238790
  C        0.0782130     0.1386370     0.0349560
  C       -0.7695060    -0.9522330     0.1212440
  C       -2.2992357     0.7804154    -0.1287277
  C        1.5543500     0.2131940     0.1149440
  C       -3.2736380    -1.5890470     0.0915590
  C        3.6575090    -0.9906510    -0.1565210
  H       -0.4188890    -1.9677560     0.2899290
  H       -3.2284760     1.3059560    -0.2284190
  H       -3.2707310    -2.1282860     1.0440440
  H       -4.2368380    -1.0812090    -0.0045560
  H       -3.2021610    -2.3307440    -0.7101950
  H        1.7010110    -1.6882330    -0.6139760
  H        4.0494680    -0.5484410    -1.0790020
  H        3.9975300    -2.0243190    -0.0750760
  H        4.0378180    -0.4153140     0.6868970
units angstrom
no_reorient  #important for SAPT in psi4, default
symmetry c1  #important for SAPT in psi4, default
}

set PROPERTIES_ORIGIN ["COM"]
properties('MP2/aug-cc-pvtz', properties = ['dipole'])
--------------------------------------------------------------------------

    Molecular point group: c1
  Charge       = 0
  Multiplicity = 1
  Basis Set: AUG-CC-PVTZ
    Blend: AUG-CC-PVTZ
  Basis Set: (AUG-CC-PVTZ AUX)
    Blend: AUG-CC-PVTZ-JKFIT

    Orbital Energies [Eh]
    ---------------------

    Doubly Occupied:

       1A    -91.991629     2A    -20.521643     3A    -15.589360
       4A    -11.360871     5A    -11.274699     6A    -11.270160
       7A    -11.260639     8A    -11.257372     9A    -11.256004
      10A    -11.238226    11A     -8.991377    12A     -6.672244
      13A     -6.671715    14A     -6.671011    15A     -1.376211
      16A     -1.231711    17A     -1.182154    18A     -1.045385
      19A     -1.008836    20A     -0.954215    21A     -0.921523
      22A     -0.828087    23A     -0.768832    24A     -0.751104
      25A     -0.708478    26A     -0.644304    27A     -0.628753
      28A     -0.620827    29A     -0.594024    30A     -0.590341
      31A     -0.567770    32A     -0.551847    33A     -0.549315
      34A     -0.534905    35A     -0.525243    36A     -0.500533
      37A     -0.477761    38A     -0.434475    39A     -0.398836
      40A     -0.349136    41A     -0.324924

  @DF-RHF Final Energy:  -797.31825060688584

   => Energetics <=

    Nuclear Repulsion Energy =            587.7253106016440825
    One-Electron Energy =               -2259.8941663301607150
    Two-Electron Energy =                 874.8506051216306787
    Total Energy =                       -797.3182506068858402
  Basis Set: (AUG-CC-PVTZ AUX)
    Blend: AUG-CC-PVTZ-RI
    Molecular point group: c1

    Geometry (in Angstrom), charge = 0, multiplicity = 1:

       Center              X                  Y                   Z               Mass
    ------------   -----------------  -----------------  -----------------  -----------------
         S           -0.808976074791     1.535255505931    -0.144212655390    31.972071174400
         O            2.142826925209     1.193342505931     0.381506344610    15.994914619570
         N            2.201381925209    -1.040533494069    -0.115344655390    14.003074004430
         C           -2.145043074791    -0.675251494069     0.019619344610    12.000000000000
         C            0.074612925209     0.067842505931     0.030696344610    12.000000000000
         C           -0.773106074791    -1.023027494069     0.116984344610    12.000000000000
         C           -2.302835774791     0.709620905931    -0.132987355390    12.000000000000
         C            1.550749925209     0.142399505931     0.110684344610    12.000000000000
         C           -3.277238074791    -1.659841494069     0.087299344610    12.000000000000
         C            3.653908925209    -1.061445494069    -0.160780655390    12.000000000000
         H           -0.422489074791    -2.038550494069     0.285669344610     1.007825032230
         H           -3.232076074791     1.235161505931    -0.232678655390     1.007825032230
         H           -3.274331074791    -2.199080494069     1.039784344610     1.007825032230
         H           -4.240438074791    -1.152003494069    -0.008815655390     1.007825032230
         H           -3.205761074791    -2.401538494069    -0.714454655390     1.007825032230
         H            1.697410925209    -1.759027494069    -0.618235655390     1.007825032230
         H            4.045867925209    -0.619235494069    -1.083261655390     1.007825032230
         H            3.993929925209    -2.095113494069    -0.079335655390     1.007825032230
         H            4.034217925209    -0.486108494069     0.682637344610     1.007825032230

  Basis Set: AUG-CC-PVTZ
    Blend: AUG-CC-PVTZ
  Basis Set: (AUG-CC-PVTZ AUX)
    Blend: AUG-CC-PVTZ-JKFIT
	 Reference Energy          =    -797.3182506068858402 [Eh]
	 Singles Energy            =      -0.0000000000000000 [Eh]
	 Same-Spin Energy          =      -0.4873844795823745 [Eh]
	 Opposite-Spin Energy      =      -1.5041976673831536 [Eh]
	 Correlation Energy        =      -1.9915821469655282 [Eh]
	 Total Energy              =    -799.3098327538514241 [Eh]

	 ================> DF-SCS-MP2 Energies <==================
	-----------------------------------------------------------
	 SCS Same-Spin Scale       =       0.3333333333333333 [-]
	 SCS Opposite-Spin Scale   =       1.2000000000000000 [-]
	 SCS Same-Spin Energy      =      -0.1624614931941248 [Eh]
	 SCS Opposite-Spin Energy  =      -1.8050372008597844 [Eh]
	 SCS Correlation Energy    =      -1.9674986940539092 [Eh]
	 SCS Total Energy          =    -799.2857493009397558 [Eh]
	-----------------------------------------------------------

  Dipole Moment: [D]
     X:    -1.4909      Y:    -3.7417      Z:    -1.1457     Total:     4.1876

*** Psi4 exiting successfully. Buy a developer a beer!
