                               Psi4 1.4a3.dev225

  ==> Input File <==

--------------------------------------------------------------------------
#psi4
#
memory 32 gb

molecule  {
0 1
  S       -0.8053760     1.6060500    -0.1399530
  O        2.1464270     1.2641370     0.3857660
  N        2.2049820    -0.9697390    -0.1110850
  C       -2.1414430    -0.6044570     0.0238790
  C        0.0782130     0.1386370     0.0349560
  C       -0.7695060    -0.9522330     0.1212440
  C       -2.2969850     0.7606620    -0.1265510
  C        1.5543500     0.2131940     0.1149440
  C       -3.2736380    -1.5890470     0.0915590
  C        3.6575090    -0.9906510    -0.1565210
  H       -0.4188890    -1.9677560     0.2899290
  H       -3.2284760     1.3059560    -0.2284190
  H       -3.2707310    -2.1282860     1.0440440
  H       -4.2368380    -1.0812090    -0.0045560
  H       -3.2021610    -2.3307440    -0.7101950
  H        1.7010110    -1.6882330    -0.6139760
  H        4.0856446    -0.4968209    -1.0357164
  H        3.9975300    -2.0243190    -0.0750760
  H        4.0378180    -0.4153140     0.6868970
units angstrom
no_reorient  #important for SAPT in psi4, default
symmetry c1  #important for SAPT in psi4, default
}

set PROPERTIES_ORIGIN ["COM"]
properties('MP2/aug-cc-pvtz', properties = ['dipole'])
--------------------------------------------------------------------------

    Molecular point group: c1
  Charge       = 0
  Multiplicity = 1
  Basis Set: AUG-CC-PVTZ
    Blend: AUG-CC-PVTZ
  Basis Set: (AUG-CC-PVTZ AUX)
    Blend: AUG-CC-PVTZ-JKFIT

    Orbital Energies [Eh]
    ---------------------

    Doubly Occupied:

       1A    -91.990540     2A    -20.522341     3A    -15.590134
       4A    -11.361187     5A    -11.275124     6A    -11.269259
       7A    -11.260305     8A    -11.257414     9A    -11.254105
      10A    -11.238375    11A     -8.990287    12A     -6.671155
      13A     -6.670605    14A     -6.669893    15A     -1.376686
      16A     -1.231881    17A     -1.183672    18A     -1.046757
      19A     -1.007362    20A     -0.954142    21A     -0.922942
      22A     -0.829475    23A     -0.769038    24A     -0.750196
      25A     -0.708792    26A     -0.645999    27A     -0.627405
      28A     -0.620123    29A     -0.594176    30A     -0.590893
      31A     -0.567911    32A     -0.553874    33A     -0.546650
      34A     -0.534762    35A     -0.523528    36A     -0.500329
      37A     -0.478431    38A     -0.435121    39A     -0.399179
      40A     -0.348361    41A     -0.328007

  @DF-RHF Final Energy:  -797.31887224074171

   => Energetics <=

    Nuclear Repulsion Energy =            587.9111471331872281
    One-Electron Energy =               -2260.2672133774062786
    Two-Electron Energy =                 875.0371940034774525
    Total Energy =                       -797.3188722407417117
  Basis Set: (AUG-CC-PVTZ AUX)
    Blend: AUG-CC-PVTZ-RI
    Molecular point group: c1

    Geometry (in Angstrom), charge = 0, multiplicity = 1:

       Center              X                  Y                   Z               Mass
    ------------   -----------------  -----------------  -----------------  -----------------
         S           -0.809385439371     1.536448850824    -0.144662503771    31.972071174400
         O            2.142417560629     1.194535850824     0.381056496229    15.994914619570
         N            2.200972560629    -1.039340149176    -0.115794503771    14.003074004430
         C           -2.145452439371    -0.674058149176     0.019169496229    12.000000000000
         C            0.074203560629     0.069035850824     0.030246496229    12.000000000000
         C           -0.773515439371    -1.021834149176     0.116534496229    12.000000000000
         C           -2.300994439371     0.691060850824    -0.131260503771    12.000000000000
         C            1.550340560629     0.143592850824     0.110234496229    12.000000000000
         C           -3.277647439371    -1.658648149176     0.086849496229    12.000000000000
         C            3.653499560629    -1.060252149176    -0.161230503771    12.000000000000
         H           -0.422898439371    -2.037357149176     0.285219496229     1.007825032230
         H           -3.232485439371     1.236354850824    -0.233128503771     1.007825032230
         H           -3.274740439371    -2.197887149176     1.039334496229     1.007825032230
         H           -4.240847439371    -1.150810149176    -0.009265503771     1.007825032230
         H           -3.206170439371    -2.400345149176    -0.714904503771     1.007825032230
         H            1.697001560629    -1.757834149176    -0.618685503771     1.007825032230
         H            4.081635160629    -0.566422049176    -1.040425903771     1.007825032230
         H            3.993520560629    -2.093920149176    -0.079785503771     1.007825032230
         H            4.033808560629    -0.484915149176     0.682187496229     1.007825032230

  Basis Set: AUG-CC-PVTZ
    Blend: AUG-CC-PVTZ
  Basis Set: (AUG-CC-PVTZ AUX)
    Blend: AUG-CC-PVTZ-JKFIT
	 Reference Energy          =    -797.3188722407417117 [Eh]
	 Singles Energy            =      -0.0000000000000000 [Eh]
	 Same-Spin Energy          =      -0.4870749075470557 [Eh]
	 Opposite-Spin Energy      =      -1.5038533256911020 [Eh]
	 Correlation Energy        =      -1.9909282332381577 [Eh]
	 Total Energy              =    -799.3098004739798625 [Eh]

	 ================> DF-SCS-MP2 Energies <==================
	-----------------------------------------------------------
	 SCS Same-Spin Scale       =       0.3333333333333333 [-]
	 SCS Opposite-Spin Scale   =       1.2000000000000000 [-]
	 SCS Same-Spin Energy      =      -0.1623583025156852 [Eh]
	 SCS Opposite-Spin Energy  =      -1.8046239908293222 [Eh]
	 SCS Correlation Energy    =      -1.9669822933450074 [Eh]
	 SCS Total Energy          =    -799.2858545340867522 [Eh]
	-----------------------------------------------------------

  Dipole Moment: [D]
     X:    -1.5030      Y:    -3.7181      Z:    -1.1329     Total:     4.1673

*** Psi4 exiting successfully. Buy a developer a beer!
