                               Psi4 1.4a3.dev225

  ==> Input File <==

--------------------------------------------------------------------------
#psi4
#
memory 32 gb

molecule  {
0 1
  S       -0.8053760     1.6060500    -0.1399530
  O        2.1464270     1.2641370     0.3857660
  N        2.2049820    -0.9697390    -0.1110850
  C       -2.1414430    -0.6044570     0.0238790
  C        0.0782130     0.1386370     0.0349560
  C       -0.7695060    -0.9522330     0.1212440
  C       -2.2969850     0.7606620    -0.1265510
  C        1.5543500     0.2131940     0.1149440
  C       -3.2736380    -1.5890470     0.0915590
  C        3.6575090    -0.9906510    -0.1565210
  H       -0.4188890    -1.9677560     0.2899290
  H       -3.2284760     1.3059560    -0.2284190
  H       -3.2707310    -2.1282860     1.0440440
  H       -4.2368380    -1.0812090    -0.0045560
  H       -3.1956307    -2.3985069    -0.7834449
  H        1.7010110    -1.6882330    -0.6139760
  H        4.0494680    -0.5484410    -1.0790020
  H        3.9975300    -2.0243190    -0.0750760
  H        4.0378180    -0.4153140     0.6868970
units angstrom
no_reorient  #important for SAPT in psi4, default
symmetry c1  #important for SAPT in psi4, default
}

set PROPERTIES_ORIGIN ["COM"]
properties('MP2/aug-cc-pvtz', properties = ['dipole'])
--------------------------------------------------------------------------

    Molecular point group: c1
  Charge       = 0
  Multiplicity = 1
  Basis Set: AUG-CC-PVTZ
    Blend: AUG-CC-PVTZ
  Basis Set: (AUG-CC-PVTZ AUX)
    Blend: AUG-CC-PVTZ-JKFIT

    Orbital Energies [Eh]
    ---------------------

    Doubly Occupied:

       1A    -91.990898     2A    -20.522168     3A    -15.589584
       4A    -11.361161     5A    -11.275355     6A    -11.269965
       7A    -11.260791     8A    -11.257654     9A    -11.254916
      10A    -11.249995    11A     -8.990645    12A     -6.671513
      13A     -6.670961    14A     -6.670248    15A     -1.376620
      16A     -1.231974    17A     -1.183972    18A     -1.044873
      19A     -1.007328    20A     -0.953148    21A     -0.918706
      22A     -0.828743    23A     -0.768982    24A     -0.749838
      25A     -0.708819    26A     -0.644250    27A     -0.628691
      28A     -0.620391    29A     -0.594010    30A     -0.580457
      31A     -0.566455    32A     -0.551858    33A     -0.548150
      34A     -0.534707    35A     -0.521589    36A     -0.499445
      37A     -0.478143    38A     -0.434994    39A     -0.399050
      40A     -0.348369    41A     -0.328073

  @DF-RHF Final Energy:  -797.31311265790077

   => Energetics <=

    Nuclear Repulsion Energy =            587.5213547486710013
    One-Electron Energy =               -2259.4939538213843662
    Two-Electron Energy =                 874.6594864148125907
    Total Energy =                       -797.3131126579007741
  Basis Set: (AUG-CC-PVTZ AUX)
    Blend: AUG-CC-PVTZ-RI
    Molecular point group: c1

    Geometry (in Angstrom), charge = 0, multiplicity = 1:

       Center              X                  Y                   Z               Mass
    ------------   -----------------  -----------------  -----------------  -----------------
         S           -0.809192726588     1.537224887971    -0.143904976510    31.972071174400
         O            2.142610273412     1.195311887972     0.381814023490    15.994914619570
         N            2.201165273412    -1.038564112029    -0.115036976510    14.003074004430
         C           -2.145259726588    -0.673282112029     0.019927023490    12.000000000000
         C            0.074396273412     0.069811887971     0.031004023490    12.000000000000
         C           -0.773322726588    -1.021058112029     0.117292023490    12.000000000000
         C           -2.300801726588     0.691836887971    -0.130502976510    12.000000000000
         C            1.550533273412     0.144368887971     0.110992023490    12.000000000000
         C           -3.277454726588    -1.657872112029     0.087607023490    12.000000000000
         C            3.653692273412    -1.059476112029    -0.160472976510    12.000000000000
         H           -0.422705726588    -2.036581112029     0.285977023490     1.007825032230
         H           -3.232292726588     1.237130887971    -0.232370976510     1.007825032230
         H           -3.274547726588    -2.197111112029     1.040092023490     1.007825032230
         H           -4.240654726588    -1.150034112029    -0.008507976510     1.007825032230
         H           -3.199447426588    -2.467332012029    -0.787396876510     1.007825032230
         H            1.697194273412    -1.757058112029    -0.617927976510     1.007825032230
         H            4.045651273412    -0.617266112029    -1.082953976510     1.007825032230
         H            3.993713273412    -2.093144112029    -0.079027976510     1.007825032230
         H            4.034001273412    -0.484139112029     0.682945023490     1.007825032230

  Basis Set: AUG-CC-PVTZ
    Blend: AUG-CC-PVTZ
  Basis Set: (AUG-CC-PVTZ AUX)
    Blend: AUG-CC-PVTZ-JKFIT
	 Reference Energy          =    -797.3131126579007741 [Eh]
	 Singles Energy            =      -0.0000000000000000 [Eh]
	 Same-Spin Energy          =      -0.4869706664228268 [Eh]
	 Opposite-Spin Energy      =      -1.5044240467279748 [Eh]
	 Correlation Energy        =      -1.9913947131508016 [Eh]
	 Total Energy              =    -799.3045073710516135 [Eh]

	 ================> DF-SCS-MP2 Energies <==================
	-----------------------------------------------------------
	 SCS Same-Spin Scale       =       0.3333333333333333 [-]
	 SCS Opposite-Spin Scale   =       1.2000000000000000 [-]
	 SCS Same-Spin Energy      =      -0.1623235554742756 [Eh]
	 SCS Opposite-Spin Energy  =      -1.8053088560735697 [Eh]
	 SCS Correlation Energy    =      -1.9676324115478454 [Eh]
	 SCS Total Energy          =    -799.2807450694485851 [Eh]
	-----------------------------------------------------------

  Dipole Moment: [D]
     X:    -1.4597      Y:    -3.6933      Z:    -1.1151     Total:     4.1248

*** Psi4 exiting successfully. Buy a developer a beer!
