                               Psi4 1.4a3.dev225

  ==> Input File <==

--------------------------------------------------------------------------
#psi4
#
memory 32 gb

molecule  {
0 1
  S       -0.8053760     1.6060500    -0.1399530
  O        2.1464270     1.2641370     0.3857660
  N        2.2049820    -0.9697390    -0.1110850
  C       -2.1414430    -0.6044570     0.0238790
  C        0.0782130     0.1386370     0.0349560
  C       -0.7759229    -0.9760441     0.1234633
  C       -2.2969850     0.7606620    -0.1265510
  C        1.5543500     0.2131940     0.1149440
  C       -3.2736380    -1.5890470     0.0915590
  C        3.6575090    -0.9906510    -0.1565210
  H       -0.4188890    -1.9677560     0.2899290
  H       -3.2284760     1.3059560    -0.2284190
  H       -3.2707310    -2.1282860     1.0440440
  H       -4.2368380    -1.0812090    -0.0045560
  H       -3.2021610    -2.3307440    -0.7101950
  H        1.7010110    -1.6882330    -0.6139760
  H        4.0494680    -0.5484410    -1.0790020
  H        3.9975300    -2.0243190    -0.0750760
  H        4.0378180    -0.4153140     0.6868970
units angstrom
no_reorient  #important for SAPT in psi4, default
symmetry c1  #important for SAPT in psi4, default
}

set PROPERTIES_ORIGIN ["COM"]
properties('MP2/aug-cc-pvtz', properties = ['dipole'])
--------------------------------------------------------------------------

    Molecular point group: c1
  Charge       = 0
  Multiplicity = 1
  Basis Set: AUG-CC-PVTZ
    Blend: AUG-CC-PVTZ
  Basis Set: (AUG-CC-PVTZ AUX)
    Blend: AUG-CC-PVTZ-JKFIT

    Orbital Energies [Eh]
    ---------------------

    Doubly Occupied:

       1A    -91.992066     2A    -20.521515     3A    -15.589198
       4A    -11.360464     5A    -11.277546     6A    -11.269210
       7A    -11.260535     8A    -11.258075     9A    -11.254551
      10A    -11.237644    11A     -8.991656    12A     -6.672519
      13A     -6.671958    14A     -6.671280    15A     -1.376036
      16A     -1.231477    17A     -1.181147    18A     -1.046113
      19A     -1.006917    20A     -0.953464    21A     -0.922505
      22A     -0.829335    23A     -0.768570    24A     -0.751587
      25A     -0.706578    26A     -0.644005    27A     -0.628661
      28A     -0.620591    29A     -0.596577    30A     -0.590590
      31A     -0.567401    32A     -0.551535    33A     -0.548471
      34A     -0.535095    35A     -0.523516    36A     -0.499899
      37A     -0.479170    38A     -0.434217    39A     -0.398707
      40A     -0.347465    41A     -0.326554

  @DF-RHF Final Energy:  -797.31764630780094

   => Energetics <=

    Nuclear Repulsion Energy =            587.4708435583154369
    One-Electron Energy =               -2259.3881854590813418
    Two-Electron Energy =                 874.5996955929649630
    Total Energy =                       -797.3176463078009419
  Basis Set: (AUG-CC-PVTZ AUX)
    Blend: AUG-CC-PVTZ-RI
    Molecular point group: c1

    Geometry (in Angstrom), charge = 0, multiplicity = 1:

       Center              X                  Y                   Z               Mass
    ------------   -----------------  -----------------  -----------------  -----------------
         S           -0.808653614499     1.538627360706    -0.144552902003    31.972071174400
         O            2.143149385501     1.196714360706     0.381166097997    15.994914619570
         N            2.201704385501    -1.037161639294    -0.115684902003    14.003074004430
         C           -2.144720614499    -0.671879639294     0.019279097997    12.000000000000
         C            0.074935385501     0.071214360706     0.030356097997    12.000000000000
         C           -0.779200514499    -1.043466739294     0.118863397997    12.000000000000
         C           -2.300262614499     0.693239360706    -0.131150902003    12.000000000000
         C            1.551072385501     0.145771360706     0.110344097997    12.000000000000
         C           -3.276915614499    -1.656469639294     0.086959097997    12.000000000000
         C            3.654231385501    -1.058073639294    -0.161120902003    12.000000000000
         H           -0.422166614499    -2.035178639294     0.285329097997     1.007825032230
         H           -3.231753614499     1.238533360706    -0.233018902003     1.007825032230
         H           -3.274008614499    -2.195708639294     1.039444097997     1.007825032230
         H           -4.240115614499    -1.148631639294    -0.009155902003     1.007825032230
         H           -3.205438614499    -2.398166639294    -0.714794902003     1.007825032230
         H            1.697733385501    -1.755655639294    -0.618575902003     1.007825032230
         H            4.046190385501    -0.615863639294    -1.083601902003     1.007825032230
         H            3.994252385501    -2.091741639294    -0.079675902003     1.007825032230
         H            4.034540385501    -0.482736639294     0.682297097997     1.007825032230

  Basis Set: AUG-CC-PVTZ
    Blend: AUG-CC-PVTZ
  Basis Set: (AUG-CC-PVTZ AUX)
    Blend: AUG-CC-PVTZ-JKFIT
	 Reference Energy          =    -797.3176463078009419 [Eh]
	 Singles Energy            =      -0.0000000000000000 [Eh]
	 Same-Spin Energy          =      -0.4873900588830574 [Eh]
	 Opposite-Spin Energy      =      -1.5043848962780682 [Eh]
	 Correlation Energy        =      -1.9917749551611257 [Eh]
	 Total Energy              =    -799.3094212629620188 [Eh]

	 ================> DF-SCS-MP2 Energies <==================
	-----------------------------------------------------------
	 SCS Same-Spin Scale       =       0.3333333333333333 [-]
	 SCS Opposite-Spin Scale   =       1.2000000000000000 [-]
	 SCS Same-Spin Energy      =      -0.1624633529610191 [Eh]
	 SCS Opposite-Spin Energy  =      -1.8052618755336818 [Eh]
	 SCS Correlation Energy    =      -1.9677252284947009 [Eh]
	 SCS Total Energy          =    -799.2853715362956564 [Eh]
	-----------------------------------------------------------

  Dipole Moment: [D]
     X:    -1.4962      Y:    -3.7157      Z:    -1.1469     Total:     4.1666

*** Psi4 exiting successfully. Buy a developer a beer!
