                               Psi4 1.4a3.dev225

  ==> Input File <==

--------------------------------------------------------------------------
#psi4
#
memory 32 gb

molecule  {
0 1
  S       -0.8053760     1.6060500    -0.1399530
  O        2.1464270     1.2641370     0.3857660
  N        2.2049820    -0.9697390    -0.1110850
  C       -2.1414430    -0.6044570     0.0238790
  C        0.0782130     0.1386370     0.0349560
  C       -0.7695060    -0.9522330     0.1212440
  C       -2.2857315     0.6618951    -0.1156673
  C        1.5543500     0.2131940     0.1149440
  C       -3.2736380    -1.5890470     0.0915590
  C        3.6575090    -0.9906510    -0.1565210
  H       -0.4188890    -1.9677560     0.2899290
  H       -3.2284760     1.3059560    -0.2284190
  H       -3.2707310    -2.1282860     1.0440440
  H       -4.2368380    -1.0812090    -0.0045560
  H       -3.2021610    -2.3307440    -0.7101950
  H        1.7010110    -1.6882330    -0.6139760
  H        4.0494680    -0.5484410    -1.0790020
  H        3.9975300    -2.0243190    -0.0750760
  H        4.0378180    -0.4153140     0.6868970
units angstrom
no_reorient  #important for SAPT in psi4, default
symmetry c1  #important for SAPT in psi4, default
}

set PROPERTIES_ORIGIN ["COM"]
properties('MP2/aug-cc-pvtz', properties = ['dipole'])
--------------------------------------------------------------------------

    Molecular point group: c1
  Charge       = 0
  Multiplicity = 1
  Basis Set: AUG-CC-PVTZ
    Blend: AUG-CC-PVTZ
  Basis Set: (AUG-CC-PVTZ AUX)
    Blend: AUG-CC-PVTZ-JKFIT

    Orbital Energies [Eh]
    ---------------------

    Doubly Occupied:

       1A    -91.984893     2A    -20.523082     3A    -15.589566
       4A    -11.360997     5A    -11.276348     6A    -11.263608
       7A    -11.260770     8A    -11.257757     9A    -11.241755
      10A    -11.238892    11A     -8.984565    12A     -6.665447
      13A     -6.664758    14A     -6.664032    15A     -1.377064
      16A     -1.232123    17A     -1.192941    18A     -1.054518
      19A     -0.999710    20A     -0.953287    21A     -0.930352
      22A     -0.833848    23A     -0.769788    24A     -0.740846
      25A     -0.709547    26A     -0.643365    27A     -0.630299
      28A     -0.620643    29A     -0.595246    30A     -0.593146
      31A     -0.569963    32A     -0.551262    33A     -0.549099
      34A     -0.537057    35A     -0.510850    36A     -0.502022
      37A     -0.475649    38A     -0.435719    39A     -0.398992
      40A     -0.350378    41A     -0.338186

  @DF-RHF Final Energy:  -797.30944290238585

   => Energetics <=

    Nuclear Repulsion Energy =            589.0370759391386173
    One-Electron Energy =               -2262.5482987597952160
    Two-Electron Energy =                 876.2017799182708586
    Total Energy =                       -797.3094429023858538
  Basis Set: (AUG-CC-PVTZ AUX)
    Blend: AUG-CC-PVTZ-RI
    Molecular point group: c1

    Geometry (in Angstrom), charge = 0, multiplicity = 1:

       Center              X                  Y                   Z               Mass
    ------------   -----------------  -----------------  -----------------  -----------------
         S           -0.810021288239     1.544428875062    -0.145223519100    31.972071174400
         O            2.141781711761     1.202515875062     0.380495480900    15.994914619570
         N            2.200336711761    -1.031360124938    -0.116355519100    14.003074004430
         C           -2.146088288239    -0.666078124938     0.018608480900    12.000000000000
         C            0.073567711761     0.077015875062     0.029685480900    12.000000000000
         C           -0.774151288239    -1.013854124938     0.115973480900    12.000000000000
         C           -2.290376788239     0.600273975062    -0.120937819100    12.000000000000
         C            1.549704711761     0.151572875062     0.109673480900    12.000000000000
         C           -3.278283288239    -1.650668124938     0.086288480900    12.000000000000
         C            3.652863711761    -1.052272124938    -0.161791519100    12.000000000000
         H           -0.423534288239    -2.029377124938     0.284658480900     1.007825032230
         H           -3.233121288239     1.244334875062    -0.233689519100     1.007825032230
         H           -3.275376288239    -2.189907124938     1.038773480900     1.007825032230
         H           -4.241483288239    -1.142830124938    -0.009826519100     1.007825032230
         H           -3.206806288239    -2.392365124938    -0.715465519100     1.007825032230
         H            1.696365711761    -1.749854124938    -0.619246519100     1.007825032230
         H            4.044822711761    -0.610062124938    -1.084272519100     1.007825032230
         H            3.992884711761    -2.085940124938    -0.080346519100     1.007825032230
         H            4.033172711761    -0.476935124938     0.681626480900     1.007825032230

  Basis Set: AUG-CC-PVTZ
    Blend: AUG-CC-PVTZ
  Basis Set: (AUG-CC-PVTZ AUX)
    Blend: AUG-CC-PVTZ-JKFIT
	 Reference Energy          =    -797.3094429023858538 [Eh]
	 Singles Energy            =      -0.0000000000000000 [Eh]
	 Same-Spin Energy          =      -0.4854166735927561 [Eh]
	 Opposite-Spin Energy      =      -1.5024669807842836 [Eh]
	 Correlation Energy        =      -1.9878836543770397 [Eh]
	 Total Energy              =    -799.2973265567628687 [Eh]

	 ================> DF-SCS-MP2 Energies <==================
	-----------------------------------------------------------
	 SCS Same-Spin Scale       =       0.3333333333333333 [-]
	 SCS Opposite-Spin Scale   =       1.2000000000000000 [-]
	 SCS Same-Spin Energy      =      -0.1618055578642520 [Eh]
	 SCS Opposite-Spin Energy  =      -1.8029603769411402 [Eh]
	 SCS Correlation Energy    =      -1.9647659348053923 [Eh]
	 SCS Total Energy          =    -799.2742088371912814 [Eh]
	-----------------------------------------------------------

  Dipole Moment: [D]
     X:    -1.4896      Y:    -3.8077      Z:    -1.1388     Total:     4.2443

*** Psi4 exiting successfully. Buy a developer a beer!
