                               Psi4 1.4a3.dev225

  ==> Input File <==

--------------------------------------------------------------------------
#psi4
#
memory 32 gb

molecule  {
0 1
  S       -0.8053760     1.6060500    -0.1399530
  O        2.1464270     1.2641370     0.3857660
  N        2.2049820    -0.9697390    -0.1110850
  C       -2.1414430    -0.6044570     0.0238790
  C        0.0782130     0.1386370     0.0349560
  C       -0.7695060    -0.9522330     0.1212440
  C       -2.2099890     0.8099681    -0.1273327
  C        1.5543500     0.2131940     0.1149440
  C       -3.2736380    -1.5890470     0.0915590
  C        3.6575090    -0.9906510    -0.1565210
  H       -0.4188890    -1.9677560     0.2899290
  H       -3.2284760     1.3059560    -0.2284190
  H       -3.2707310    -2.1282860     1.0440440
  H       -4.2368380    -1.0812090    -0.0045560
  H       -3.2021610    -2.3307440    -0.7101950
  H        1.7010110    -1.6882330    -0.6139760
  H        4.0494680    -0.5484410    -1.0790020
  H        3.9975300    -2.0243190    -0.0750760
  H        4.0378180    -0.4153140     0.6868970
units angstrom
no_reorient  #important for SAPT in psi4, default
symmetry c1  #important for SAPT in psi4, default
}

set PROPERTIES_ORIGIN ["COM"]
properties('MP2/aug-cc-pvtz', properties = ['dipole'])
--------------------------------------------------------------------------

    Molecular point group: c1
  Charge       = 0
  Multiplicity = 1
  Basis Set: AUG-CC-PVTZ
    Blend: AUG-CC-PVTZ
  Basis Set: (AUG-CC-PVTZ AUX)
    Blend: AUG-CC-PVTZ-JKFIT

    Orbital Energies [Eh]
    ---------------------

    Doubly Occupied:

       1A    -91.994704     2A    -20.518719     3A    -15.587139
       4A    -11.358220     5A    -11.271696     6A    -11.268745
       7A    -11.259242     8A    -11.256192     9A    -11.254617
      10A    -11.239576    11A     -8.996514    12A     -6.677627
      13A     -6.676713    14A     -6.676041    15A     -1.373817
      16A     -1.229705    17A     -1.191711    18A     -1.044926
      19A     -1.017687    20A     -0.953453    21A     -0.919136
      22A     -0.822610    23A     -0.765855    24A     -0.745440
      25A     -0.708929    26A     -0.641607    27A     -0.627851
      28A     -0.620502    29A     -0.591104    30A     -0.586762
      31A     -0.561036    32A     -0.551463    33A     -0.549589
      34A     -0.533869    35A     -0.526473    36A     -0.506089
      37A     -0.485687    38A     -0.432286    39A     -0.397379
      40A     -0.355520    41A     -0.317307

  @DF-RHF Final Energy:  -797.30703759160929

   => Energetics <=

    Nuclear Repulsion Energy =            589.5482236788922137
    One-Electron Energy =               -2263.5234519201785588
    Two-Electron Energy =                 876.6681906496771717
    Total Energy =                       -797.3070375916092871
  Basis Set: (AUG-CC-PVTZ AUX)
    Blend: AUG-CC-PVTZ-RI
    Molecular point group: c1

    Geometry (in Angstrom), charge = 0, multiplicity = 1:

       Center              X                  Y                   Z               Mass
    ------------   -----------------  -----------------  -----------------  -----------------
         S           -0.815883692497     1.532968152407    -0.144320627188    31.972071174400
         O            2.135919307503     1.191055152407     0.381398372812    15.994914619570
         N            2.194474307503    -1.042820847593    -0.115452627188    14.003074004430
         C           -2.151950692497    -0.677538847593     0.019511372812    12.000000000000
         C            0.067705307503     0.065555152407     0.030588372812    12.000000000000
         C           -0.780013692497    -1.025314847593     0.116876372812    12.000000000000
         C           -2.220496692497     0.736886252407    -0.131700327188    12.000000000000
         C            1.543842307503     0.140112152407     0.110576372812    12.000000000000
         C           -3.284145692497    -1.662128847593     0.087191372812    12.000000000000
         C            3.647001307503    -1.063732847593    -0.160888627188    12.000000000000
         H           -0.429396692497    -2.040837847593     0.285561372812     1.007825032230
         H           -3.238983692497     1.232874152407    -0.232786627188     1.007825032230
         H           -3.281238692497    -2.201367847593     1.039676372812     1.007825032230
         H           -4.247345692497    -1.154290847593    -0.008923627188     1.007825032230
         H           -3.212668692497    -2.403825847593    -0.714562627188     1.007825032230
         H            1.690503307503    -1.761314847593    -0.618343627188     1.007825032230
         H            4.038960307503    -0.621522847593    -1.083369627188     1.007825032230
         H            3.987022307503    -2.097400847593    -0.079443627188     1.007825032230
         H            4.027310307503    -0.488395847593     0.682529372812     1.007825032230

  Basis Set: AUG-CC-PVTZ
    Blend: AUG-CC-PVTZ
  Basis Set: (AUG-CC-PVTZ AUX)
    Blend: AUG-CC-PVTZ-JKFIT
	 Reference Energy          =    -797.3070375916092871 [Eh]
	 Singles Energy            =      -0.0000000000000000 [Eh]
	 Same-Spin Energy          =      -0.4887949718953701 [Eh]
	 Opposite-Spin Energy      =      -1.5047636972252749 [Eh]
	 Correlation Energy        =      -1.9935586691206451 [Eh]
	 Total Energy              =    -799.3005962607298898 [Eh]

	 ================> DF-SCS-MP2 Energies <==================
	-----------------------------------------------------------
	 SCS Same-Spin Scale       =       0.3333333333333333 [-]
	 SCS Opposite-Spin Scale   =       1.2000000000000000 [-]
	 SCS Same-Spin Energy      =      -0.1629316572984567 [Eh]
	 SCS Opposite-Spin Energy  =      -1.8057164366703298 [Eh]
	 SCS Correlation Energy    =      -1.9686480939687865 [Eh]
	 SCS Total Energy          =    -799.2756856855780825 [Eh]
	-----------------------------------------------------------

  Dipole Moment: [D]
     X:    -1.5625      Y:    -3.6504      Z:    -1.1562     Total:     4.1356

*** Psi4 exiting successfully. Buy a developer a beer!
