                               Psi4 1.4a3.dev225

  ==> Input File <==

--------------------------------------------------------------------------
#psi4
#
memory 32 gb

molecule  {
0 1
  S       -0.8053760     1.6060500    -0.1399530
  O        2.1464270     1.2641370     0.3857660
  N        2.2049820    -0.9697390    -0.1110850
  C       -2.1414430    -0.6044570     0.0238790
  C        0.0782130     0.1386370     0.0349560
  C       -0.7695060    -0.9522330     0.1212440
  C       -2.2969850     0.7606620    -0.1265510
  C        1.5543500     0.2131940     0.1149440
  C       -3.2736380    -1.5890470     0.0915590
  C        3.6575090    -0.9906510    -0.1565210
  H       -0.4188890    -1.9677560     0.2899290
  H       -3.2284760     1.3059560    -0.2284190
  H       -3.2707310    -2.1282860     1.0440440
  H       -4.2368380    -1.0812090    -0.0045560
  H       -3.2021610    -2.3307440    -0.7101950
  H        1.6760988    -1.7237495    -0.6388348
  H        4.0494680    -0.5484410    -1.0790020
  H        3.9975300    -2.0243190    -0.0750760
  H        4.0378180    -0.4153140     0.6868970
units angstrom
no_reorient  #important for SAPT in psi4, default
symmetry c1  #important for SAPT in psi4, default
}

set PROPERTIES_ORIGIN ["COM"]
properties('MP2/aug-cc-pvtz', properties = ['dipole'])
--------------------------------------------------------------------------

    Molecular point group: c1
  Charge       = 0
  Multiplicity = 1
  Basis Set: AUG-CC-PVTZ
    Blend: AUG-CC-PVTZ
  Basis Set: (AUG-CC-PVTZ AUX)
    Blend: AUG-CC-PVTZ-JKFIT

    Orbital Energies [Eh]
    ---------------------

    Doubly Occupied:

       1A    -91.990296     2A    -20.521853     3A    -15.593855
       4A    -11.360824     5A    -11.274849     6A    -11.268959
       7A    -11.260621     8A    -11.257055     9A    -11.253893
      10A    -11.238267    11A     -8.990045    12A     -6.670913
      13A     -6.670362    14A     -6.669652    15A     -1.375944
      16A     -1.226418    17A     -1.183272    18A     -1.046535
      19A     -1.007119    20A     -0.953451    21A     -0.922210
      22A     -0.825206    23A     -0.760881    24A     -0.749441
      25A     -0.708249    26A     -0.642903    27A     -0.628447
      28A     -0.619874    29A     -0.593885    30A     -0.590845
      31A     -0.567139    32A     -0.549761    33A     -0.548351
      34A     -0.534533    35A     -0.523530    36A     -0.500653
      37A     -0.478191    38A     -0.434405    39A     -0.398118
      40A     -0.348100    41A     -0.327716

  @DF-RHF Final Energy:  -797.31563933104292

   => Energetics <=

    Nuclear Repulsion Energy =            587.6687323108236569
    One-Electron Energy =               -2259.8355018386378106
    Two-Electron Energy =                 874.8511301967713507
    Total Energy =                       -797.3156393310429166
  Basis Set: (AUG-CC-PVTZ AUX)
    Blend: AUG-CC-PVTZ-RI
    Molecular point group: c1

    Geometry (in Angstrom), charge = 0, multiplicity = 1:

       Center              X                  Y                   Z               Mass
    ------------   -----------------  -----------------  -----------------  -----------------
         S           -0.808988337789     1.537015273501    -0.144219537974    31.972071174400
         O            2.142814662211     1.195102273501     0.381499462026    15.994914619570
         N            2.201369662211    -1.038773726499    -0.115351537974    14.003074004430
         C           -2.145055337789    -0.673491726499     0.019612462026    12.000000000000
         C            0.074600662211     0.069602273501     0.030689462026    12.000000000000
         C           -0.773118337789    -1.021267726499     0.116977462026    12.000000000000
         C           -2.300597337789     0.691627273501    -0.130817537974    12.000000000000
         C            1.550737662211     0.144159273501     0.110677462026    12.000000000000
         C           -3.277250337789    -1.658081726499     0.087292462026    12.000000000000
         C            3.653896662211    -1.059685726499    -0.160787537974    12.000000000000
         H           -0.422501337789    -2.036790726499     0.285662462026     1.007825032230
         H           -3.232088337789     1.236921273501    -0.232685537974     1.007825032230
         H           -3.274343337789    -2.197320726499     1.039777462026     1.007825032230
         H           -4.240450337789    -1.150243726499    -0.008822537974     1.007825032230
         H           -3.205773337789    -2.399778726499    -0.714461537974     1.007825032230
         H            1.672486462211    -1.792784226499    -0.643101337974     1.007825032230
         H            4.045855662211    -0.617475726499    -1.083268537974     1.007825032230
         H            3.993917662211    -2.093353726499    -0.079342537974     1.007825032230
         H            4.034205662211    -0.484348726499     0.682630462026     1.007825032230

  Basis Set: AUG-CC-PVTZ
    Blend: AUG-CC-PVTZ
  Basis Set: (AUG-CC-PVTZ AUX)
    Blend: AUG-CC-PVTZ-JKFIT
	 Reference Energy          =    -797.3156393310429166 [Eh]
	 Singles Energy            =      -0.0000000000000000 [Eh]
	 Same-Spin Energy          =      -0.4874229457825057 [Eh]
	 Opposite-Spin Energy      =      -1.5047673226943696 [Eh]
	 Correlation Energy        =      -1.9921902684768753 [Eh]
	 Total Energy              =    -799.3078295995197777 [Eh]

	 ================> DF-SCS-MP2 Energies <==================
	-----------------------------------------------------------
	 SCS Same-Spin Scale       =       0.3333333333333333 [-]
	 SCS Opposite-Spin Scale   =       1.2000000000000000 [-]
	 SCS Same-Spin Energy      =      -0.1624743152608352 [Eh]
	 SCS Opposite-Spin Energy  =      -1.8057207872332435 [Eh]
	 SCS Correlation Energy    =      -1.9681951024940787 [Eh]
	 SCS Total Energy          =    -799.2838344335369811 [Eh]
	-----------------------------------------------------------

  Dipole Moment: [D]
     X:    -1.4939      Y:    -3.7741      Z:    -1.1639     Total:     4.2226

*** Psi4 exiting successfully. Buy a developer a beer!
