                               Psi4 1.4a3.dev225

  ==> Input File <==

--------------------------------------------------------------------------
#psi4
#
memory 32 gb

molecule  {
0 1
  S       -0.8053760     1.6060500    -0.1399530
  O        2.1464270     1.2641370     0.3857660
  N        2.2041450    -0.9982383    -0.1530451
  C       -2.1414430    -0.6044570     0.0238790
  C        0.0782130     0.1386370     0.0349560
  C       -0.7695060    -0.9522330     0.1212440
  C       -2.2969850     0.7606620    -0.1265510
  C        1.5543500     0.2131940     0.1149440
  C       -3.2736380    -1.5890470     0.0915590
  C        3.6575090    -0.9906510    -0.1565210
  H       -0.4188890    -1.9677560     0.2899290
  H       -3.2284760     1.3059560    -0.2284190
  H       -3.2707310    -2.1282860     1.0440440
  H       -4.2368380    -1.0812090    -0.0045560
  H       -3.2021610    -2.3307440    -0.7101950
  H        1.7010110    -1.6882330    -0.6139760
  H        4.0494680    -0.5484410    -1.0790020
  H        3.9975300    -2.0243190    -0.0750760
  H        4.0378180    -0.4153140     0.6868970
units angstrom
no_reorient  #important for SAPT in psi4, default
symmetry c1  #important for SAPT in psi4, default
}

set PROPERTIES_ORIGIN ["COM"]
properties('MP2/aug-cc-pvtz', properties = ['dipole'])
--------------------------------------------------------------------------

    Molecular point group: c1
  Charge       = 0
  Multiplicity = 1
  Basis Set: AUG-CC-PVTZ
    Blend: AUG-CC-PVTZ
  Basis Set: (AUG-CC-PVTZ AUX)
    Blend: AUG-CC-PVTZ-JKFIT

    Orbital Energies [Eh]
    ---------------------

    Doubly Occupied:

       1A    -91.990876     2A    -20.527037     3A    -15.584729
       4A    -11.365237     5A    -11.275426     6A    -11.269733
       7A    -11.259375     8A    -11.257851     9A    -11.254434
      10A    -11.238583    11A     -8.990644    12A     -6.671514
      13A     -6.670962    14A     -6.670249    15A     -1.376432
      16A     -1.229918    17A     -1.183963    18A     -1.046926
      19A     -1.006991    20A     -0.951522    21A     -0.922639
      22A     -0.834065    23A     -0.769090    24A     -0.750626
      25A     -0.708961    26A     -0.642049    27A     -0.628882
      28A     -0.620246    29A     -0.595114    30A     -0.591258
      31A     -0.570483    32A     -0.553816    33A     -0.549350
      34A     -0.534979    35A     -0.522238    36A     -0.500556
      37A     -0.478943    38A     -0.436191    39A     -0.397735
      40A     -0.348688    41A     -0.328344

  @DF-RHF Final Energy:  -797.31668465714552

   => Energetics <=

    Nuclear Repulsion Energy =            587.3685678517122142
    One-Electron Energy =               -2259.1571964567183386
    Two-Electron Energy =                 874.4719439478606091
    Total Energy =                       -797.3166846571455153
  Basis Set: (AUG-CC-PVTZ AUX)
    Blend: AUG-CC-PVTZ-RI
    Molecular point group: c1

    Geometry (in Angstrom), charge = 0, multiplicity = 1:

       Center              X                  Y                   Z               Mass
    ------------   -----------------  -----------------  -----------------  -----------------
         S           -0.809074680178     1.539358425285    -0.140591343284    31.972071174400
         O            2.142728319822     1.197445425285     0.385127656716    15.994914619570
         N            2.200446319822    -1.064929874715    -0.153683443284    14.003074004430
         C           -2.145141680178    -0.671148574715     0.023240656716    12.000000000000
         C            0.074514319822     0.071945425285     0.034317656716    12.000000000000
         C           -0.773204680178    -1.018924574715     0.120605656716    12.000000000000
         C           -2.300683680178     0.693970425285    -0.127189343284    12.000000000000
         C            1.550651319822     0.146502425285     0.114305656716    12.000000000000
         C           -3.277336680178    -1.655738574715     0.090920656716    12.000000000000
         C            3.653810319822    -1.057342574715    -0.157159343284    12.000000000000
         H           -0.422587680178    -2.034447574715     0.289290656716     1.007825032230
         H           -3.232174680178     1.239264425285    -0.229057343284     1.007825032230
         H           -3.274429680178    -2.194977574715     1.043405656716     1.007825032230
         H           -4.240536680178    -1.147900574715    -0.005194343284     1.007825032230
         H           -3.205859680178    -2.397435574715    -0.710833343284     1.007825032230
         H            1.697312319822    -1.754924574715    -0.614614343284     1.007825032230
         H            4.045769319822    -0.615132574715    -1.079640343284     1.007825032230
         H            3.993831319822    -2.091010574715    -0.075714343284     1.007825032230
         H            4.034119319822    -0.482005574715     0.686258656716     1.007825032230

  Basis Set: AUG-CC-PVTZ
    Blend: AUG-CC-PVTZ
  Basis Set: (AUG-CC-PVTZ AUX)
    Blend: AUG-CC-PVTZ-JKFIT
	 Reference Energy          =    -797.3166846571455153 [Eh]
	 Singles Energy            =      -0.0000000000000000 [Eh]
	 Same-Spin Energy          =      -0.4869400451683618 [Eh]
	 Opposite-Spin Energy      =      -1.5038648436156969 [Eh]
	 Correlation Energy        =      -1.9908048887840586 [Eh]
	 Total Energy              =    -799.3074895459295703 [Eh]

	 ================> DF-SCS-MP2 Energies <==================
	-----------------------------------------------------------
	 SCS Same-Spin Scale       =       0.3333333333333333 [-]
	 SCS Opposite-Spin Scale   =       1.2000000000000000 [-]
	 SCS Same-Spin Energy      =      -0.1623133483894539 [Eh]
	 SCS Opposite-Spin Energy  =      -1.8046378123388362 [Eh]
	 SCS Correlation Energy    =      -1.9669511607282901 [Eh]
	 SCS Total Energy          =    -799.2836358178738010 [Eh]
	-----------------------------------------------------------

  Dipole Moment: [D]
     X:    -1.5628      Y:    -3.6265      Z:    -1.0645     Total:     4.0899

*** Psi4 exiting successfully. Buy a developer a beer!
