                               Psi4 1.4a3.dev225

  ==> Input File <==

--------------------------------------------------------------------------
#psi4
#
memory 32 gb

molecule  {
0 1
  S       -0.8053760     1.6060500    -0.1399530
  O        2.1464270     1.2641370     0.3857660
  N        2.2049820    -0.9697390    -0.1110850
  C       -2.1414430    -0.6044570     0.0238790
  C        0.0782130     0.1386370     0.0349560
  C       -0.7695060    -0.9522330     0.1212440
  C       -2.2969850     0.7606620    -0.1265510
  C        1.5742954     0.2142014     0.1160248
  C       -3.2736380    -1.5890470     0.0915590
  C        3.6575090    -0.9906510    -0.1565210
  H       -0.4188890    -1.9677560     0.2899290
  H       -3.2284760     1.3059560    -0.2284190
  H       -3.2707310    -2.1282860     1.0440440
  H       -4.2368380    -1.0812090    -0.0045560
  H       -3.2021610    -2.3307440    -0.7101950
  H        1.7010110    -1.6882330    -0.6139760
  H        4.0494680    -0.5484410    -1.0790020
  H        3.9975300    -2.0243190    -0.0750760
  H        4.0378180    -0.4153140     0.6868970
units angstrom
no_reorient  #important for SAPT in psi4, default
symmetry c1  #important for SAPT in psi4, default
}

set PROPERTIES_ORIGIN ["COM"]
properties('MP2/aug-cc-pvtz', properties = ['dipole'])
--------------------------------------------------------------------------

    Molecular point group: c1
  Charge       = 0
  Multiplicity = 1
  Basis Set: AUG-CC-PVTZ
    Blend: AUG-CC-PVTZ
  Basis Set: (AUG-CC-PVTZ AUX)
    Blend: AUG-CC-PVTZ-JKFIT

    Orbital Energies [Eh]
    ---------------------

    Doubly Occupied:

       1A    -91.988964     2A    -20.523623     3A    -15.590601
       4A    -11.361058     5A    -11.274722     6A    -11.267215
       7A    -11.261607     8A    -11.255091     9A    -11.252709
      10A    -11.237383    11A     -8.988735    12A     -6.669610
      13A     -6.669064    14A     -6.668353    15A     -1.383590
      16A     -1.236493    17A     -1.181807    18A     -1.044364
      19A     -1.005184    20A     -0.954339    21A     -0.921510
      22A     -0.825980    23A     -0.771683    24A     -0.748337
      25A     -0.707497    26A     -0.645990    27A     -0.631899
      28A     -0.621569    29A     -0.593138    30A     -0.589986
      31A     -0.567033    32A     -0.553517    33A     -0.550076
      34A     -0.533762    35A     -0.522592    36A     -0.501927
      37A     -0.477104    38A     -0.434858    39A     -0.401565
      40A     -0.347022    41A     -0.326481

  @DF-RHF Final Energy:  -797.32032221849761

   => Energetics <=

    Nuclear Repulsion Energy =            587.8680116585294400
    One-Electron Energy =               -2260.2005912480553889
    Two-Electron Energy =                 875.0122573710283405
    Total Energy =                       -797.3203222184976084
  Basis Set: (AUG-CC-PVTZ AUX)
    Blend: AUG-CC-PVTZ-RI
    Molecular point group: c1

    Geometry (in Angstrom), charge = 0, multiplicity = 1:

       Center              X                  Y                   Z               Mass
    ------------   -----------------  -----------------  -----------------  -----------------
         S           -0.810694033812     1.536706430184    -0.144464783084    31.972071174400
         O            2.141108966188     1.194793430184     0.381254216916    15.994914619570
         N            2.199663966188    -1.039082569816    -0.115596783084    14.003074004430
         C           -2.146761033812    -0.673800569816     0.019367216916    12.000000000000
         C            0.072894966188     0.069293430184     0.030444216916    12.000000000000
         C           -0.774824033812    -1.021576569816     0.116732216916    12.000000000000
         C           -2.302303033812     0.691318430184    -0.131062783084    12.000000000000
         C            1.568977366188     0.144857830184     0.111513016916    12.000000000000
         C           -3.278956033812    -1.658390569816     0.087047216916    12.000000000000
         C            3.652190966188    -1.059994569816    -0.161032783084    12.000000000000
         H           -0.424207033812    -2.037099569816     0.285417216916     1.007825032230
         H           -3.233794033812     1.236612430184    -0.232930783084     1.007825032230
         H           -3.276049033812    -2.197629569816     1.039532216916     1.007825032230
         H           -4.242156033812    -1.150552569816    -0.009067783084     1.007825032230
         H           -3.207479033812    -2.400087569816    -0.714706783084     1.007825032230
         H            1.695692966188    -1.757576569816    -0.618487783084     1.007825032230
         H            4.044149966188    -0.617784569816    -1.083513783084     1.007825032230
         H            3.992211966188    -2.093662569816    -0.079587783084     1.007825032230
         H            4.032499966188    -0.484657569816     0.682385216916     1.007825032230

  Basis Set: AUG-CC-PVTZ
    Blend: AUG-CC-PVTZ
  Basis Set: (AUG-CC-PVTZ AUX)
    Blend: AUG-CC-PVTZ-JKFIT
	 Reference Energy          =    -797.3203222184976084 [Eh]
	 Singles Energy            =      -0.0000000000000000 [Eh]
	 Same-Spin Energy          =      -0.4866188415476114 [Eh]
	 Opposite-Spin Energy      =      -1.5030681338349845 [Eh]
	 Correlation Energy        =      -1.9896869753825959 [Eh]
	 Total Energy              =    -799.3100091938802052 [Eh]

	 ================> DF-SCS-MP2 Energies <==================
	-----------------------------------------------------------
	 SCS Same-Spin Scale       =       0.3333333333333333 [-]
	 SCS Opposite-Spin Scale   =       1.2000000000000000 [-]
	 SCS Same-Spin Energy      =      -0.1622062805158705 [Eh]
	 SCS Opposite-Spin Energy  =      -1.8036817606019813 [Eh]
	 SCS Correlation Energy    =      -1.9658880411178516 [Eh]
	 SCS Total Energy          =    -799.2862102596154728 [Eh]
	-----------------------------------------------------------

  Dipole Moment: [D]
     X:    -1.3227      Y:    -3.7543      Z:    -1.1407     Total:     4.1407

*** Psi4 exiting successfully. Buy a developer a beer!
