                               Psi4 1.4a3.dev225

  ==> Input File <==

--------------------------------------------------------------------------
#psi4
#
memory 32 gb

molecule  {
0 1
  S       -0.8053760     1.6060500    -0.1399530
  O        2.1464270     1.2641370     0.3857660
  N        2.2049820    -0.9697390    -0.1110850
  C       -2.1414430    -0.6044570     0.0238790
  C        0.0782130     0.1386370     0.0349560
  C       -0.7501649    -0.9571358     0.1226166
  C       -2.2969850     0.7606620    -0.1265510
  C        1.5543500     0.2131940     0.1149440
  C       -3.2736380    -1.5890470     0.0915590
  C        3.6575090    -0.9906510    -0.1565210
  H       -0.4188890    -1.9677560     0.2899290
  H       -3.2284760     1.3059560    -0.2284190
  H       -3.2707310    -2.1282860     1.0440440
  H       -4.2368380    -1.0812090    -0.0045560
  H       -3.2021610    -2.3307440    -0.7101950
  H        1.7010110    -1.6882330    -0.6139760
  H        4.0494680    -0.5484410    -1.0790020
  H        3.9975300    -2.0243190    -0.0750760
  H        4.0378180    -0.4153140     0.6868970
units angstrom
no_reorient  #important for SAPT in psi4, default
symmetry c1  #important for SAPT in psi4, default
}

set PROPERTIES_ORIGIN ["COM"]
properties('MP2/aug-cc-pvtz', properties = ['dipole'])
--------------------------------------------------------------------------

    Molecular point group: c1
  Charge       = 0
  Multiplicity = 1
  Basis Set: AUG-CC-PVTZ
    Blend: AUG-CC-PVTZ
  Basis Set: (AUG-CC-PVTZ AUX)
    Blend: AUG-CC-PVTZ-JKFIT

    Orbital Energies [Eh]
    ---------------------

    Doubly Occupied:

       1A    -91.989491     2A    -20.522041     3A    -15.589461
       4A    -11.360650     5A    -11.274980     6A    -11.268651
       7A    -11.260736     8A    -11.257427     9A    -11.255634
      10A    -11.238298    11A     -8.989337    12A     -6.670228
      13A     -6.669655    14A     -6.668921    15A     -1.376463
      16A     -1.231925    17A     -1.181957    18A     -1.046058
      19A     -1.008185    20A     -0.953834    21A     -0.922011
      22A     -0.828766    23A     -0.768409    24A     -0.750526
      25A     -0.709722    26A     -0.644158    27A     -0.628909
      28A     -0.620120    29A     -0.593993    30A     -0.590409
      31A     -0.569170    32A     -0.551843    33A     -0.549564
      34A     -0.531966    35A     -0.525228    36A     -0.500250
      37A     -0.478499    38A     -0.434374    39A     -0.398900
      40A     -0.347810    41A     -0.328584

  @DF-RHF Final Energy:  -797.31979811468636

   => Energetics <=

    Nuclear Repulsion Energy =            587.8306199143268032
    One-Electron Energy =               -2260.1265475344516744
    Two-Electron Energy =                 874.9761295054386210
    Total Energy =                       -797.3197981146863640
  Basis Set: (AUG-CC-PVTZ AUX)
    Blend: AUG-CC-PVTZ-RI
    Molecular point group: c1

    Geometry (in Angstrom), charge = 0, multiplicity = 1:

       Center              X                  Y                   Z               Mass
    ------------   -----------------  -----------------  -----------------  -----------------
         S           -0.810647261512     1.537163874573    -0.144487368153    31.972071174400
         O            2.141155738488     1.195250874573     0.381231631847    15.994914619570
         N            2.199710738488    -1.038625125427    -0.115619368153    14.003074004430
         C           -2.146714261512    -0.673343125427     0.019344631847    12.000000000000
         C            0.072941738488     0.069750874573     0.030421631847    12.000000000000
         C           -0.755436161512    -1.026021925427     0.118082231847    12.000000000000
         C           -2.302256261512     0.691775874573    -0.131085368153    12.000000000000
         C            1.549078738488     0.144307874573     0.110409631847    12.000000000000
         C           -3.278909261512    -1.657933125427     0.087024631847    12.000000000000
         C            3.652237738488    -1.059537125427    -0.161055368153    12.000000000000
         H           -0.424160261512    -2.036642125427     0.285394631847     1.007825032230
         H           -3.233747261512     1.237069874573    -0.232953368153     1.007825032230
         H           -3.276002261512    -2.197172125427     1.039509631847     1.007825032230
         H           -4.242109261512    -1.150095125427    -0.009090368153     1.007825032230
         H           -3.207432261512    -2.399630125427    -0.714729368153     1.007825032230
         H            1.695739738488    -1.757119125427    -0.618510368153     1.007825032230
         H            4.044196738488    -0.617327125427    -1.083536368153     1.007825032230
         H            3.992258738488    -2.093205125427    -0.079610368153     1.007825032230
         H            4.032546738488    -0.484200125427     0.682362631847     1.007825032230

  Basis Set: AUG-CC-PVTZ
    Blend: AUG-CC-PVTZ
  Basis Set: (AUG-CC-PVTZ AUX)
    Blend: AUG-CC-PVTZ-JKFIT
	 Reference Energy          =    -797.3197981146863640 [Eh]
	 Singles Energy            =      -0.0000000000000000 [Eh]
	 Same-Spin Energy          =      -0.4865201761372022 [Eh]
	 Opposite-Spin Energy      =      -1.5033823929009118 [Eh]
	 Correlation Energy        =      -1.9899025690381140 [Eh]
	 Total Energy              =    -799.3097006837244862 [Eh]

	 ================> DF-SCS-MP2 Energies <==================
	-----------------------------------------------------------
	 SCS Same-Spin Scale       =       0.3333333333333333 [-]
	 SCS Opposite-Spin Scale   =       1.2000000000000000 [-]
	 SCS Same-Spin Energy      =      -0.1621733920457341 [Eh]
	 SCS Opposite-Spin Energy  =      -1.8040588714810941 [Eh]
	 SCS Correlation Energy    =      -1.9662322635268281 [Eh]
	 SCS Total Energy          =    -799.2860303782132405 [Eh]
	-----------------------------------------------------------

  Dipole Moment: [D]
     X:    -1.4910      Y:    -3.7610      Z:    -1.1423     Total:     4.2040

*** Psi4 exiting successfully. Buy a developer a beer!
