                               Psi4 1.4a3.dev225

  ==> Input File <==

--------------------------------------------------------------------------
#psi4
#
memory 32 gb

molecule  {
0 1
  S       -0.7503334     1.5006800    -0.1261801
  O        2.1464270     1.2641370     0.3857660
  N        2.2049820    -0.9697390    -0.1110850
  C       -2.1414430    -0.6044570     0.0238790
  C        0.0782130     0.1386370     0.0349560
  C       -0.7695060    -0.9522330     0.1212440
  C       -2.2969850     0.7606620    -0.1265510
  C        1.5543500     0.2131940     0.1149440
  C       -3.2736380    -1.5890470     0.0915590
  C        3.6575090    -0.9906510    -0.1565210
  H       -0.4188890    -1.9677560     0.2899290
  H       -3.2284760     1.3059560    -0.2284190
  H       -3.2707310    -2.1282860     1.0440440
  H       -4.2368380    -1.0812090    -0.0045560
  H       -3.2021610    -2.3307440    -0.7101950
  H        1.7010110    -1.6882330    -0.6139760
  H        4.0494680    -0.5484410    -1.0790020
  H        3.9975300    -2.0243190    -0.0750760
  H        4.0378180    -0.4153140     0.6868970
units angstrom
no_reorient  #important for SAPT in psi4, default
symmetry c1  #important for SAPT in psi4, default
}

set PROPERTIES_ORIGIN ["COM"]
properties('MP2/aug-cc-pvtz', properties = ['dipole'])
--------------------------------------------------------------------------

    Molecular point group: c1
  Charge       = 0
  Multiplicity = 1
  Basis Set: AUG-CC-PVTZ
    Blend: AUG-CC-PVTZ
  Basis Set: (AUG-CC-PVTZ AUX)
    Blend: AUG-CC-PVTZ-JKFIT

    Orbital Energies [Eh]
    ---------------------

    Doubly Occupied:

       1A    -91.985904     2A    -20.524159     3A    -15.590755
       4A    -11.363345     5A    -11.265467     6A    -11.265437
       7A    -11.261506     8A    -11.253673     9A    -11.249645
      10A    -11.237093    11A     -8.988935    12A     -6.670077
      13A     -6.669270    14A     -6.668476    15A     -1.379134
      16A     -1.233420    17A     -1.200384    18A     -1.057088
      19A     -1.002959    20A     -0.953146    21A     -0.931379
      22A     -0.828858    23A     -0.768618    24A     -0.751237
      25A     -0.708718    26A     -0.646840    27A     -0.630995
      28A     -0.626262    29A     -0.592495    30A     -0.590880
      31A     -0.572327    32A     -0.554676    33A     -0.553388
      34A     -0.535803    35A     -0.531257    36A     -0.506846
      37A     -0.469940    38A     -0.436969    39A     -0.400069
      40A     -0.342397    41A     -0.332845

  @DF-RHF Final Energy:  -797.31059869668604

   => Energetics <=

    Nuclear Repulsion Energy =            593.6426113777342835
    One-Electron Energy =               -2271.6410730220077312
    Two-Electron Energy =                 880.6878629475874050
    Total Energy =                       -797.3105986966860428
  Basis Set: (AUG-CC-PVTZ AUX)
    Blend: AUG-CC-PVTZ-RI
    Molecular point group: c1

    Geometry (in Angstrom), charge = 0, multiplicity = 1:

       Center              X                  Y                   Z               Mass
    ------------   -----------------  -----------------  -----------------  -----------------
         S           -0.765458427927     1.453143546807    -0.133448443984    31.972071174400
         O            2.131301972073     1.216600546807     0.378497656016    15.994914619570
         N            2.189856972073    -1.017275453193    -0.118353343984    14.003074004430
         C           -2.156568027927    -0.651993453193     0.016610656016    12.000000000000
         C            0.063087972073     0.091100546807     0.027687656016    12.000000000000
         C           -0.784631027927    -0.999769453193     0.113975656016    12.000000000000
         C           -2.312110027927     0.713125546807    -0.133819343984    12.000000000000
         C            1.539224972073     0.165657546807     0.107675656016    12.000000000000
         C           -3.288763027927    -1.636583453193     0.084290656016    12.000000000000
         C            3.642383972073    -1.038187453193    -0.163789343984    12.000000000000
         H           -0.434014027927    -2.015292453193     0.282660656016     1.007825032230
         H           -3.243601027927     1.258419546807    -0.235687343984     1.007825032230
         H           -3.285856027927    -2.175822453193     1.036775656016     1.007825032230
         H           -4.251963027927    -1.128745453193    -0.011824343984     1.007825032230
         H           -3.217286027927    -2.378280453193    -0.717463343984     1.007825032230
         H            1.685885972073    -1.735769453193    -0.621244343984     1.007825032230
         H            4.034342972073    -0.595977453193    -1.086270343984     1.007825032230
         H            3.982404972073    -2.071855453193    -0.082344343984     1.007825032230
         H            4.022692972073    -0.462850453193     0.679628656016     1.007825032230

  Basis Set: AUG-CC-PVTZ
    Blend: AUG-CC-PVTZ
  Basis Set: (AUG-CC-PVTZ AUX)
    Blend: AUG-CC-PVTZ-JKFIT
	 Reference Energy          =    -797.3105986966860428 [Eh]
	 Singles Energy            =      -0.0000000000000000 [Eh]
	 Same-Spin Energy          =      -0.4884673920675680 [Eh]
	 Opposite-Spin Energy      =      -1.5034781543805453 [Eh]
	 Correlation Energy        =      -1.9919455464481133 [Eh]
	 Total Energy              =    -799.3025442431342071 [Eh]

	 ================> DF-SCS-MP2 Energies <==================
	-----------------------------------------------------------
	 SCS Same-Spin Scale       =       0.3333333333333333 [-]
	 SCS Opposite-Spin Scale   =       1.2000000000000000 [-]
	 SCS Same-Spin Energy      =      -0.1628224640225227 [Eh]
	 SCS Opposite-Spin Energy  =      -1.8041737852566544 [Eh]
	 SCS Correlation Energy    =      -1.9669962492791770 [Eh]
	 SCS Total Energy          =    -799.2775949459652338 [Eh]
	-----------------------------------------------------------

  Dipole Moment: [D]
     X:    -1.4170      Y:    -3.7155      Z:    -1.1476     Total:     4.1388

*** Psi4 exiting successfully. Buy a developer a beer!
