                               Psi4 1.4a3.dev225

  ==> Input File <==

--------------------------------------------------------------------------
#psi4
#
memory 32 gb

molecule  {
0 1
  S       -0.8053760     1.6060500    -0.1399530
  O        2.1464270     1.2641370     0.3857660
  N        2.2049106    -0.9950038    -0.1088213
  C       -2.1414430    -0.6044570     0.0238790
  C        0.0782130     0.1386370     0.0349560
  C       -0.7695060    -0.9522330     0.1212440
  C       -2.2969850     0.7606620    -0.1265510
  C        1.5543500     0.2131940     0.1149440
  C       -3.2736380    -1.5890470     0.0915590
  C        3.6575090    -0.9906510    -0.1565210
  H       -0.4188890    -1.9677560     0.2899290
  H       -3.2284760     1.3059560    -0.2284190
  H       -3.2707310    -2.1282860     1.0440440
  H       -4.2368380    -1.0812090    -0.0045560
  H       -3.2021610    -2.3307440    -0.7101950
  H        1.7010110    -1.6882330    -0.6139760
  H        4.0494680    -0.5484410    -1.0790020
  H        3.9975300    -2.0243190    -0.0750760
  H        4.0378180    -0.4153140     0.6868970
units angstrom
no_reorient  #important for SAPT in psi4, default
symmetry c1  #important for SAPT in psi4, default
}

set PROPERTIES_ORIGIN ["COM"]
properties('MP2/aug-cc-pvtz', properties = ['dipole'])
--------------------------------------------------------------------------

    Molecular point group: c1
  Charge       = 0
  Multiplicity = 1
  Basis Set: AUG-CC-PVTZ
    Blend: AUG-CC-PVTZ
  Basis Set: (AUG-CC-PVTZ AUX)
    Blend: AUG-CC-PVTZ-JKFIT

    Orbital Energies [Eh]
    ---------------------

    Doubly Occupied:

       1A    -91.990846     2A    -20.525955     3A    -15.587240
       4A    -11.363823     5A    -11.275371     6A    -11.269739
       7A    -11.259436     8A    -11.257803     9A    -11.254385
      10A    -11.238551    11A     -8.990610    12A     -6.671479
      13A     -6.670928    14A     -6.670216    15A     -1.376714
      16A     -1.229595    17A     -1.183935    18A     -1.046939
      19A     -1.007173    20A     -0.952079    21A     -0.922524
      22A     -0.830985    23A     -0.766809    24A     -0.750462
      25A     -0.708932    26A     -0.643282    27A     -0.629413
      28A     -0.618965    29A     -0.594774    30A     -0.591143
      31A     -0.568650    32A     -0.552293    33A     -0.549245
      34A     -0.534988    35A     -0.523157    36A     -0.500756
      37A     -0.478882    38A     -0.436263    39A     -0.399304
      40A     -0.348631    41A     -0.328354

  @DF-RHF Final Energy:  -797.31844653985013

   => Energetics <=

    Nuclear Repulsion Energy =            587.4966431950203969
    One-Electron Energy =               -2259.4289213112515426
    Two-Electron Energy =                 874.6138315763810169
    Total Energy =                       -797.3184465398501288
  Basis Set: (AUG-CC-PVTZ AUX)
    Blend: AUG-CC-PVTZ-RI
    Molecular point group: c1

    Geometry (in Angstrom), charge = 0, multiplicity = 1:

       Center              X                  Y                   Z               Mass
    ------------   -----------------  -----------------  -----------------  -----------------
         S           -0.809143828268     1.539066289055    -0.144585584813    31.972071174400
         O            2.142659171732     1.197153289055     0.381133415187    15.994914619570
         N            2.201142771732    -1.061987510945    -0.113453884813    14.003074004430
         C           -2.145210828268    -0.671440710945     0.019246415187    12.000000000000
         C            0.074445171732     0.071653289055     0.030323415187    12.000000000000
         C           -0.773273828268    -1.019216710945     0.116611415187    12.000000000000
         C           -2.300752828268     0.693678289055    -0.131183584813    12.000000000000
         C            1.550582171732     0.146210289055     0.110311415187    12.000000000000
         C           -3.277405828268    -1.656030710945     0.086926415187    12.000000000000
         C            3.653741171732    -1.057634710945    -0.161153584813    12.000000000000
         H           -0.422656828268    -2.034739710945     0.285296415187     1.007825032230
         H           -3.232243828268     1.238972289055    -0.233051584813     1.007825032230
         H           -3.274498828268    -2.195269710945     1.039411415187     1.007825032230
         H           -4.240605828268    -1.148192710945    -0.009188584813     1.007825032230
         H           -3.205928828268    -2.397727710945    -0.714827584813     1.007825032230
         H            1.697243171732    -1.755216710945    -0.618608584813     1.007825032230
         H            4.045700171732    -0.615424710945    -1.083634584813     1.007825032230
         H            3.993762171732    -2.091302710945    -0.079708584813     1.007825032230
         H            4.034050171732    -0.482297710945     0.682264415187     1.007825032230

  Basis Set: AUG-CC-PVTZ
    Blend: AUG-CC-PVTZ
  Basis Set: (AUG-CC-PVTZ AUX)
    Blend: AUG-CC-PVTZ-JKFIT
	 Reference Energy          =    -797.3184465398501288 [Eh]
	 Singles Energy            =      -0.0000000000000000 [Eh]
	 Same-Spin Energy          =      -0.4869918550470298 [Eh]
	 Opposite-Spin Energy      =      -1.5039759257277516 [Eh]
	 Correlation Energy        =      -1.9909677807747814 [Eh]
	 Total Energy              =    -799.3094143206249100 [Eh]

	 ================> DF-SCS-MP2 Energies <==================
	-----------------------------------------------------------
	 SCS Same-Spin Scale       =       0.3333333333333333 [-]
	 SCS Opposite-Spin Scale   =       1.2000000000000000 [-]
	 SCS Same-Spin Energy      =      -0.1623306183490099 [Eh]
	 SCS Opposite-Spin Energy  =      -1.8047711108733018 [Eh]
	 SCS Correlation Energy    =      -1.9671017292223116 [Eh]
	 SCS Total Energy          =    -799.2855482690724784 [Eh]
	-----------------------------------------------------------

  Dipole Moment: [D]
     X:    -1.5578      Y:    -3.6269      Z:    -1.1371     Total:     4.1078

*** Psi4 exiting successfully. Buy a developer a beer!
