                               Psi4 1.4a3.dev225

  ==> Input File <==

--------------------------------------------------------------------------
#psi4
#
memory 32 gb

molecule  {
0 1
  S       -0.8053760     1.6060500    -0.1399530
  O        2.1464270     1.2641370     0.3857660
  N        2.2049820    -0.9697390    -0.1110850
  C       -2.1414430    -0.6044570     0.0238790
  C        0.0782130     0.1386370     0.0349560
  C       -0.7884196    -0.9375052     0.1182405
  C       -2.2969850     0.7606620    -0.1265510
  C        1.5543500     0.2131940     0.1149440
  C       -3.2736380    -1.5890470     0.0915590
  C        3.6575090    -0.9906510    -0.1565210
  H       -0.4188890    -1.9677560     0.2899290
  H       -3.2284760     1.3059560    -0.2284190
  H       -3.2707310    -2.1282860     1.0440440
  H       -4.2368380    -1.0812090    -0.0045560
  H       -3.2021610    -2.3307440    -0.7101950
  H        1.7010110    -1.6882330    -0.6139760
  H        4.0494680    -0.5484410    -1.0790020
  H        3.9975300    -2.0243190    -0.0750760
  H        4.0378180    -0.4153140     0.6868970
units angstrom
no_reorient  #important for SAPT in psi4, default
symmetry c1  #important for SAPT in psi4, default
}

set PROPERTIES_ORIGIN ["COM"]
properties('MP2/aug-cc-pvtz', properties = ['dipole'])
--------------------------------------------------------------------------

    Molecular point group: c1
  Charge       = 0
  Multiplicity = 1
  Basis Set: AUG-CC-PVTZ
    Blend: AUG-CC-PVTZ
  Basis Set: (AUG-CC-PVTZ AUX)
    Blend: AUG-CC-PVTZ-JKFIT

    Orbital Energies [Eh]
    ---------------------

    Doubly Occupied:

       1A    -91.990874     2A    -20.521860     3A    -15.589374
       4A    -11.361317     5A    -11.273992     6A    -11.269721
       7A    -11.260614     8A    -11.256825     9A    -11.251868
      10A    -11.238591    11A     -8.990570    12A     -6.671413
      13A     -6.670893    14A     -6.670193    15A     -1.376357
      16A     -1.231715    17A     -1.186466    18A     -1.047734
      19A     -1.006438    20A     -0.954665    21A     -0.923835
      22A     -0.828697    23A     -0.769220    24A     -0.749089
      25A     -0.708362    26A     -0.644010    27A     -0.629157
      28A     -0.621044    29A     -0.593442    30A     -0.591492
      31A     -0.566295    32A     -0.551569    33A     -0.549351
      34A     -0.537185    35A     -0.521470    36A     -0.501733
      37A     -0.477627    38A     -0.435185    39A     -0.398864
      40A     -0.349540    41A     -0.327337

  @DF-RHF Final Energy:  -797.31828299620020

   => Energetics <=

    Nuclear Repulsion Energy =            588.2313184500366106
    One-Electron Energy =               -2260.9072343501252362
    Two-Electron Energy =                 875.3576329038883159
    Total Energy =                       -797.3182829962001961
  Basis Set: (AUG-CC-PVTZ AUX)
    Blend: AUG-CC-PVTZ-RI
    Molecular point group: c1

    Geometry (in Angstrom), charge = 0, multiplicity = 1:

       Center              X                  Y                   Z               Mass
    ------------   -----------------  -----------------  -----------------  -----------------
         S           -0.807686380684     1.535644483042    -0.144148661782    31.972071174400
         O            2.144116619316     1.193731483042     0.381570338218    15.994914619570
         N            2.202671619316    -1.040144516958    -0.115280661782    14.003074004430
         C           -2.143753380684    -0.674862516958     0.019683338218    12.000000000000
         C            0.075902619316     0.068231483042     0.030760338218    12.000000000000
         C           -0.790729980684    -1.007910716958     0.114044838218    12.000000000000
         C           -2.299295380684     0.690256483042    -0.130746661782    12.000000000000
         C            1.552039619316     0.142788483042     0.110748338218    12.000000000000
         C           -3.275948380684    -1.659452516958     0.087363338218    12.000000000000
         C            3.655198619316    -1.061056516958    -0.160716661782    12.000000000000
         H           -0.421199380684    -2.038161516958     0.285733338218     1.007825032230
         H           -3.230786380684     1.235550483042    -0.232614661782     1.007825032230
         H           -3.273041380684    -2.198691516958     1.039848338218     1.007825032230
         H           -4.239148380684    -1.151614516958    -0.008751661782     1.007825032230
         H           -3.204471380684    -2.401149516958    -0.714390661782     1.007825032230
         H            1.698700619316    -1.758638516958    -0.618171661782     1.007825032230
         H            4.047157619316    -0.618846516958    -1.083197661782     1.007825032230
         H            3.995219619316    -2.094724516958    -0.079271661782     1.007825032230
         H            4.035507619316    -0.485719516958     0.682701338218     1.007825032230

  Basis Set: AUG-CC-PVTZ
    Blend: AUG-CC-PVTZ
  Basis Set: (AUG-CC-PVTZ AUX)
    Blend: AUG-CC-PVTZ-JKFIT
	 Reference Energy          =    -797.3182829962001961 [Eh]
	 Singles Energy            =      -0.0000000000000000 [Eh]
	 Same-Spin Energy          =      -0.4874556304610301 [Eh]
	 Opposite-Spin Energy      =      -1.5041209996152012 [Eh]
	 Correlation Energy        =      -1.9915766300762314 [Eh]
	 Total Energy              =    -799.3098596262764204 [Eh]

	 ================> DF-SCS-MP2 Energies <==================
	-----------------------------------------------------------
	 SCS Same-Spin Scale       =       0.3333333333333333 [-]
	 SCS Opposite-Spin Scale   =       1.2000000000000000 [-]
	 SCS Same-Spin Energy      =      -0.1624852101536767 [Eh]
	 SCS Opposite-Spin Energy  =      -1.8049451995382413 [Eh]
	 SCS Correlation Energy    =      -1.9674304096919180 [Eh]
	 SCS Total Energy          =    -799.2857134058921247 [Eh]
	-----------------------------------------------------------

  Dipole Moment: [D]
     X:    -1.4913      Y:    -3.7429      Z:    -1.1474     Total:     4.1893

*** Psi4 exiting successfully. Buy a developer a beer!
