                               Psi4 1.4a3.dev225

  ==> Input File <==

--------------------------------------------------------------------------
#psi4
#
memory 32 gb

molecule  {
0 1
  S       -0.8053760     1.6060500    -0.1399530
  O        2.1464270     1.2641370     0.3857660
  N        2.2075886    -0.9412652    -0.0691803
  C       -2.1414430    -0.6044570     0.0238790
  C        0.0782130     0.1386370     0.0349560
  C       -0.7695060    -0.9522330     0.1212440
  C       -2.2969850     0.7606620    -0.1265510
  C        1.5543500     0.2131940     0.1149440
  C       -3.2736380    -1.5890470     0.0915590
  C        3.6575090    -0.9906510    -0.1565210
  H       -0.4188890    -1.9677560     0.2899290
  H       -3.2284760     1.3059560    -0.2284190
  H       -3.2707310    -2.1282860     1.0440440
  H       -4.2368380    -1.0812090    -0.0045560
  H       -3.2021610    -2.3307440    -0.7101950
  H        1.7010110    -1.6882330    -0.6139760
  H        4.0494680    -0.5484410    -1.0790020
  H        3.9975300    -2.0243190    -0.0750760
  H        4.0378180    -0.4153140     0.6868970
units angstrom
no_reorient  #important for SAPT in psi4, default
symmetry c1  #important for SAPT in psi4, default
}

set PROPERTIES_ORIGIN ["COM"]
properties('MP2/aug-cc-pvtz', properties = ['dipole'])
--------------------------------------------------------------------------

    Molecular point group: c1
  Charge       = 0
  Multiplicity = 1
  Basis Set: AUG-CC-PVTZ
    Blend: AUG-CC-PVTZ
  Basis Set: (AUG-CC-PVTZ AUX)
    Blend: AUG-CC-PVTZ-JKFIT

    Orbital Energies [Eh]
    ---------------------

    Doubly Occupied:

       1A    -91.990020     2A    -20.516980     3A    -15.593772
       4A    -11.356644     5A    -11.274638     6A    -11.268635
       7A    -11.262189     8A    -11.256766     9A    -11.253609
      10A    -11.238058    11A     -8.989748    12A     -6.670614
      13A     -6.670066    14A     -6.669355    15A     -1.377076
      16A     -1.233623    17A     -1.183229    18A     -1.046474
      19A     -1.007766    20A     -0.957163    21A     -0.923289
      22A     -0.824288    23A     -0.766619    24A     -0.749417
      25A     -0.708516    26A     -0.646773    27A     -0.629854
      28A     -0.620292    29A     -0.593290    30A     -0.590549
      31A     -0.567558    32A     -0.549659    33A     -0.545430
      34A     -0.534306    35A     -0.524683    36A     -0.501160
      37A     -0.477742    38A     -0.432913    39A     -0.399769
      40A     -0.347872    41A     -0.327533

  @DF-RHF Final Energy:  -797.31642904475518

   => Energetics <=

    Nuclear Repulsion Energy =            588.4667416930700483
    One-Electron Energy =               -2261.4104639234469687
    Two-Electron Energy =                 875.6272931856216246
    Total Energy =                       -797.3164290447551821
  Basis Set: (AUG-CC-PVTZ AUX)
    Blend: AUG-CC-PVTZ-RI
    Molecular point group: c1

    Geometry (in Angstrom), charge = 0, multiplicity = 1:

       Center              X                  Y                   Z               Mass
    ------------   -----------------  -----------------  -----------------  -----------------
         S           -0.809385702074     1.534212681997    -0.148165913243    31.972071174400
         O            2.142417297926     1.192299681997     0.377553086757    15.994914619570
         N            2.203578897926    -1.013102518003    -0.077393213243    14.003074004430
         C           -2.145452702074    -0.676294318003     0.015666086757    12.000000000000
         C            0.074203297926     0.066799681997     0.026743086757    12.000000000000
         C           -0.773515702074    -1.024070318003     0.113031086757    12.000000000000
         C           -2.300994702074     0.688824681997    -0.134763913243    12.000000000000
         C            1.550340297926     0.141356681997     0.106731086757    12.000000000000
         C           -3.277647702074    -1.660884318003     0.083346086757    12.000000000000
         C            3.653499297926    -1.062488318003    -0.164733913243    12.000000000000
         H           -0.422898702074    -2.039593318003     0.281716086757     1.007825032230
         H           -3.232485702074     1.234118681997    -0.236631913243     1.007825032230
         H           -3.274740702074    -2.200123318003     1.035831086757     1.007825032230
         H           -4.240847702074    -1.153046318003    -0.012768913243     1.007825032230
         H           -3.206170702074    -2.402581318003    -0.718407913243     1.007825032230
         H            1.697001297926    -1.760070318003    -0.622188913243     1.007825032230
         H            4.045458297926    -0.620278318003    -1.087214913243     1.007825032230
         H            3.993520297926    -2.096156318003    -0.083288913243     1.007825032230
         H            4.033808297926    -0.487151318003     0.678684086757     1.007825032230

  Basis Set: AUG-CC-PVTZ
    Blend: AUG-CC-PVTZ
  Basis Set: (AUG-CC-PVTZ AUX)
    Blend: AUG-CC-PVTZ-JKFIT
	 Reference Energy          =    -797.3164290447551821 [Eh]
	 Singles Energy            =      -0.0000000000000000 [Eh]
	 Same-Spin Energy          =      -0.4871994155621275 [Eh]
	 Opposite-Spin Energy      =      -1.5040764768657480 [Eh]
	 Correlation Energy        =      -1.9912758924278755 [Eh]
	 Total Energy              =    -799.3077049371830753 [Eh]

	 ================> DF-SCS-MP2 Energies <==================
	-----------------------------------------------------------
	 SCS Same-Spin Scale       =       0.3333333333333333 [-]
	 SCS Opposite-Spin Scale   =       1.2000000000000000 [-]
	 SCS Same-Spin Energy      =      -0.1623998051873758 [Eh]
	 SCS Opposite-Spin Energy  =      -1.8048917722388975 [Eh]
	 SCS Correlation Energy    =      -1.9672915774262734 [Eh]
	 SCS Total Energy          =    -799.2837206221814768 [Eh]
	-----------------------------------------------------------

  Dipole Moment: [D]
     X:    -1.4279      Y:    -3.8535      Z:    -1.2157     Total:     4.2856

*** Psi4 exiting successfully. Buy a developer a beer!
