                               Psi4 1.4a3.dev225

  ==> Input File <==

--------------------------------------------------------------------------
#psi4
#
memory 32 gb

molecule  {
0 1
  S       -0.7794649     1.6212500    -0.1407455
  O        2.1464270     1.2641370     0.3857660
  N        2.2049820    -0.9697390    -0.1110850
  C       -2.1414430    -0.6044570     0.0238790
  C        0.0782130     0.1386370     0.0349560
  C       -0.7695060    -0.9522330     0.1212440
  C       -2.2969850     0.7606620    -0.1265510
  C        1.5543500     0.2131940     0.1149440
  C       -3.2736380    -1.5890470     0.0915590
  C        3.6575090    -0.9906510    -0.1565210
  H       -0.4188890    -1.9677560     0.2899290
  H       -3.2284760     1.3059560    -0.2284190
  H       -3.2707310    -2.1282860     1.0440440
  H       -4.2368380    -1.0812090    -0.0045560
  H       -3.2021610    -2.3307440    -0.7101950
  H        1.7010110    -1.6882330    -0.6139760
  H        4.0494680    -0.5484410    -1.0790020
  H        3.9975300    -2.0243190    -0.0750760
  H        4.0378180    -0.4153140     0.6868970
units angstrom
no_reorient  #important for SAPT in psi4, default
symmetry c1  #important for SAPT in psi4, default
}

set PROPERTIES_ORIGIN ["COM"]
properties('MP2/aug-cc-pvtz', properties = ['dipole'])
--------------------------------------------------------------------------

    Molecular point group: c1
  Charge       = 0
  Multiplicity = 1
  Basis Set: AUG-CC-PVTZ
    Blend: AUG-CC-PVTZ
  Basis Set: (AUG-CC-PVTZ AUX)
    Blend: AUG-CC-PVTZ-JKFIT

    Orbital Energies [Eh]
    ---------------------

    Doubly Occupied:

       1A    -91.990935     2A    -20.522235     3A    -15.589413
       4A    -11.360712     5A    -11.275753     6A    -11.271081
       7A    -11.260667     8A    -11.257641     9A    -11.255090
      10A    -11.238949    11A     -8.990052    12A     -6.670896
      13A     -6.670303    14A     -6.669632    15A     -1.376706
      16A     -1.231820    17A     -1.180205    18A     -1.047416
      19A     -1.003097    20A     -0.953969    21A     -0.923755
      22A     -0.828994    23A     -0.768796    24A     -0.748606
      25A     -0.708669    26A     -0.644053    27A     -0.629043
      28A     -0.619558    29A     -0.594374    30A     -0.591043
      31A     -0.566952    32A     -0.551655    33A     -0.549212
      34A     -0.534795    35A     -0.521355    36A     -0.498766
      37A     -0.478724    38A     -0.434840    39A     -0.398992
      40A     -0.347678    41A     -0.328235

  @DF-RHF Final Energy:  -797.31854091203843

   => Energetics <=

    Nuclear Repulsion Energy =            587.2935997285777603
    One-Electron Energy =               -2259.0549473339042379
    Two-Electron Energy =                 874.4428066932881620
    Total Energy =                       -797.3185409120384293
  Basis Set: (AUG-CC-PVTZ AUX)
    Blend: AUG-CC-PVTZ-RI
    Molecular point group: c1

    Geometry (in Angstrom), charge = 0, multiplicity = 1:

       Center              X                  Y                   Z               Mass
    ------------   -----------------  -----------------  -----------------  -----------------
         S           -0.788582500958     1.548849895102    -0.145010202676    31.972071174400
         O            2.137309399042     1.191736895102     0.381501297324    15.994914619570
         N            2.195864399042    -1.042139104898    -0.115349702676    14.003074004430
         C           -2.150560600958    -0.676857104898     0.019614297324    12.000000000000
         C            0.069095399042     0.066236895102     0.030691297324    12.000000000000
         C           -0.778623600958    -1.024633104898     0.116979297324    12.000000000000
         C           -2.306102600958     0.688261895102    -0.130815702676    12.000000000000
         C            1.545232399042     0.140793895102     0.110679297324    12.000000000000
         C           -3.282755600958    -1.661447104898     0.087294297324    12.000000000000
         C            3.648391399042    -1.063051104898    -0.160785702676    12.000000000000
         H           -0.428006600958    -2.040156104898     0.285664297324     1.007825032230
         H           -3.237593600958     1.233555895102    -0.232683702676     1.007825032230
         H           -3.279848600958    -2.200686104898     1.039779297324     1.007825032230
         H           -4.245955600958    -1.153609104898    -0.008820702676     1.007825032230
         H           -3.211278600958    -2.403144104898    -0.714459702676     1.007825032230
         H            1.691893399042    -1.760633104898    -0.618240702676     1.007825032230
         H            4.040350399042    -0.620841104898    -1.083266702676     1.007825032230
         H            3.988412399042    -2.096719104898    -0.079340702676     1.007825032230
         H            4.028700399042    -0.487714104898     0.682632297324     1.007825032230

  Basis Set: AUG-CC-PVTZ
    Blend: AUG-CC-PVTZ
  Basis Set: (AUG-CC-PVTZ AUX)
    Blend: AUG-CC-PVTZ-JKFIT
	 Reference Energy          =    -797.3185409120384293 [Eh]
	 Singles Energy            =      -0.0000000000000000 [Eh]
	 Same-Spin Energy          =      -0.4868185035050080 [Eh]
	 Opposite-Spin Energy      =      -1.5041816923095492 [Eh]
	 Correlation Energy        =      -1.9910001958145573 [Eh]
	 Total Energy              =    -799.3095411078529651 [Eh]

	 ================> DF-SCS-MP2 Energies <==================
	-----------------------------------------------------------
	 SCS Same-Spin Scale       =       0.3333333333333333 [-]
	 SCS Opposite-Spin Scale   =       1.2000000000000000 [-]
	 SCS Same-Spin Energy      =      -0.1622728345016693 [Eh]
	 SCS Opposite-Spin Energy  =      -1.8050180307714589 [Eh]
	 SCS Correlation Energy    =      -1.9672908652731282 [Eh]
	 SCS Total Energy          =    -799.2858317773116141 [Eh]
	-----------------------------------------------------------

  Dipole Moment: [D]
     X:    -1.4782      Y:    -3.7679      Z:    -1.1409     Total:     4.2052

*** Psi4 exiting successfully. Buy a developer a beer!
