                               Psi4 1.4a3.dev225

  ==> Input File <==

--------------------------------------------------------------------------
#psi4
#
memory 32 gb

molecule  {
0 1
  S       -0.8053760     1.6060500    -0.1399530
  O        2.1464270     1.2641370     0.3857660
  N        2.2049820    -0.9697390    -0.1110850
  C       -2.1414430    -0.6044570     0.0238790
  C        0.0782130     0.1386370     0.0349560
  C       -0.7695060    -0.9522330     0.1212440
  C       -2.2969850     0.7606620    -0.1265510
  C        1.7538035     0.2232680     0.1257519
  C       -3.2736380    -1.5890470     0.0915590
  C        3.6575090    -0.9906510    -0.1565210
  H       -0.4188890    -1.9677560     0.2899290
  H       -3.2284760     1.3059560    -0.2284190
  H       -3.2707310    -2.1282860     1.0440440
  H       -4.2368380    -1.0812090    -0.0045560
  H       -3.2021610    -2.3307440    -0.7101950
  H        1.7010110    -1.6882330    -0.6139760
  H        4.0494680    -0.5484410    -1.0790020
  H        3.9975300    -2.0243190    -0.0750760
  H        4.0378180    -0.4153140     0.6868970
units angstrom
no_reorient  #important for SAPT in psi4, default
symmetry c1  #important for SAPT in psi4, default
}

set PROPERTIES_ORIGIN ["COM"]
properties('MP2/aug-cc-pvtz', properties = ['dipole'])
--------------------------------------------------------------------------

    Molecular point group: c1
  Charge       = 0
  Multiplicity = 1
  Basis Set: AUG-CC-PVTZ
    Blend: AUG-CC-PVTZ
  Basis Set: (AUG-CC-PVTZ AUX)
    Blend: AUG-CC-PVTZ-JKFIT

    Orbital Energies [Eh]
    ---------------------

    Doubly Occupied:

       1A    -91.974993     2A    -20.542849     3A    -15.603508
       4A    -11.368020     5A    -11.271322     6A    -11.262111
       7A    -11.250691     8A    -11.241171     9A    -11.234875
      10A    -11.228769    11A     -8.975004    12A     -6.655954
      13A     -6.655407    14A     -6.654725    15A     -1.449903
      16A     -1.280277    17A     -1.165520    18A     -1.027290
      19A     -0.989922    20A     -0.957379    21A     -0.907035
      22A     -0.830773    23A     -0.772714    24A     -0.733111
      25A     -0.700298    26A     -0.673976    27A     -0.658804
      28A     -0.626324    29A     -0.588555    30A     -0.581383
      31A     -0.570716    32A     -0.569885    33A     -0.563425
      34A     -0.525128    35A     -0.512335    36A     -0.499305
      37A     -0.464398    38A     -0.428313    39A     -0.411462
      40A     -0.334904    41A     -0.311801

  @DF-RHF Final Energy:  -797.28488642548007

   => Energetics <=

    Nuclear Repulsion Energy =            587.4403032790939960
    One-Electron Energy =               -2259.3417110509303711
    Two-Electron Energy =                 874.6165213463563077
    Total Energy =                       -797.2848864254800674
  Basis Set: (AUG-CC-PVTZ AUX)
    Blend: AUG-CC-PVTZ-RI
    Molecular point group: c1

    Geometry (in Angstrom), charge = 0, multiplicity = 1:

       Center              X                  Y                   Z               Mass
    ------------   -----------------  -----------------  -----------------  -----------------
         S           -0.824587806131     1.536004683154    -0.145217652246    31.972071174400
         O            2.127215193869     1.194091683154     0.380501347754    15.994914619570
         N            2.185770193869    -1.039784316846    -0.116349652246    14.003074004430
         C           -2.160654806131    -0.674502316846     0.018614347754    12.000000000000
         C            0.059001193869     0.068591683154     0.029691347754    12.000000000000
         C           -0.788717806131    -1.022278316846     0.115979347754    12.000000000000
         C           -2.316196806131     0.690616683154    -0.131815652246    12.000000000000
         C            1.734591693869     0.153222683154     0.120487247754    12.000000000000
         C           -3.292849806131    -1.659092316846     0.086294347754    12.000000000000
         C            3.638297193869    -1.060696316846    -0.161785652246    12.000000000000
         H           -0.438100806131    -2.037801316846     0.284664347754     1.007825032230
         H           -3.247687806131     1.235910683154    -0.233683652246     1.007825032230
         H           -3.289942806131    -2.198331316846     1.038779347754     1.007825032230
         H           -4.256049806131    -1.151254316846    -0.009820652246     1.007825032230
         H           -3.221372806131    -2.400789316846    -0.715459652246     1.007825032230
         H            1.681799193869    -1.758278316846    -0.619240652246     1.007825032230
         H            4.030256193869    -0.618486316846    -1.084266652246     1.007825032230
         H            3.978318193869    -2.094364316846    -0.080340652246     1.007825032230
         H            4.018606193869    -0.485359316846     0.681632347754     1.007825032230

  Basis Set: AUG-CC-PVTZ
    Blend: AUG-CC-PVTZ
  Basis Set: (AUG-CC-PVTZ AUX)
    Blend: AUG-CC-PVTZ-JKFIT
	 Reference Energy          =    -797.2848864254800674 [Eh]
	 Singles Energy            =      -0.0000000000000000 [Eh]
	 Same-Spin Energy          =      -0.4853110478436567 [Eh]
	 Opposite-Spin Energy      =      -1.5003005215075444 [Eh]
	 Correlation Energy        =      -1.9856115693512011 [Eh]
	 Total Energy              =    -799.2704979948313166 [Eh]

	 ================> DF-SCS-MP2 Energies <==================
	-----------------------------------------------------------
	 SCS Same-Spin Scale       =       0.3333333333333333 [-]
	 SCS Opposite-Spin Scale   =       1.2000000000000000 [-]
	 SCS Same-Spin Energy      =      -0.1617703492812189 [Eh]
	 SCS Opposite-Spin Energy  =      -1.8003606258090532 [Eh]
	 SCS Correlation Energy    =      -1.9621309750902720 [Eh]
	 SCS Total Energy          =    -799.2470174005703711 [Eh]
	-----------------------------------------------------------

  Dipole Moment: [D]
     X:     0.3470      Y:    -3.7675      Z:    -1.0829     Total:     3.9354

*** Psi4 exiting successfully. Buy a developer a beer!
