                               Psi4 1.4a3.dev225

  ==> Input File <==

--------------------------------------------------------------------------
#psi4
#
memory 32 gb

molecule  {
0 1
  S       -0.8053760     1.6060500    -0.1399530
  O        2.1464270     1.2641370     0.3857660
  N        2.2096438    -0.9027203    -0.2475766
  C       -2.1414430    -0.6044570     0.0238790
  C        0.0782130     0.1386370     0.0349560
  C       -0.7695060    -0.9522330     0.1212440
  C       -2.2969850     0.7606620    -0.1265510
  C        1.5543500     0.2131940     0.1149440
  C       -3.2736380    -1.5890470     0.0915590
  C        3.6575090    -0.9906510    -0.1565210
  H       -0.4188890    -1.9677560     0.2899290
  H       -3.2284760     1.3059560    -0.2284190
  H       -3.2707310    -2.1282860     1.0440440
  H       -4.2368380    -1.0812090    -0.0045560
  H       -3.2021610    -2.3307440    -0.7101950
  H        1.7010110    -1.6882330    -0.6139760
  H        4.0494680    -0.5484410    -1.0790020
  H        3.9975300    -2.0243190    -0.0750760
  H        4.0378180    -0.4153140     0.6868970
units angstrom
no_reorient  #important for SAPT in psi4, default
symmetry c1  #important for SAPT in psi4, default
}

set PROPERTIES_ORIGIN ["COM"]
properties('MP2/aug-cc-pvtz', properties = ['dipole'])
--------------------------------------------------------------------------

    Molecular point group: c1
  Charge       = 0
  Multiplicity = 1
  Basis Set: AUG-CC-PVTZ
    Blend: AUG-CC-PVTZ
  Basis Set: (AUG-CC-PVTZ AUX)
    Blend: AUG-CC-PVTZ-JKFIT

    Orbital Energies [Eh]
    ---------------------

    Doubly Occupied:

       1A    -91.989721     2A    -20.514712     3A    -15.589988
       4A    -11.356928     5A    -11.274544     6A    -11.268008
       7A    -11.262755     8A    -11.256507     9A    -11.253419
      10A    -11.237962    11A     -8.989439    12A     -6.670303
      13A     -6.669753    14A     -6.669039    15A     -1.375172
      16A     -1.235734    17A     -1.182947    18A     -1.046189
      19A     -1.007364    20A     -0.957276    21A     -0.923160
      22A     -0.829126    23A     -0.776532    24A     -0.749562
      25A     -0.708324    26A     -0.644141    27A     -0.629941
      28A     -0.622495    29A     -0.592875    30A     -0.590663
      31A     -0.569352    32A     -0.554804    33A     -0.548684
      34A     -0.533870    35A     -0.522166    36A     -0.500183
      37A     -0.477308    38A     -0.430940    39A     -0.394282
      40A     -0.347840    41A     -0.327140

  @DF-RHF Final Energy:  -797.31788889103336

   => Energetics <=

    Nuclear Repulsion Energy =            588.5562694729034092
    One-Electron Energy =               -2261.5860217675581225
    Two-Electron Energy =                 875.7118634036214644
    Total Energy =                       -797.3178888910333626
  Basis Set: (AUG-CC-PVTZ AUX)
    Blend: AUG-CC-PVTZ-RI
    Molecular point group: c1

    Geometry (in Angstrom), charge = 0, multiplicity = 1:

       Center              X                  Y                   Z               Mass
    ------------   -----------------  -----------------  -----------------  -----------------
         S           -0.809571325317     1.530731352028    -0.132053369545    31.972071174400
         O            2.142231674683     1.188818352028     0.393665630455    15.994914619570
         N            2.205448474683    -0.978038947972    -0.239676969545    14.003074004430
         C           -2.145638325317    -0.679775647972     0.031778630455    12.000000000000
         C            0.074017674683     0.063318352028     0.042855630455    12.000000000000
         C           -0.773701325317    -1.027551647972     0.129143630455    12.000000000000
         C           -2.301180325317     0.685343352028    -0.118651369545    12.000000000000
         C            1.550154674683     0.137875352028     0.122843630455    12.000000000000
         C           -3.277833325317    -1.664365647972     0.099458630455    12.000000000000
         C            3.653313674683    -1.065969647972    -0.148621369545    12.000000000000
         H           -0.423084325317    -2.043074647972     0.297828630455     1.007825032230
         H           -3.232671325317     1.230637352028    -0.220519369545     1.007825032230
         H           -3.274926325317    -2.203604647972     1.051943630455     1.007825032230
         H           -4.241033325317    -1.156527647972     0.003343630455     1.007825032230
         H           -3.206356325317    -2.406062647972    -0.702295369545     1.007825032230
         H            1.696815674683    -1.763551647972    -0.606076369545     1.007825032230
         H            4.045272674683    -0.623759647972    -1.071102369545     1.007825032230
         H            3.993334674683    -2.099637647972    -0.067176369545     1.007825032230
         H            4.033622674683    -0.490632647972     0.694796630455     1.007825032230

  Basis Set: AUG-CC-PVTZ
    Blend: AUG-CC-PVTZ
  Basis Set: (AUG-CC-PVTZ AUX)
    Blend: AUG-CC-PVTZ-JKFIT
	 Reference Energy          =    -797.3178888910333626 [Eh]
	 Singles Energy            =      -0.0000000000000000 [Eh]
	 Same-Spin Energy          =      -0.4870145866124147 [Eh]
	 Opposite-Spin Energy      =      -1.5033298499476149 [Eh]
	 Correlation Energy        =      -1.9903444365600296 [Eh]
	 Total Energy              =    -799.3082333275933706 [Eh]

	 ================> DF-SCS-MP2 Energies <==================
	-----------------------------------------------------------
	 SCS Same-Spin Scale       =       0.3333333333333333 [-]
	 SCS Opposite-Spin Scale   =       1.2000000000000000 [-]
	 SCS Same-Spin Energy      =      -0.1623381955374716 [Eh]
	 SCS Opposite-Spin Energy  =      -1.8039958199371378 [Eh]
	 SCS Correlation Energy    =      -1.9663340154746094 [Eh]
	 SCS Total Energy          =    -799.2842229065079209 [Eh]
	-----------------------------------------------------------

  Dipole Moment: [D]
     X:    -1.3901      Y:    -4.0307      Z:    -0.9523     Total:     4.3687

*** Psi4 exiting successfully. Buy a developer a beer!
