                               Psi4 1.4a3.dev225

  ==> Input File <==

--------------------------------------------------------------------------
#psi4
#
memory 32 gb

molecule  {
0 1
  S       -0.8053760     1.6060500    -0.1399530
  O        2.1464270     1.2641370     0.3857660
  N        2.2049820    -0.9697390    -0.1110850
  C       -2.1414430    -0.6044570     0.0238790
  C        0.0001738     0.1939151     0.0212038
  C       -0.7695060    -0.9522330     0.1212440
  C       -2.2969850     0.7606620    -0.1265510
  C        1.5543500     0.2131940     0.1149440
  C       -3.2736380    -1.5890470     0.0915590
  C        3.6575090    -0.9906510    -0.1565210
  H       -0.4188890    -1.9677560     0.2899290
  H       -3.2284760     1.3059560    -0.2284190
  H       -3.2707310    -2.1282860     1.0440440
  H       -4.2368380    -1.0812090    -0.0045560
  H       -3.2021610    -2.3307440    -0.7101950
  H        1.7010110    -1.6882330    -0.6139760
  H        4.0494680    -0.5484410    -1.0790020
  H        3.9975300    -2.0243190    -0.0750760
  H        4.0378180    -0.4153140     0.6868970
units angstrom
no_reorient  #important for SAPT in psi4, default
symmetry c1  #important for SAPT in psi4, default
}

set PROPERTIES_ORIGIN ["COM"]
properties('MP2/aug-cc-pvtz', properties = ['dipole'])
--------------------------------------------------------------------------

    Molecular point group: c1
  Charge       = 0
  Multiplicity = 1
  Basis Set: AUG-CC-PVTZ
    Blend: AUG-CC-PVTZ
  Basis Set: (AUG-CC-PVTZ AUX)
    Blend: AUG-CC-PVTZ-JKFIT

    Orbital Energies [Eh]
    ---------------------

    Doubly Occupied:

       1A    -91.991169     2A    -20.522809     3A    -15.591691
       4A    -11.365102     5A    -11.273898     6A    -11.262127
       7A    -11.261805     8A    -11.252238     9A    -11.249309
      10A    -11.236127    11A     -8.992934    12A     -6.673993
      13A     -6.673216    14A     -6.672443    15A     -1.375593
      16A     -1.231557    17A     -1.193191    18A     -1.048991
      19A     -1.000942    20A     -0.952260    21A     -0.925766
      22A     -0.817529    23A     -0.766456    24A     -0.747746
      25A     -0.706551    26A     -0.643801    27A     -0.629825
      28A     -0.621334    29A     -0.590933    30A     -0.589409
      31A     -0.560887    32A     -0.553167    33A     -0.549029
      34A     -0.536219    35A     -0.529398    36A     -0.506529
      37A     -0.484518    38A     -0.429574    39A     -0.399254
      40A     -0.346470    41A     -0.327504

  @DF-RHF Final Energy:  -797.31060016428364

   => Energetics <=

    Nuclear Repulsion Energy =            588.7011120689792278
    One-Electron Energy =               -2261.8568305503790725
    Two-Electron Energy =                 875.8451183171162029
    Total Energy =                       -797.3106001642836418
  Basis Set: (AUG-CC-PVTZ AUX)
    Blend: AUG-CC-PVTZ-RI
    Molecular point group: c1

    Geometry (in Angstrom), charge = 0, multiplicity = 1:

       Center              X                  Y                   Z               Mass
    ------------   -----------------  -----------------  -----------------  -----------------
         S           -0.803110110172     1.532505924751    -0.143316721661    31.972071174400
         O            2.148692889828     1.190592924751     0.382402278339    15.994914619570
         N            2.207247889828    -1.043283075249    -0.114448721661    14.003074004430
         C           -2.139177110172    -0.678001075249     0.020515278339    12.000000000000
         C            0.002439689828     0.120371024751     0.017840078339    12.000000000000
         C           -0.767240110172    -1.025777075249     0.117880278339    12.000000000000
         C           -2.294719110172     0.687117924751    -0.129914721661    12.000000000000
         C            1.556615889828     0.139649924751     0.111580278339    12.000000000000
         C           -3.271372110172    -1.662591075249     0.088195278339    12.000000000000
         C            3.659774889828    -1.064195075249    -0.159884721661    12.000000000000
         H           -0.416623110172    -2.041300075249     0.286565278339     1.007825032230
         H           -3.226210110172     1.232411924751    -0.231782721661     1.007825032230
         H           -3.268465110172    -2.201830075249     1.040680278339     1.007825032230
         H           -4.234572110172    -1.154753075249    -0.007919721661     1.007825032230
         H           -3.199895110172    -2.404288075249    -0.713558721661     1.007825032230
         H            1.703276889828    -1.761777075249    -0.617339721661     1.007825032230
         H            4.051733889828    -0.621985075249    -1.082365721661     1.007825032230
         H            3.999795889828    -2.097863075249    -0.078439721661     1.007825032230
         H            4.040083889828    -0.488858075249     0.683533278339     1.007825032230

  Basis Set: AUG-CC-PVTZ
    Blend: AUG-CC-PVTZ
  Basis Set: (AUG-CC-PVTZ AUX)
    Blend: AUG-CC-PVTZ-JKFIT
	 Reference Energy          =    -797.3106001642836418 [Eh]
	 Singles Energy            =      -0.0000000000000000 [Eh]
	 Same-Spin Energy          =      -0.4872408178442570 [Eh]
	 Opposite-Spin Energy      =      -1.5034128159947586 [Eh]
	 Correlation Energy        =      -1.9906536338390155 [Eh]
	 Total Energy              =    -799.3012537981226160 [Eh]

	 ================> DF-SCS-MP2 Energies <==================
	-----------------------------------------------------------
	 SCS Same-Spin Scale       =       0.3333333333333333 [-]
	 SCS Opposite-Spin Scale   =       1.2000000000000000 [-]
	 SCS Same-Spin Energy      =      -0.1624136059480857 [Eh]
	 SCS Opposite-Spin Energy  =      -1.8040953791937102 [Eh]
	 SCS Correlation Energy    =      -1.9665089851417958 [Eh]
	 SCS Total Energy          =    -799.2771091494254279 [Eh]
	-----------------------------------------------------------

  Dipole Moment: [D]
     X:    -1.2947      Y:    -3.6279      Z:    -1.1548     Total:     4.0213

*** Psi4 exiting successfully. Buy a developer a beer!
