                               Psi4 1.4a3.dev225

  ==> Input File <==

--------------------------------------------------------------------------
#psi4
#
memory 32 gb

molecule  {
0 1
  S       -0.8356406     1.6572218    -0.1468191
  O        2.1464270     1.2641370     0.3857660
  N        2.2049820    -0.9697390    -0.1110850
  C       -2.1414430    -0.6044570     0.0238790
  C        0.0782130     0.1386370     0.0349560
  C       -0.7695060    -0.9522330     0.1212440
  C       -2.2969850     0.7606620    -0.1265510
  C        1.5543500     0.2131940     0.1149440
  C       -3.2736380    -1.5890470     0.0915590
  C        3.6575090    -0.9906510    -0.1565210
  H       -0.4188890    -1.9677560     0.2899290
  H       -3.2284760     1.3059560    -0.2284190
  H       -3.2707310    -2.1282860     1.0440440
  H       -4.2368380    -1.0812090    -0.0045560
  H       -3.2021610    -2.3307440    -0.7101950
  H        1.7010110    -1.6882330    -0.6139760
  H        4.0494680    -0.5484410    -1.0790020
  H        3.9975300    -2.0243190    -0.0750760
  H        4.0378180    -0.4153140     0.6868970
units angstrom
no_reorient  #important for SAPT in psi4, default
symmetry c1  #important for SAPT in psi4, default
}

set PROPERTIES_ORIGIN ["COM"]
properties('MP2/aug-cc-pvtz', properties = ['dipole'])
--------------------------------------------------------------------------

    Molecular point group: c1
  Charge       = 0
  Multiplicity = 1
  Basis Set: AUG-CC-PVTZ
    Blend: AUG-CC-PVTZ
  Basis Set: (AUG-CC-PVTZ AUX)
    Blend: AUG-CC-PVTZ-JKFIT

    Orbital Energies [Eh]
    ---------------------

    Doubly Occupied:

       1A    -91.992178     2A    -20.520976     3A    -15.588989
       4A    -11.360116     5A    -11.279411     6A    -11.270743
       7A    -11.260694     8A    -11.260406     9A    -11.254272
      10A    -11.238829    11A     -8.990765    12A     -6.671622
      13A     -6.670937    14A     -6.670332    15A     -1.375247
      16A     -1.231258    17A     -1.177412    18A     -1.042227
      19A     -1.009451    20A     -0.954557    21A     -0.918757
      22A     -0.829168    23A     -0.768998    24A     -0.749097
      25A     -0.708820    26A     -0.643161    27A     -0.628355
      28A     -0.618192    29A     -0.594912    30A     -0.590922
      31A     -0.567050    32A     -0.550884    33A     -0.547182
      34A     -0.535099    35A     -0.516864    36A     -0.498076
      37A     -0.480478    38A     -0.433843    39A     -0.398421
      40A     -0.352696    41A     -0.324257

  @DF-RHF Final Energy:  -797.31687196517134

   => Energetics <=

    Nuclear Repulsion Energy =            585.2388213905444445
    One-Electron Energy =               -2254.9600784864137495
    Two-Electron Energy =                 872.4043851306979604
    Total Energy =                       -797.3168719651713445
  Basis Set: (AUG-CC-PVTZ AUX)
    Blend: AUG-CC-PVTZ-RI
    Molecular point group: c1

    Geometry (in Angstrom), charge = 0, multiplicity = 1:

       Center              X                  Y                   Z               Mass
    ------------   -----------------  -----------------  -----------------  -----------------
         S           -0.833173784941     1.577403678129    -0.149831319678    31.972071174400
         O            2.148893815059     1.184318878129     0.382753780322    15.994914619570
         N            2.207448815059    -1.049557121871    -0.114097219678    14.003074004430
         C           -2.138976184941    -0.684275121871     0.020866780322    12.000000000000
         C            0.080679815059     0.058818878129     0.031943780322    12.000000000000
         C           -0.767039184941    -1.032051121871     0.118231780322    12.000000000000
         C           -2.294518184941     0.680843878129    -0.129563219678    12.000000000000
         C            1.556816815059     0.133375878129     0.111931780322    12.000000000000
         C           -3.271171184941    -1.668865121871     0.088546780322    12.000000000000
         C            3.659975815059    -1.070469121871    -0.159533219678    12.000000000000
         H           -0.416422184941    -2.047574121871     0.286916780322     1.007825032230
         H           -3.226009184941     1.226137878129    -0.231431219678     1.007825032230
         H           -3.268264184941    -2.208104121871     1.041031780322     1.007825032230
         H           -4.234371184941    -1.161027121871    -0.007568219678     1.007825032230
         H           -3.199694184941    -2.410562121871    -0.713207219678     1.007825032230
         H            1.703477815059    -1.768051121871    -0.616988219678     1.007825032230
         H            4.051934815059    -0.628259121871    -1.082014219678     1.007825032230
         H            3.999996815059    -2.104137121871    -0.078088219678     1.007825032230
         H            4.040284815059    -0.495132121871     0.683884780322     1.007825032230

  Basis Set: AUG-CC-PVTZ
    Blend: AUG-CC-PVTZ
  Basis Set: (AUG-CC-PVTZ AUX)
    Blend: AUG-CC-PVTZ-JKFIT
	 Reference Energy          =    -797.3168719651713445 [Eh]
	 Singles Energy            =      -0.0000000000000000 [Eh]
	 Same-Spin Energy          =      -0.4864708230798871 [Eh]
	 Opposite-Spin Energy      =      -1.5042757869148389 [Eh]
	 Correlation Energy        =      -1.9907466099947260 [Eh]
	 Total Energy              =    -799.3076185751660887 [Eh]

	 ================> DF-SCS-MP2 Energies <==================
	-----------------------------------------------------------
	 SCS Same-Spin Scale       =       0.3333333333333333 [-]
	 SCS Opposite-Spin Scale   =       1.2000000000000000 [-]
	 SCS Same-Spin Energy      =      -0.1621569410266290 [Eh]
	 SCS Opposite-Spin Energy  =      -1.8051309442978065 [Eh]
	 SCS Correlation Energy    =      -1.9672878853244355 [Eh]
	 SCS Total Energy          =    -799.2841598504958256 [Eh]
	-----------------------------------------------------------

  Dipole Moment: [D]
     X:    -1.5104      Y:    -3.7762      Z:    -1.1422     Total:     4.2244

*** Psi4 exiting successfully. Buy a developer a beer!
