                               Psi4 1.4a3.dev225

  ==> Input File <==

--------------------------------------------------------------------------
#psi4
#
memory 32 gb

molecule  {
0 1
  S       -0.8053760     1.6060500    -0.1399530
  O        2.1464270     1.2641370     0.3857660
  N        2.2049820    -0.9697390    -0.1110850
  C       -2.1414430    -0.6044570     0.0238790
  C        0.0590759     0.1529657     0.0314759
  C       -0.7695060    -0.9522330     0.1212440
  C       -2.2969850     0.7606620    -0.1265510
  C        1.5543500     0.2131940     0.1149440
  C       -3.2736380    -1.5890470     0.0915590
  C        3.6575090    -0.9906510    -0.1565210
  H       -0.4188890    -1.9677560     0.2899290
  H       -3.2284760     1.3059560    -0.2284190
  H       -3.2707310    -2.1282860     1.0440440
  H       -4.2368380    -1.0812090    -0.0045560
  H       -3.2021610    -2.3307440    -0.7101950
  H        1.7010110    -1.6882330    -0.6139760
  H        4.0494680    -0.5484410    -1.0790020
  H        3.9975300    -2.0243190    -0.0750760
  H        4.0378180    -0.4153140     0.6868970
units angstrom
no_reorient  #important for SAPT in psi4, default
symmetry c1  #important for SAPT in psi4, default
}

set PROPERTIES_ORIGIN ["COM"]
properties('MP2/aug-cc-pvtz', properties = ['dipole'])
--------------------------------------------------------------------------

    Molecular point group: c1
  Charge       = 0
  Multiplicity = 1
  Basis Set: AUG-CC-PVTZ
    Blend: AUG-CC-PVTZ
  Basis Set: (AUG-CC-PVTZ AUX)
    Blend: AUG-CC-PVTZ-JKFIT

    Orbital Energies [Eh]
    ---------------------

    Doubly Occupied:

       1A    -91.990706     2A    -20.522154     3A    -15.590004
       4A    -11.362049     5A    -11.274661     6A    -11.267287
       7A    -11.261054     8A    -11.255282     9A    -11.253404
      10A    -11.237754    11A     -8.990883    12A     -6.671779
      13A     -6.671217    14A     -6.670477    15A     -1.376196
      16A     -1.231689    17A     -1.185627    18A     -1.046827
      19A     -1.005842    20A     -0.953492    21A     -0.923563
      22A     -0.825941    23A     -0.768338    24A     -0.749311
      25A     -0.708179    26A     -0.644005    27A     -0.629094
      28A     -0.620774    29A     -0.593152    30A     -0.590556
      31A     -0.566158    32A     -0.552015    33A     -0.549118
      34A     -0.533392    35A     -0.526676    36A     -0.502153
      37A     -0.480293    38A     -0.433773    39A     -0.398976
      40A     -0.347506    41A     -0.328074

  @DF-RHF Final Energy:  -797.31920313005105

   => Energetics <=

    Nuclear Repulsion Energy =            588.1079423998719449
    One-Electron Energy =               -2260.6754335381979217
    Two-Electron Energy =                 875.2482880082749261
    Total Energy =                       -797.3192031300510507
  Basis Set: (AUG-CC-PVTZ AUX)
    Blend: AUG-CC-PVTZ-RI
    Molecular point group: c1

    Geometry (in Angstrom), charge = 0, multiplicity = 1:

       Center              X                  Y                   Z               Mass
    ------------   -----------------  -----------------  -----------------  -----------------
         S           -0.807669081976     1.535675373038    -0.144111773353    31.972071174400
         O            2.144133918024     1.193762373038     0.381607226647    15.994914619570
         N            2.202688918024    -1.040113626962    -0.115243773353    14.003074004430
         C           -2.143736081976    -0.674831626962     0.019720226647    12.000000000000
         C            0.056782818024     0.082591073038     0.027317126647    12.000000000000
         C           -0.771799081976    -1.022607626962     0.117085226647    12.000000000000
         C           -2.299278081976     0.690287373038    -0.130709773353    12.000000000000
         C            1.552056918024     0.142819373038     0.110785226647    12.000000000000
         C           -3.275931081976    -1.659421626962     0.087400226647    12.000000000000
         C            3.655215918024    -1.061025626962    -0.160679773353    12.000000000000
         H           -0.421182081976    -2.038130626962     0.285770226647     1.007825032230
         H           -3.230769081976     1.235581373038    -0.232577773353     1.007825032230
         H           -3.273024081976    -2.198660626962     1.039885226647     1.007825032230
         H           -4.239131081976    -1.151583626962    -0.008714773353     1.007825032230
         H           -3.204454081976    -2.401118626962    -0.714353773353     1.007825032230
         H            1.698717918024    -1.758607626962    -0.618134773353     1.007825032230
         H            4.047174918024    -0.618815626962    -1.083160773353     1.007825032230
         H            3.995236918024    -2.094693626962    -0.079234773353     1.007825032230
         H            4.035524918024    -0.485688626962     0.682738226647     1.007825032230

  Basis Set: AUG-CC-PVTZ
    Blend: AUG-CC-PVTZ
  Basis Set: (AUG-CC-PVTZ AUX)
    Blend: AUG-CC-PVTZ-JKFIT
	 Reference Energy          =    -797.3192031300510507 [Eh]
	 Singles Energy            =      -0.0000000000000000 [Eh]
	 Same-Spin Energy          =      -0.4869878313666303 [Eh]
	 Opposite-Spin Energy      =      -1.5035668297223430 [Eh]
	 Correlation Energy        =      -1.9905546610889733 [Eh]
	 Total Energy              =    -799.3097577911399867 [Eh]

	 ================> DF-SCS-MP2 Energies <==================
	-----------------------------------------------------------
	 SCS Same-Spin Scale       =       0.3333333333333333 [-]
	 SCS Opposite-Spin Scale   =       1.2000000000000000 [-]
	 SCS Same-Spin Energy      =      -0.1623292771222101 [Eh]
	 SCS Opposite-Spin Energy  =      -1.8042801956668115 [Eh]
	 SCS Correlation Energy    =      -1.9666094727890215 [Eh]
	 SCS Total Energy          =    -799.2858126028401102 [Eh]
	-----------------------------------------------------------

  Dipole Moment: [D]
     X:    -1.4444      Y:    -3.7174      Z:    -1.1478     Total:     4.1500

*** Psi4 exiting successfully. Buy a developer a beer!
