                               Psi4 1.4a3.dev225

  ==> Input File <==

--------------------------------------------------------------------------
#psi4
#
memory 32 gb

molecule  {
0 1
  S       -0.8053760     1.6060500    -0.1399530
  O        2.1464270     1.2641370     0.3857660
  N        2.2049820    -0.9697390    -0.1110850
  C       -2.1414430    -0.6044570     0.0238790
  C        0.0782130     0.1386370     0.0349560
  C       -0.7695060    -0.9522330     0.1212440
  C       -2.2969850     0.7606620    -0.1265510
  C        1.5344046     0.2121866     0.1138632
  C       -3.2736380    -1.5890470     0.0915590
  C        3.6575090    -0.9906510    -0.1565210
  H       -0.4188890    -1.9677560     0.2899290
  H       -3.2284760     1.3059560    -0.2284190
  H       -3.2707310    -2.1282860     1.0440440
  H       -4.2368380    -1.0812090    -0.0045560
  H       -3.2021610    -2.3307440    -0.7101950
  H        1.7010110    -1.6882330    -0.6139760
  H        4.0494680    -0.5484410    -1.0790020
  H        3.9975300    -2.0243190    -0.0750760
  H        4.0378180    -0.4153140     0.6868970
units angstrom
no_reorient  #important for SAPT in psi4, default
symmetry c1  #important for SAPT in psi4, default
}

set PROPERTIES_ORIGIN ["COM"]
properties('MP2/aug-cc-pvtz', properties = ['dipole'])
--------------------------------------------------------------------------

    Molecular point group: c1
  Charge       = 0
  Multiplicity = 1
  Basis Set: AUG-CC-PVTZ
    Blend: AUG-CC-PVTZ
  Basis Set: (AUG-CC-PVTZ AUX)
    Blend: AUG-CC-PVTZ-JKFIT

    Orbital Energies [Eh]
    ---------------------

    Doubly Occupied:

       1A    -91.991864     2A    -20.520163     3A    -15.588186
       4A    -11.360746     5A    -11.275023     6A    -11.271120
       7A    -11.259711     8A    -11.259499     9A    -11.255281
      10A    -11.239239    11A     -8.991591    12A     -6.672451
      13A     -6.671896    14A     -6.671184    15A     -1.369150
      16A     -1.227086    17A     -1.185299    18A     -1.049106
      19A     -1.009474    20A     -0.953979    21A     -0.923955
      22A     -0.831949    23A     -0.765456    24A     -0.751708
      25A     -0.709948    26A     -0.642442    27A     -0.626018
      28A     -0.619488    29A     -0.594917    30A     -0.591793
      31A     -0.568616    32A     -0.550182    33A     -0.548578
      34A     -0.535470    35A     -0.524548    36A     -0.499328
      37A     -0.479476    38A     -0.434087    39A     -0.396150
      40A     -0.349483    41A     -0.329297

  @DF-RHF Final Energy:  -797.31761211439175

   => Energetics <=

    Nuclear Repulsion Energy =            587.9999636942934558
    One-Electron Energy =               -2260.4452778357908755
    Two-Electron Energy =                 875.1277020271056699
    Total Energy =                       -797.3176121143917499
  Basis Set: (AUG-CC-PVTZ AUX)
    Blend: AUG-CC-PVTZ-RI
    Molecular point group: c1

    Geometry (in Angstrom), charge = 0, multiplicity = 1:

       Center              X                  Y                   Z               Mass
    ------------   -----------------  -----------------  -----------------  -----------------
         S           -0.807606520252     1.536862373968    -0.144297477106    31.972071174400
         O            2.144196479748     1.194949373968     0.381421522894    15.994914619570
         N            2.202751479748    -1.038926626032    -0.115429477106    14.003074004430
         C           -2.143673520252    -0.673644626032     0.019534522894    12.000000000000
         C            0.075982479748     0.069449373968     0.030611522894    12.000000000000
         C           -0.771736520252    -1.021420626032     0.116899522894    12.000000000000
         C           -2.299215520252     0.691474373968    -0.130895477106    12.000000000000
         C            1.532174079748     0.142998973968     0.109518722894    12.000000000000
         C           -3.275868520252    -1.658234626032     0.087214522894    12.000000000000
         C            3.655278479748    -1.059838626032    -0.160865477106    12.000000000000
         H           -0.421119520252    -2.036943626032     0.285584522894     1.007825032230
         H           -3.230706520252     1.236768373968    -0.232763477106     1.007825032230
         H           -3.272961520252    -2.197473626032     1.039699522894     1.007825032230
         H           -4.239068520252    -1.150396626032    -0.008900477106     1.007825032230
         H           -3.204391520252    -2.399931626032    -0.714539477106     1.007825032230
         H            1.698780479748    -1.757420626032    -0.618320477106     1.007825032230
         H            4.047237479748    -0.617628626032    -1.083346477106     1.007825032230
         H            3.995299479748    -2.093506626032    -0.079420477106     1.007825032230
         H            4.035587479748    -0.484501626032     0.682552522894     1.007825032230

  Basis Set: AUG-CC-PVTZ
    Blend: AUG-CC-PVTZ
  Basis Set: (AUG-CC-PVTZ AUX)
    Blend: AUG-CC-PVTZ-JKFIT
	 Reference Energy          =    -797.3176121143917499 [Eh]
	 Singles Energy            =      -0.0000000000000000 [Eh]
	 Same-Spin Energy          =      -0.4874606755358494 [Eh]
	 Opposite-Spin Energy      =      -1.5046118482605861 [Eh]
	 Correlation Energy        =      -1.9920725237964354 [Eh]
	 Total Energy              =    -799.3096846381881733 [Eh]

	 ================> DF-SCS-MP2 Energies <==================
	-----------------------------------------------------------
	 SCS Same-Spin Scale       =       0.3333333333333333 [-]
	 SCS Opposite-Spin Scale   =       1.2000000000000000 [-]
	 SCS Same-Spin Energy      =      -0.1624868918452831 [Eh]
	 SCS Opposite-Spin Energy  =      -1.8055342179127032 [Eh]
	 SCS Correlation Energy    =      -1.9680211097579863 [Eh]
	 SCS Total Energy          =    -799.2856332241497057 [Eh]
	-----------------------------------------------------------

  Dipole Moment: [D]
     X:    -1.6592      Y:    -3.7390      Z:    -1.1494     Total:     4.2490

*** Psi4 exiting successfully. Buy a developer a beer!
