                               Psi4 1.4a3.dev225

  ==> Input File <==

--------------------------------------------------------------------------
#psi4
#
memory 32 gb

molecule  {
0 1
  S       -0.8053760     1.6060500    -0.1399530
  O        2.1464270     1.2641370     0.3857660
  N        2.2049820    -0.9697390    -0.1110850
  C       -2.1414430    -0.6044570     0.0238790
  C        0.0782130     0.1386370     0.0349560
  C       -0.7695060    -0.9522330     0.1212440
  C       -2.2969850     0.7606620    -0.1265510
  C        1.5543500     0.2131940     0.1149440
  C       -3.2736380    -1.5890470     0.0915590
  C        3.6575090    -0.9906510    -0.1565210
  H       -0.4188890    -1.9677560     0.2899290
  H       -3.2284760     1.3059560    -0.2284190
  H       -3.2707310    -2.1282860     1.0440440
  H       -4.2368380    -1.0812090    -0.0045560
  H       -3.2021610    -2.3307440    -0.7101950
  H        1.7010110    -1.6882330    -0.6139760
  H        4.0401184    -0.5616927    -1.0891289
  H        3.9975300    -2.0243190    -0.0750760
  H        4.0378180    -0.4153140     0.6868970
units angstrom
no_reorient  #important for SAPT in psi4, default
symmetry c1  #important for SAPT in psi4, default
}

set PROPERTIES_ORIGIN ["COM"]
properties('MP2/aug-cc-pvtz', properties = ['dipole'])
--------------------------------------------------------------------------

    Molecular point group: c1
  Charge       = 0
  Multiplicity = 1
  Basis Set: AUG-CC-PVTZ
    Blend: AUG-CC-PVTZ
  Basis Set: (AUG-CC-PVTZ AUX)
    Blend: AUG-CC-PVTZ-JKFIT

    Orbital Energies [Eh]
    ---------------------

    Doubly Occupied:

       1A    -91.990378     2A    -20.521782     3A    -15.589215
       4A    -11.360819     5A    -11.274934     6A    -11.269109
       7A    -11.260758     8A    -11.257232     9A    -11.253966
      10A    -11.238287    11A     -8.990126    12A     -6.670994
      13A     -6.670444    14A     -6.669733    15A     -1.376280
      16A     -1.231757    17A     -1.183524    18A     -1.046639
      19A     -1.007287    20A     -0.954091    21A     -0.922779
      22A     -0.828640    23A     -0.768646    24A     -0.749978
      25A     -0.708682    26A     -0.643619    27A     -0.629415
      28A     -0.620623    29A     -0.594009    30A     -0.590901
      31A     -0.567751    32A     -0.552064    33A     -0.549000
      34A     -0.534582    35A     -0.523659    36A     -0.500841
      37A     -0.478272    38A     -0.434599    39A     -0.398734
      40A     -0.348227    41A     -0.327874

  @DF-RHF Final Energy:  -797.31948342720000

   => Energetics <=

    Nuclear Repulsion Energy =            587.9372241924291984
    One-Electron Energy =               -2260.3329121294218567
    Two-Electron Energy =                 875.0762045097925466
    Total Energy =                       -797.3194834271999980
  Basis Set: (AUG-CC-PVTZ AUX)
    Blend: AUG-CC-PVTZ-RI
    Molecular point group: c1

    Geometry (in Angstrom), charge = 0, multiplicity = 1:

       Center              X                  Y                   Z               Mass
    ------------   -----------------  -----------------  -----------------  -----------------
         S           -0.809089500900     1.536870543415    -0.144315301203    31.972071174400
         O            2.142713499100     1.194957543415     0.381403698797    15.994914619570
         N            2.201268499100    -1.038918456585    -0.115447301203    14.003074004430
         C           -2.145156500900    -0.673636456585     0.019516698797    12.000000000000
         C            0.074499499100     0.069457543415     0.030593698797    12.000000000000
         C           -0.773219500900    -1.021412456585     0.116881698797    12.000000000000
         C           -2.300698500900     0.691482543415    -0.130913301203    12.000000000000
         C            1.550636499100     0.144014543415     0.110581698797    12.000000000000
         C           -3.277351500900    -1.658226456585     0.087196698797    12.000000000000
         C            3.653795499100    -1.059830456585    -0.160883301203    12.000000000000
         H           -0.422602500900    -2.036935456585     0.285566698797     1.007825032230
         H           -3.232189500900     1.236776543415    -0.232781301203     1.007825032230
         H           -3.274444500900    -2.197465456585     1.039681698797     1.007825032230
         H           -4.240551500900    -1.150388456585    -0.008918301203     1.007825032230
         H           -3.205874500900    -2.399923456585    -0.714557301203     1.007825032230
         H            1.697297499100    -1.757412456585    -0.618338301203     1.007825032230
         H            4.036404899100    -0.630872156585    -1.093491201203     1.007825032230
         H            3.993816499100    -2.093498456585    -0.079438301203     1.007825032230
         H            4.034104499100    -0.484493456585     0.682534698797     1.007825032230

  Basis Set: AUG-CC-PVTZ
    Blend: AUG-CC-PVTZ
  Basis Set: (AUG-CC-PVTZ AUX)
    Blend: AUG-CC-PVTZ-JKFIT
	 Reference Energy          =    -797.3194834271999980 [Eh]
	 Singles Energy            =      -0.0000000000000000 [Eh]
	 Same-Spin Energy          =      -0.4870084420909570 [Eh]
	 Opposite-Spin Energy      =      -1.5037957283015024 [Eh]
	 Correlation Energy        =      -1.9908041703924595 [Eh]
	 Total Energy              =    -799.3102875975924917 [Eh]

	 ================> DF-SCS-MP2 Energies <==================
	-----------------------------------------------------------
	 SCS Same-Spin Scale       =       0.3333333333333333 [-]
	 SCS Opposite-Spin Scale   =       1.2000000000000000 [-]
	 SCS Same-Spin Energy      =      -0.1623361473636523 [Eh]
	 SCS Opposite-Spin Energy  =      -1.8045548739618029 [Eh]
	 SCS Correlation Energy    =      -1.9668910213254551 [Eh]
	 SCS Total Energy          =    -799.2863744485254074 [Eh]
	-----------------------------------------------------------

  Dipole Moment: [D]
     X:    -1.4885      Y:    -3.7548      Z:    -1.1477     Total:     4.1990

*** Psi4 exiting successfully. Buy a developer a beer!
