                               Psi4 1.4a3.dev225

  ==> Input File <==

--------------------------------------------------------------------------
#psi4
#
memory 32 gb

molecule  {
0 1
  S       -0.8053760     1.6060500    -0.1399530
  O        2.1464270     1.2641370     0.3857660
  N        2.2049820    -0.9697390    -0.1110850
  C       -2.1414430    -0.6044570     0.0238790
  C        0.0782130     0.1386370     0.0349560
  C       -0.7695060    -0.9522330     0.1212440
  C       -2.3026118     0.8100455    -0.1319928
  C        1.5543500     0.2131940     0.1149440
  C       -3.2736380    -1.5890470     0.0915590
  C        3.6575090    -0.9906510    -0.1565210
  H       -0.4188890    -1.9677560     0.2899290
  H       -3.2284760     1.3059560    -0.2284190
  H       -3.2707310    -2.1282860     1.0440440
  H       -4.2368380    -1.0812090    -0.0045560
  H       -3.2021610    -2.3307440    -0.7101950
  H        1.7010110    -1.6882330    -0.6139760
  H        4.0494680    -0.5484410    -1.0790020
  H        3.9975300    -2.0243190    -0.0750760
  H        4.0378180    -0.4153140     0.6868970
units angstrom
no_reorient  #important for SAPT in psi4, default
symmetry c1  #important for SAPT in psi4, default
}

set PROPERTIES_ORIGIN ["COM"]
properties('MP2/aug-cc-pvtz', properties = ['dipole'])
--------------------------------------------------------------------------

    Molecular point group: c1
  Charge       = 0
  Multiplicity = 1
  Basis Set: AUG-CC-PVTZ
    Blend: AUG-CC-PVTZ
  Basis Set: (AUG-CC-PVTZ AUX)
    Blend: AUG-CC-PVTZ-JKFIT

    Orbital Energies [Eh]
    ---------------------

    Doubly Occupied:

       1A    -91.993529     2A    -20.521254     3A    -15.589304
       4A    -11.360833     5A    -11.274286     6A    -11.271640
       7A    -11.260603     8A    -11.259448     9A    -11.256927
      10A    -11.238126    11A     -8.993263    12A     -6.674133
      13A     -6.673627    14A     -6.672938    15A     -1.375978
      16A     -1.231613    17A     -1.180302    18A     -1.043663
      19A     -1.011111    20A     -0.954385    21A     -0.919767
      22A     -0.827293    23A     -0.769348    24A     -0.752087
      25A     -0.708112    26A     -0.644716    27A     -0.628461
      28A     -0.621453    29A     -0.593995    30A     -0.589563
      31A     -0.568148    32A     -0.552100    33A     -0.549320
      34A     -0.536187    35A     -0.526217    36A     -0.500235
      37A     -0.476468    38A     -0.434108    39A     -0.398794
      40A     -0.350642    41A     -0.320521

  @DF-RHF Final Energy:  -797.31466847606430

   => Energetics <=

    Nuclear Repulsion Energy =            587.4237357157752513
    One-Electron Energy =               -2259.2678049491155434
    Two-Electron Energy =                 874.5294007572758801
    Total Energy =                       -797.3146684760642984
  Basis Set: (AUG-CC-PVTZ AUX)
    Blend: AUG-CC-PVTZ-RI
    Molecular point group: c1

    Geometry (in Angstrom), charge = 0, multiplicity = 1:

       Center              X                  Y                   Z               Mass
    ------------   -----------------  -----------------  -----------------  -----------------
         S           -0.808714767559     1.532962161713    -0.143959939462    31.972071174400
         O            2.143088232441     1.191049161713     0.381759060538    15.994914619570
         N            2.201643232441    -1.042826838287    -0.115091939462    14.003074004430
         C           -2.144781767559    -0.677544838287     0.019872060538    12.000000000000
         C            0.074874232441     0.065549161713     0.030949060538    12.000000000000
         C           -0.772844767559    -1.025320838287     0.117237060538    12.000000000000
         C           -2.305950567559     0.736957661713    -0.135999739462    12.000000000000
         C            1.551011232441     0.140106161713     0.110937060538    12.000000000000
         C           -3.276976767559    -1.662134838287     0.087552060538    12.000000000000
         C            3.654170232441    -1.063738838287    -0.160527939462    12.000000000000
         H           -0.422227767559    -2.040843838287     0.285922060538     1.007825032230
         H           -3.231814767559     1.232868161713    -0.232425939462     1.007825032230
         H           -3.274069767559    -2.201373838287     1.040037060538     1.007825032230
         H           -4.240176767559    -1.154296838287    -0.008562939462     1.007825032230
         H           -3.205499767559    -2.403831838287    -0.714201939462     1.007825032230
         H            1.697672232441    -1.761320838287    -0.617982939462     1.007825032230
         H            4.046129232441    -0.621528838287    -1.083008939462     1.007825032230
         H            3.994191232441    -2.097406838287    -0.079082939462     1.007825032230
         H            4.034479232441    -0.488401838287     0.682890060538     1.007825032230

  Basis Set: AUG-CC-PVTZ
    Blend: AUG-CC-PVTZ
  Basis Set: (AUG-CC-PVTZ AUX)
    Blend: AUG-CC-PVTZ-JKFIT
	 Reference Energy          =    -797.3146684760642984 [Eh]
	 Singles Energy            =      -0.0000000000000000 [Eh]
	 Same-Spin Energy          =      -0.4879588624765210 [Eh]
	 Opposite-Spin Energy      =      -1.5048763865608557 [Eh]
	 Correlation Energy        =      -1.9928352490373766 [Eh]
	 Total Energy              =    -799.3075037251016965 [Eh]

	 ================> DF-SCS-MP2 Energies <==================
	-----------------------------------------------------------
	 SCS Same-Spin Scale       =       0.3333333333333333 [-]
	 SCS Opposite-Spin Scale   =       1.2000000000000000 [-]
	 SCS Same-Spin Energy      =      -0.1626529541588403 [Eh]
	 SCS Opposite-Spin Energy  =      -1.8058516638730266 [Eh]
	 SCS Correlation Energy    =      -1.9685046180318670 [Eh]
	 SCS Total Energy          =    -799.2831730940961279 [Eh]
	-----------------------------------------------------------

  Dipole Moment: [D]
     X:    -1.4890      Y:    -3.7374      Z:    -1.1459     Total:     4.1831

*** Psi4 exiting successfully. Buy a developer a beer!
