                               Psi4 1.4a3.dev225

  ==> Input File <==

--------------------------------------------------------------------------
#psi4
#
memory 32 gb

molecule  {
0 1
  S       -0.8053760     1.6060500    -0.1399530
  O        2.1464270     1.2641370     0.3857660
  N        2.2049820    -0.9697390    -0.1110850
  C       -2.1414430    -0.6044570     0.0238790
  C        0.0679495     0.1556820     0.0329243
  C       -0.7695060    -0.9522330     0.1212440
  C       -2.2969850     0.7606620    -0.1265510
  C        1.5543500     0.2131940     0.1149440
  C       -3.2736380    -1.5890470     0.0915590
  C        3.6575090    -0.9906510    -0.1565210
  H       -0.4188890    -1.9677560     0.2899290
  H       -3.2284760     1.3059560    -0.2284190
  H       -3.2707310    -2.1282860     1.0440440
  H       -4.2368380    -1.0812090    -0.0045560
  H       -3.2021610    -2.3307440    -0.7101950
  H        1.7010110    -1.6882330    -0.6139760
  H        4.0494680    -0.5484410    -1.0790020
  H        3.9975300    -2.0243190    -0.0750760
  H        4.0378180    -0.4153140     0.6868970
units angstrom
no_reorient  #important for SAPT in psi4, default
symmetry c1  #important for SAPT in psi4, default
}

set PROPERTIES_ORIGIN ["COM"]
properties('MP2/aug-cc-pvtz', properties = ['dipole'])
--------------------------------------------------------------------------

    Molecular point group: c1
  Charge       = 0
  Multiplicity = 1
  Basis Set: AUG-CC-PVTZ
    Blend: AUG-CC-PVTZ
  Basis Set: (AUG-CC-PVTZ AUX)
    Blend: AUG-CC-PVTZ-JKFIT

    Orbital Energies [Eh]
    ---------------------

    Doubly Occupied:

       1A    -91.991169     2A    -20.521618     3A    -15.589736
       4A    -11.361263     5A    -11.274943     6A    -11.267965
       7A    -11.260896     8A    -11.256519     9A    -11.253800
      10A    -11.238009    11A     -8.991246    12A     -6.672133
      13A     -6.671585    14A     -6.670852    15A     -1.376122
      16A     -1.231534    17A     -1.184758    18A     -1.047262
      19A     -1.005805    20A     -0.953166    21A     -0.923892
      22A     -0.827358    23A     -0.768478    24A     -0.749278
      25A     -0.707615    26A     -0.644008    27A     -0.628909
      28A     -0.620925    29A     -0.593486    30A     -0.590686
      31A     -0.566605    32A     -0.551914    33A     -0.549197
      34A     -0.533723    35A     -0.526464    36A     -0.501617
      37A     -0.479624    38A     -0.434045    39A     -0.398781
      40A     -0.347134    41A     -0.327974

  @DF-RHF Final Energy:  -797.31905990013411

   => Energetics <=

    Nuclear Repulsion Energy =            588.0721459356341256
    One-Electron Energy =               -2260.5982247853580702
    Two-Electron Energy =                 875.2070189495898376
    Total Energy =                       -797.3190599001341070
  Basis Set: (AUG-CC-PVTZ AUX)
    Blend: AUG-CC-PVTZ-RI
    Molecular point group: c1

    Geometry (in Angstrom), charge = 0, multiplicity = 1:

       Center              X                  Y                   Z               Mass
    ------------   -----------------  -----------------  -----------------  -----------------
         S           -0.808355890973     1.535465133758    -0.144223878265    31.972071174400
         O            2.143447109027     1.193552133758     0.381495121735    15.994914619570
         N            2.202002109027    -1.040323866242    -0.115355878265    14.003074004430
         C           -2.144422890973    -0.675041866242     0.019608121735    12.000000000000
         C            0.064969609027     0.085097133758     0.028653421735    12.000000000000
         C           -0.772485890973    -1.022817866242     0.116973121735    12.000000000000
         C           -2.299964890973     0.690077133758    -0.130821878265    12.000000000000
         C            1.551370109027     0.142609133758     0.110673121735    12.000000000000
         C           -3.276617890973    -1.659631866242     0.087288121735    12.000000000000
         C            3.654529109027    -1.061235866242    -0.160791878265    12.000000000000
         H           -0.421868890973    -2.038340866242     0.285658121735     1.007825032230
         H           -3.231455890973     1.235371133758    -0.232689878265     1.007825032230
         H           -3.273710890973    -2.198870866242     1.039773121735     1.007825032230
         H           -4.239817890973    -1.151793866242    -0.008826878265     1.007825032230
         H           -3.205140890973    -2.401328866242    -0.714465878265     1.007825032230
         H            1.698031109027    -1.758817866242    -0.618246878265     1.007825032230
         H            4.046488109027    -0.619025866242    -1.083272878265     1.007825032230
         H            3.994550109027    -2.094903866242    -0.079346878265     1.007825032230
         H            4.034838109027    -0.485898866242     0.682626121735     1.007825032230

  Basis Set: AUG-CC-PVTZ
    Blend: AUG-CC-PVTZ
  Basis Set: (AUG-CC-PVTZ AUX)
    Blend: AUG-CC-PVTZ-JKFIT
	 Reference Energy          =    -797.3190599001341070 [Eh]
	 Singles Energy            =      -0.0000000000000000 [Eh]
	 Same-Spin Energy          =      -0.4871384057455599 [Eh]
	 Opposite-Spin Energy      =      -1.5037606456226931 [Eh]
	 Correlation Energy        =      -1.9908990513682530 [Eh]
	 Total Energy              =    -799.3099589515023808 [Eh]

	 ================> DF-SCS-MP2 Energies <==================
	-----------------------------------------------------------
	 SCS Same-Spin Scale       =       0.3333333333333333 [-]
	 SCS Opposite-Spin Scale   =       1.2000000000000000 [-]
	 SCS Same-Spin Energy      =      -0.1623794685818533 [Eh]
	 SCS Opposite-Spin Energy  =      -1.8045127747472316 [Eh]
	 SCS Correlation Energy    =      -1.9668922433290850 [Eh]
	 SCS Total Energy          =    -799.2859521434631915 [Eh]
	-----------------------------------------------------------

  Dipole Moment: [D]
     X:    -1.4757      Y:    -3.7188      Z:    -1.1500     Total:     4.1629

*** Psi4 exiting successfully. Buy a developer a beer!
