                               Psi4 1.4a3.dev225

  ==> Input File <==

--------------------------------------------------------------------------
#psi4
#
memory 32 gb

molecule  {
0 1
  S       -0.8053760     1.6060500    -0.1399530
  O        2.1464270     1.2641370     0.3857660
  N        2.2049820    -0.9697390    -0.1110850
  C       -2.1414430    -0.6044570     0.0238790
  C        0.0782130     0.1386370     0.0349560
  C       -0.8435539    -0.8913735     0.1090816
  C       -2.2969850     0.7606620    -0.1265510
  C        1.5543500     0.2131940     0.1149440
  C       -3.2736380    -1.5890470     0.0915590
  C        3.6575090    -0.9906510    -0.1565210
  H       -0.4188890    -1.9677560     0.2899290
  H       -3.2284760     1.3059560    -0.2284190
  H       -3.2707310    -2.1282860     1.0440440
  H       -4.2368380    -1.0812090    -0.0045560
  H       -3.2021610    -2.3307440    -0.7101950
  H        1.7010110    -1.6882330    -0.6139760
  H        4.0494680    -0.5484410    -1.0790020
  H        3.9975300    -2.0243190    -0.0750760
  H        4.0378180    -0.4153140     0.6868970
units angstrom
no_reorient  #important for SAPT in psi4, default
symmetry c1  #important for SAPT in psi4, default
}

set PROPERTIES_ORIGIN ["COM"]
properties('MP2/aug-cc-pvtz', properties = ['dipole'])
--------------------------------------------------------------------------

    Molecular point group: c1
  Charge       = 0
  Multiplicity = 1
  Basis Set: AUG-CC-PVTZ
    Blend: AUG-CC-PVTZ
  Basis Set: (AUG-CC-PVTZ AUX)
    Blend: AUG-CC-PVTZ-JKFIT

    Orbital Energies [Eh]
    ---------------------

    Doubly Occupied:

       1A    -91.992605     2A    -20.521662     3A    -15.589155
       4A    -11.362540     5A    -11.271954     6A    -11.271387
       7A    -11.260379     8A    -11.255674     9A    -11.245284
      10A    -11.239676    11A     -8.992139    12A     -6.672900
      13A     -6.672473    14A     -6.671807    15A     -1.376275
      16A     -1.231470    17A     -1.196488    18A     -1.051738
      19A     -1.003910    20A     -0.956848    21A     -0.927130
      22A     -0.828701    23A     -0.771317    24A     -0.747887
      25A     -0.707398    26A     -0.643777    27A     -0.629936
      28A     -0.622626    29A     -0.595050    30A     -0.591482
      31A     -0.562077    32A     -0.551205    33A     -0.550504
      34A     -0.541979    35A     -0.513654    36A     -0.504524
      37A     -0.474206    38A     -0.436357    39A     -0.398755
      40A     -0.354844    41A     -0.325088

  @DF-RHF Final Energy:  -797.30513782311505

   => Energetics <=

    Nuclear Repulsion Energy =            589.2031355630108465
    One-Electron Energy =               -2262.7868250059336788
    Two-Electron Energy =                 876.2785516198077858
    Total Energy =                       -797.3051378231150466
  Basis Set: (AUG-CC-PVTZ AUX)
    Blend: AUG-CC-PVTZ-RI
    Molecular point group: c1

    Geometry (in Angstrom), charge = 0, multiplicity = 1:

       Center              X                  Y                   Z               Mass
    ------------   -----------------  -----------------  -----------------  -----------------
         S           -0.803419033354     1.532073929198    -0.143439770811    31.972071174400
         O            2.148383966646     1.190160929198     0.382279229189    15.994914619570
         N            2.206938966646    -1.043715070802    -0.114571770811    14.003074004430
         C           -2.139486033354    -0.678433070802     0.020392229189    12.000000000000
         C            0.080169966646     0.064660929198     0.031469229189    12.000000000000
         C           -0.841596933354    -0.965349570802     0.105594829189    12.000000000000
         C           -2.295028033354     0.686685929198    -0.130037770811    12.000000000000
         C            1.556306966646     0.139217929198     0.111457229189    12.000000000000
         C           -3.271681033354    -1.663023070802     0.088072229189    12.000000000000
         C            3.659465966646    -1.064627070802    -0.160007770811    12.000000000000
         H           -0.416932033354    -2.041732070802     0.286442229189     1.007825032230
         H           -3.226519033354     1.231979929198    -0.231905770811     1.007825032230
         H           -3.268774033354    -2.202262070802     1.040557229189     1.007825032230
         H           -4.234881033354    -1.155185070802    -0.008042770811     1.007825032230
         H           -3.200204033354    -2.404720070802    -0.713681770811     1.007825032230
         H            1.702967966646    -1.762209070802    -0.617462770811     1.007825032230
         H            4.051424966646    -0.622417070802    -1.082488770811     1.007825032230
         H            3.999486966646    -2.098295070802    -0.078562770811     1.007825032230
         H            4.039774966646    -0.489290070802     0.683410229189     1.007825032230

  Basis Set: AUG-CC-PVTZ
    Blend: AUG-CC-PVTZ
  Basis Set: (AUG-CC-PVTZ AUX)
    Blend: AUG-CC-PVTZ-JKFIT
	 Reference Energy          =    -797.3051378231150466 [Eh]
	 Singles Energy            =      -0.0000000000000000 [Eh]
	 Same-Spin Energy          =      -0.4889194289297644 [Eh]
	 Opposite-Spin Energy      =      -1.5055352548738106 [Eh]
	 Correlation Energy        =      -1.9944546838035748 [Eh]
	 Total Energy              =    -799.2995925069186569 [Eh]

	 ================> DF-SCS-MP2 Energies <==================
	-----------------------------------------------------------
	 SCS Same-Spin Scale       =       0.3333333333333333 [-]
	 SCS Opposite-Spin Scale   =       1.2000000000000000 [-]
	 SCS Same-Spin Energy      =      -0.1629731429765881 [Eh]
	 SCS Opposite-Spin Energy  =      -1.8066423058485725 [Eh]
	 SCS Correlation Energy    =      -1.9696154488251607 [Eh]
	 SCS Total Energy          =    -799.2747532719401988 [Eh]
	-----------------------------------------------------------

  Dipole Moment: [D]
     X:    -1.4968      Y:    -3.7177      Z:    -1.1561     Total:     4.1711

*** Psi4 exiting successfully. Buy a developer a beer!
