                               Psi4 1.4a3.dev225

  ==> Input File <==

--------------------------------------------------------------------------
#psi4
#
memory 32 gb

molecule  {
0 1
  S       -0.8053760     1.6060500    -0.1399530
  O        2.1464270     1.2641370     0.3857660
  N        2.2049820    -0.9697390    -0.1110850
  C       -2.1414430    -0.6044570     0.0238790
  C        0.0396863     0.1669578     0.0280231
  C       -0.7695060    -0.9522330     0.1212440
  C       -2.2969850     0.7606620    -0.1265510
  C        1.5543500     0.2131940     0.1149440
  C       -3.2736380    -1.5890470     0.0915590
  C        3.6575090    -0.9906510    -0.1565210
  H       -0.4188890    -1.9677560     0.2899290
  H       -3.2284760     1.3059560    -0.2284190
  H       -3.2707310    -2.1282860     1.0440440
  H       -4.2368380    -1.0812090    -0.0045560
  H       -3.2021610    -2.3307440    -0.7101950
  H        1.7010110    -1.6882330    -0.6139760
  H        4.0494680    -0.5484410    -1.0790020
  H        3.9975300    -2.0243190    -0.0750760
  H        4.0378180    -0.4153140     0.6868970
units angstrom
no_reorient  #important for SAPT in psi4, default
symmetry c1  #important for SAPT in psi4, default
}

set PROPERTIES_ORIGIN ["COM"]
properties('MP2/aug-cc-pvtz', properties = ['dipole'])
--------------------------------------------------------------------------

    Molecular point group: c1
  Charge       = 0
  Multiplicity = 1
  Basis Set: AUG-CC-PVTZ
    Blend: AUG-CC-PVTZ
  Basis Set: (AUG-CC-PVTZ AUX)
    Blend: AUG-CC-PVTZ-JKFIT

    Orbital Energies [Eh]
    ---------------------

    Doubly Occupied:

       1A    -91.990925     2A    -20.522392     3A    -15.590594
       4A    -11.363143     5A    -11.274380     6A    -11.265444
       7A    -11.261431     8A    -11.253635     9A    -11.252569
      10A    -11.237206    11A     -8.991581    12A     -6.672517
      13A     -6.671915    14A     -6.671155    15A     -1.376014
      16A     -1.231630    17A     -1.187916    18A     -1.047287
      19A     -1.004277    20A     -0.952995    21A     -0.924314
      22A     -0.823088    23A     -0.767846    24A     -0.748701
      25A     -0.707635    26A     -0.643937    27A     -0.629285
      28A     -0.620983    29A     -0.592312    30A     -0.590212
      31A     -0.564451    32A     -0.552363    33A     -0.549015
      34A     -0.532261    35A     -0.529680    36A     -0.503580
      37A     -0.481959    38A     -0.432618    39A     -0.399083
      40A     -0.346941    41A     -0.328079

  @DF-RHF Final Energy:  -797.31763719745777

   => Energetics <=

    Nuclear Repulsion Energy =            588.2949012148723114
    One-Electron Energy =               -2261.0503808231151197
    Two-Electron Energy =                 875.4378424107849241
    Total Energy =                       -797.3176371974577705
  Basis Set: (AUG-CC-PVTZ AUX)
    Blend: AUG-CC-PVTZ-RI
    Molecular point group: c1

    Geometry (in Angstrom), charge = 0, multiplicity = 1:

       Center              X                  Y                   Z               Mass
    ------------   -----------------  -----------------  -----------------  -----------------
         S           -0.806168343637     1.534592396551    -0.143844529607    31.972071174400
         O            2.145634656363     1.192679396551     0.381874470393    15.994914619570
         N            2.204189656363    -1.041196603449    -0.114976529607    14.003074004430
         C           -2.142235343637    -0.675914603449     0.019987470393    12.000000000000
         C            0.038893956363     0.095500196551     0.024131570393    12.000000000000
         C           -0.770298343637    -1.023690603449     0.117352470393    12.000000000000
         C           -2.297777343637     0.689204396551    -0.130442529607    12.000000000000
         C            1.553557656363     0.141736396551     0.111052470393    12.000000000000
         C           -3.274430343637    -1.660504603449     0.087667470393    12.000000000000
         C            3.656716656363    -1.062108603449    -0.160412529607    12.000000000000
         H           -0.419681343637    -2.039213603449     0.286037470393     1.007825032230
         H           -3.229268343637     1.234498396551    -0.232310529607     1.007825032230
         H           -3.271523343637    -2.199743603449     1.040152470393     1.007825032230
         H           -4.237630343637    -1.152666603449    -0.008447529607     1.007825032230
         H           -3.202953343637    -2.402201603449    -0.714086529607     1.007825032230
         H            1.700218656363    -1.759690603449    -0.617867529607     1.007825032230
         H            4.048675656363    -0.619898603449    -1.082893529607     1.007825032230
         H            3.996737656363    -2.095776603449    -0.078967529607     1.007825032230
         H            4.037025656363    -0.486771603449     0.683005470393     1.007825032230

  Basis Set: AUG-CC-PVTZ
    Blend: AUG-CC-PVTZ
  Basis Set: (AUG-CC-PVTZ AUX)
    Blend: AUG-CC-PVTZ-JKFIT
	 Reference Energy          =    -797.3176371974577705 [Eh]
	 Singles Energy            =      -0.0000000000000000 [Eh]
	 Same-Spin Energy          =      -0.4870162313599593 [Eh]
	 Opposite-Spin Energy      =      -1.5034239210106954 [Eh]
	 Correlation Energy        =      -1.9904401523706547 [Eh]
	 Total Energy              =    -799.3080773498284088 [Eh]

	 ================> DF-SCS-MP2 Energies <==================
	-----------------------------------------------------------
	 SCS Same-Spin Scale       =       0.3333333333333333 [-]
	 SCS Opposite-Spin Scale   =       1.2000000000000000 [-]
	 SCS Same-Spin Energy      =      -0.1623387437866531 [Eh]
	 SCS Opposite-Spin Energy  =      -1.8041087052128344 [Eh]
	 SCS Correlation Energy    =      -1.9664474489994874 [Eh]
	 SCS Total Energy          =    -799.2840846464572451 [Eh]
	-----------------------------------------------------------

  Dipole Moment: [D]
     X:    -1.3956      Y:    -3.6875      Z:    -1.1503     Total:     4.1071

*** Psi4 exiting successfully. Buy a developer a beer!
