                               Psi4 1.4a3.dev225

  ==> Input File <==

--------------------------------------------------------------------------
#psi4
#
memory 32 gb

molecule  {
0 1
  S       -0.8053760     1.6060500    -0.1399530
  O        2.1464270     1.2641370     0.3857660
  N        2.2146920    -0.8185532    -0.1249332
  C       -2.1414430    -0.6044570     0.0238790
  C        0.0782130     0.1386370     0.0349560
  C       -0.7695060    -0.9522330     0.1212440
  C       -2.2969850     0.7606620    -0.1265510
  C        1.5543500     0.2131940     0.1149440
  C       -3.2736380    -1.5890470     0.0915590
  C        3.6575090    -0.9906510    -0.1565210
  H       -0.4188890    -1.9677560     0.2899290
  H       -3.2284760     1.3059560    -0.2284190
  H       -3.2707310    -2.1282860     1.0440440
  H       -4.2368380    -1.0812090    -0.0045560
  H       -3.2021610    -2.3307440    -0.7101950
  H        1.7010110    -1.6882330    -0.6139760
  H        4.0494680    -0.5484410    -1.0790020
  H        3.9975300    -2.0243190    -0.0750760
  H        4.0378180    -0.4153140     0.6868970
units angstrom
no_reorient  #important for SAPT in psi4, default
symmetry c1  #important for SAPT in psi4, default
}

set PROPERTIES_ORIGIN ["COM"]
properties('MP2/aug-cc-pvtz', properties = ['dipole'])
--------------------------------------------------------------------------

    Molecular point group: c1
  Charge       = 0
  Multiplicity = 1
  Basis Set: AUG-CC-PVTZ
    Blend: AUG-CC-PVTZ
  Basis Set: (AUG-CC-PVTZ AUX)
    Blend: AUG-CC-PVTZ-JKFIT

    Orbital Energies [Eh]
    ---------------------

    Doubly Occupied:

       1A    -91.988006     2A    -20.496182     3A    -15.602153
       4A    -11.341377     5A    -11.272976     6A    -11.269963
       7A    -11.265918     8A    -11.254419     9A    -11.251825
      10A    -11.236930    11A     -8.987658    12A     -6.668515
      13A     -6.667971    14A     -6.667261    15A     -1.382206
      16A     -1.242273    17A     -1.181470    18A     -1.045561
      19A     -1.010349    20A     -0.969685    21A     -0.924226
      22A     -0.818031    23A     -0.772224    24A     -0.747555
      25A     -0.707721    26A     -0.652379    27A     -0.642997
      28A     -0.616576    29A     -0.590847    30A     -0.589277
      31A     -0.571945    32A     -0.551946    33A     -0.533831
      34A     -0.531581    35A     -0.522175    36A     -0.502353
      37A     -0.475113    38A     -0.421752    39A     -0.394021
      40A     -0.346187    41A     -0.325551

  @DF-RHF Final Energy:  -797.29326151951557

   => Energetics <=

    Nuclear Repulsion Energy =            590.5273548181257866
    One-Electron Energy =               -2265.5592647746220791
    Two-Electron Energy =                 877.7386484369807249
    Total Energy =                       -797.2932615195155677
  Basis Set: (AUG-CC-PVTZ AUX)
    Blend: AUG-CC-PVTZ-RI
    Molecular point group: c1

    Geometry (in Angstrom), charge = 0, multiplicity = 1:

       Center              X                  Y                   Z               Mass
    ------------   -----------------  -----------------  -----------------  -----------------
         S           -0.810027272796     1.523129478689    -0.143130376982    31.972071174400
         O            2.141775727204     1.181216478689     0.382588623018    15.994914619570
         N            2.210040727204    -0.901473721311    -0.128110576982    14.003074004430
         C           -2.146094272796    -0.687377521311     0.020701623018    12.000000000000
         C            0.073561727204     0.055716478689     0.031778623018    12.000000000000
         C           -0.774157272796    -1.035153521311     0.118066623018    12.000000000000
         C           -2.301636272796     0.677741478689    -0.129728376982    12.000000000000
         C            1.549698727204     0.130273478689     0.111766623018    12.000000000000
         C           -3.278289272796    -1.671967521311     0.088381623018    12.000000000000
         C            3.652857727204    -1.073571521311    -0.159698376982    12.000000000000
         H           -0.423540272796    -2.050676521311     0.286751623018     1.007825032230
         H           -3.233127272796     1.223035478689    -0.231596376982     1.007825032230
         H           -3.275382272796    -2.211206521311     1.040866623018     1.007825032230
         H           -4.241489272796    -1.164129521311    -0.007733376982     1.007825032230
         H           -3.206812272796    -2.413664521311    -0.713372376982     1.007825032230
         H            1.696359727204    -1.771153521311    -0.617153376982     1.007825032230
         H            4.044816727204    -0.631361521311    -1.082179376982     1.007825032230
         H            3.992878727204    -2.107239521311    -0.078253376982     1.007825032230
         H            4.033166727204    -0.498234521311     0.683719623018     1.007825032230

  Basis Set: AUG-CC-PVTZ
    Blend: AUG-CC-PVTZ
  Basis Set: (AUG-CC-PVTZ AUX)
    Blend: AUG-CC-PVTZ-JKFIT
	 Reference Energy          =    -797.2932615195155677 [Eh]
	 Singles Energy            =      -0.0000000000000000 [Eh]
	 Same-Spin Energy          =      -0.4876604001755170 [Eh]
	 Opposite-Spin Energy      =      -1.5042936410428827 [Eh]
	 Correlation Energy        =      -1.9919540412183996 [Eh]
	 Total Energy              =    -799.2852155607339455 [Eh]

	 ================> DF-SCS-MP2 Energies <==================
	-----------------------------------------------------------
	 SCS Same-Spin Scale       =       0.3333333333333333 [-]
	 SCS Opposite-Spin Scale   =       1.2000000000000000 [-]
	 SCS Same-Spin Energy      =      -0.1625534667251723 [Eh]
	 SCS Opposite-Spin Energy  =      -1.8051523692514591 [Eh]
	 SCS Correlation Energy    =      -1.9677058359766313 [Eh]
	 SCS Total Energy          =    -799.2609673554921983 [Eh]
	-----------------------------------------------------------

  Dipole Moment: [D]
     X:    -1.1358      Y:    -4.4090      Z:    -1.1955     Total:     4.7073

*** Psi4 exiting successfully. Buy a developer a beer!
