                               Psi4 1.4a3.dev225

  ==> Input File <==

--------------------------------------------------------------------------
#psi4
#
memory 32 gb

molecule  {
0 1
  S       -0.8053760     1.6060500    -0.1399530
  O        2.1464270     1.2641370     0.3857660
  N        2.2063212    -0.9249889    -0.2021165
  C       -2.1414430    -0.6044570     0.0238790
  C        0.0782130     0.1386370     0.0349560
  C       -0.7695060    -0.9522330     0.1212440
  C       -2.2969850     0.7606620    -0.1265510
  C        1.5543500     0.2131940     0.1149440
  C       -3.2736380    -1.5890470     0.0915590
  C        3.6575090    -0.9906510    -0.1565210
  H       -0.4188890    -1.9677560     0.2899290
  H       -3.2284760     1.3059560    -0.2284190
  H       -3.2707310    -2.1282860     1.0440440
  H       -4.2368380    -1.0812090    -0.0045560
  H       -3.2021610    -2.3307440    -0.7101950
  H        1.7010110    -1.6882330    -0.6139760
  H        4.0494680    -0.5484410    -1.0790020
  H        3.9975300    -2.0243190    -0.0750760
  H        4.0378180    -0.4153140     0.6868970
units angstrom
no_reorient  #important for SAPT in psi4, default
symmetry c1  #important for SAPT in psi4, default
}

set PROPERTIES_ORIGIN ["COM"]
properties('MP2/aug-cc-pvtz', properties = ['dipole'])
--------------------------------------------------------------------------

    Molecular point group: c1
  Charge       = 0
  Multiplicity = 1
  Basis Set: AUG-CC-PVTZ
    Blend: AUG-CC-PVTZ
  Basis Set: (AUG-CC-PVTZ AUX)
    Blend: AUG-CC-PVTZ-JKFIT

    Orbital Energies [Eh]
    ---------------------

    Doubly Occupied:

       1A    -91.989799     2A    -20.516461     3A    -15.589639
       4A    -11.357929     5A    -11.274513     6A    -11.268197
       7A    -11.262392     8A    -11.256576     9A    -11.253486
      10A    -11.237995    11A     -8.989526    12A     -6.670392
      13A     -6.669841    14A     -6.669129    15A     -1.375342
      16A     -1.235203    17A     -1.183011    18A     -1.046241
      19A     -1.007306    20A     -0.956512    21A     -0.923080
      22A     -0.829391    23A     -0.775367    24A     -0.749604
      25A     -0.708357    26A     -0.643523    27A     -0.629534
      28A     -0.622825    29A     -0.593150    30A     -0.590687
      31A     -0.568658    32A     -0.554406    33A     -0.549076
      34A     -0.534006    35A     -0.522695    36A     -0.500391
      37A     -0.477481    38A     -0.431858    39A     -0.395486
      40A     -0.347836    41A     -0.327228

  @DF-RHF Final Energy:  -797.31928781643444

   => Energetics <=

    Nuclear Repulsion Energy =            588.4295335916057184
    One-Electron Energy =               -2261.3293820300173138
    Two-Electron Energy =                 875.5805606219770425
    Total Energy =                       -797.3192878164344393
  Basis Set: (AUG-CC-PVTZ AUX)
    Blend: AUG-CC-PVTZ-RI
    Molecular point group: c1

    Geometry (in Angstrom), charge = 0, multiplicity = 1:

       Center              X                  Y                   Z               Mass
    ------------   -----------------  -----------------  -----------------  -----------------
         S           -0.809271231999     1.532742625752    -0.136159272233    31.972071174400
         O            2.142531768001     1.190829625752     0.389559727767    15.994914619570
         N            2.202425968001    -0.998296274248    -0.198322772233    14.003074004430
         C           -2.145338231999    -0.677764374248     0.027672727767    12.000000000000
         C            0.074317768001     0.065329625752     0.038749727767    12.000000000000
         C           -0.773401231999    -1.025540374248     0.125037727767    12.000000000000
         C           -2.300880231999     0.687354625752    -0.122757272233    12.000000000000
         C            1.550454768001     0.139886625752     0.118737727767    12.000000000000
         C           -3.277533231999    -1.662354374248     0.095352727767    12.000000000000
         C            3.653613768001    -1.063958374248    -0.152727272233    12.000000000000
         H           -0.422784231999    -2.041063374248     0.293722727767     1.007825032230
         H           -3.232371231999     1.232648625752    -0.224625272233     1.007825032230
         H           -3.274626231999    -2.201593374248     1.047837727767     1.007825032230
         H           -4.240733231999    -1.154516374248    -0.000762272233     1.007825032230
         H           -3.206056231999    -2.404051374248    -0.706401272233     1.007825032230
         H            1.697115768001    -1.761540374248    -0.610182272233     1.007825032230
         H            4.045572768001    -0.621748374248    -1.075208272233     1.007825032230
         H            3.993634768001    -2.097626374248    -0.071282272233     1.007825032230
         H            4.033922768001    -0.488621374248     0.690690727767     1.007825032230

  Basis Set: AUG-CC-PVTZ
    Blend: AUG-CC-PVTZ
  Basis Set: (AUG-CC-PVTZ AUX)
    Blend: AUG-CC-PVTZ-JKFIT
	 Reference Energy          =    -797.3192878164344393 [Eh]
	 Singles Energy            =      -0.0000000000000000 [Eh]
	 Same-Spin Energy          =      -0.4869753739067335 [Eh]
	 Opposite-Spin Energy      =      -1.5033288835119600 [Eh]
	 Correlation Energy        =      -1.9903042574186935 [Eh]
	 Total Energy              =    -799.3095920738530822 [Eh]

	 ================> DF-SCS-MP2 Energies <==================
	-----------------------------------------------------------
	 SCS Same-Spin Scale       =       0.3333333333333333 [-]
	 SCS Opposite-Spin Scale   =       1.2000000000000000 [-]
	 SCS Same-Spin Energy      =      -0.1623251246355778 [Eh]
	 SCS Opposite-Spin Energy  =      -1.8039946602143520 [Eh]
	 SCS Correlation Energy    =      -1.9663197848499299 [Eh]
	 SCS Total Energy          =    -799.2856076012843687 [Eh]
	-----------------------------------------------------------

  Dipole Moment: [D]
     X:    -1.4032      Y:    -3.9592      Z:    -1.0215     Total:     4.3229

*** Psi4 exiting successfully. Buy a developer a beer!
