                               Psi4 1.4a3.dev225

  ==> Input File <==

--------------------------------------------------------------------------
#psi4
#
memory 32 gb

molecule  {
0 1
  S       -0.8053760     1.6060500    -0.1399530
  O        2.1464270     1.2641370     0.3857660
  N        2.2049820    -0.9697390    -0.1110850
  C       -2.1414430    -0.6044570     0.0238790
  C        0.0782130     0.1386370     0.0349560
  C       -0.7976607    -1.0467694     0.1299365
  C       -2.2969850     0.7606620    -0.1265510
  C        1.5543500     0.2131940     0.1149440
  C       -3.2736380    -1.5890470     0.0915590
  C        3.6575090    -0.9906510    -0.1565210
  H       -0.4188890    -1.9677560     0.2899290
  H       -3.2284760     1.3059560    -0.2284190
  H       -3.2707310    -2.1282860     1.0440440
  H       -4.2368380    -1.0812090    -0.0045560
  H       -3.2021610    -2.3307440    -0.7101950
  H        1.7010110    -1.6882330    -0.6139760
  H        4.0494680    -0.5484410    -1.0790020
  H        3.9975300    -2.0243190    -0.0750760
  H        4.0378180    -0.4153140     0.6868970
units angstrom
no_reorient  #important for SAPT in psi4, default
symmetry c1  #important for SAPT in psi4, default
}

set PROPERTIES_ORIGIN ["COM"]
properties('MP2/aug-cc-pvtz', properties = ['dipole'])
--------------------------------------------------------------------------

    Molecular point group: c1
  Charge       = 0
  Multiplicity = 1
  Basis Set: AUG-CC-PVTZ
    Blend: AUG-CC-PVTZ
  Basis Set: (AUG-CC-PVTZ AUX)
    Blend: AUG-CC-PVTZ-JKFIT

    Orbital Energies [Eh]
    ---------------------

    Doubly Occupied:

       1A    -91.997234     2A    -20.520554     3A    -15.588680
       4A    -11.359379     5A    -11.284831     6A    -11.269493
       7A    -11.260501     8A    -11.260196     9A    -11.256721
      10A    -11.235737    11A     -8.996354    12A     -6.677192
      13A     -6.676609    14A     -6.676029    15A     -1.375216
      16A     -1.230695    17A     -1.175043    18A     -1.045711
      19A     -1.005578    20A     -0.951841    21A     -0.921762
      22A     -0.831523    23A     -0.768977    24A     -0.759077
      25A     -0.697403    26A     -0.644007    27A     -0.627980
      28A     -0.621667    29A     -0.605359    30A     -0.589652
      31A     -0.566362    32A     -0.551209    33A     -0.546890
      34A     -0.537011    35A     -0.518150    36A     -0.497652
      37A     -0.481050    38A     -0.432496    39A     -0.398260
      40A     -0.346818    41A     -0.321395

  @DF-RHF Final Energy:  -797.30223172447870

   => Energetics <=

    Nuclear Repulsion Energy =            586.1448327880655143
    One-Electron Energy =               -2256.6775421036204534
    Two-Electron Energy =                 873.2304775910762373
    Total Energy =                       -797.3022317244787018
  Basis Set: (AUG-CC-PVTZ AUX)
    Blend: AUG-CC-PVTZ-RI
    Molecular point group: c1

    Geometry (in Angstrom), charge = 0, multiplicity = 1:

       Center              X                  Y                   Z               Mass
    ------------   -----------------  -----------------  -----------------  -----------------
         S           -0.806971127503     1.544101438006    -0.145053922108    31.972071174400
         O            2.144831872497     1.202188438006     0.380665077892    15.994914619570
         N            2.203386872497    -1.031687561994    -0.116185922108    14.003074004430
         C           -2.143038127503    -0.666405561994     0.018778077892    12.000000000000
         C            0.076617872497     0.076688438006     0.029855077892    12.000000000000
         C           -0.799255827503    -1.108717961994     0.124835577892    12.000000000000
         C           -2.298580127503     0.698713438006    -0.131651922108    12.000000000000
         C            1.552754872497     0.151245438006     0.109843077892    12.000000000000
         C           -3.275233127503    -1.650995561994     0.086458077892    12.000000000000
         C            3.655913872497    -1.052599561994    -0.161621922108    12.000000000000
         H           -0.420484127503    -2.029704561994     0.284828077892     1.007825032230
         H           -3.230071127503     1.244007438006    -0.233519922108     1.007825032230
         H           -3.272326127503    -2.190234561994     1.038943077892     1.007825032230
         H           -4.238433127503    -1.143157561994    -0.009656922108     1.007825032230
         H           -3.203756127503    -2.392692561994    -0.715295922108     1.007825032230
         H            1.699415872497    -1.750181561994    -0.619076922108     1.007825032230
         H            4.047872872497    -0.610389561994    -1.084102922108     1.007825032230
         H            3.995934872497    -2.086267561994    -0.080176922108     1.007825032230
         H            4.036222872497    -0.477262561994     0.681796077892     1.007825032230

  Basis Set: AUG-CC-PVTZ
    Blend: AUG-CC-PVTZ
  Basis Set: (AUG-CC-PVTZ AUX)
    Blend: AUG-CC-PVTZ-JKFIT
	 Reference Energy          =    -797.3022317244787018 [Eh]
	 Singles Energy            =      -0.0000000000000000 [Eh]
	 Same-Spin Energy          =      -0.4887601620522373 [Eh]
	 Opposite-Spin Energy      =      -1.5066889841706925 [Eh]
	 Correlation Energy        =      -1.9954491462229298 [Eh]
	 Total Energy              =    -799.2976808707015834 [Eh]

	 ================> DF-SCS-MP2 Energies <==================
	-----------------------------------------------------------
	 SCS Same-Spin Scale       =       0.3333333333333333 [-]
	 SCS Opposite-Spin Scale   =       1.2000000000000000 [-]
	 SCS Same-Spin Energy      =      -0.1629200540174124 [Eh]
	 SCS Opposite-Spin Energy  =      -1.8080267810048309 [Eh]
	 SCS Correlation Energy    =      -1.9709468350222434 [Eh]
	 SCS Total Energy          =    -799.2731785595009342 [Eh]
	-----------------------------------------------------------

  Dipole Moment: [D]
     X:    -1.5136      Y:    -3.6160      Z:    -1.1531     Total:     4.0861

*** Psi4 exiting successfully. Buy a developer a beer!
