                               Psi4 1.4a3.dev225

  ==> Input File <==

--------------------------------------------------------------------------
#psi4
#
memory 32 gb

molecule  {
0 1
  S       -0.8053760     1.6060500    -0.1399530
  O        2.1464270     1.2641370     0.3857660
  N        2.2049820    -0.9697390    -0.1110850
  C       -2.1414430    -0.6044570     0.0238790
  C        0.0782130     0.1386370     0.0349560
  C       -0.7695060    -0.9522330     0.1212440
  C       -2.2969850     0.7606620    -0.1265510
  C        1.5543500     0.2131940     0.1149440
  C       -3.1982565    -1.5234930     0.0870529
  C        3.6575090    -0.9906510    -0.1565210
  H       -0.4188890    -1.9677560     0.2899290
  H       -3.2284760     1.3059560    -0.2284190
  H       -3.2707310    -2.1282860     1.0440440
  H       -4.2368380    -1.0812090    -0.0045560
  H       -3.2021610    -2.3307440    -0.7101950
  H        1.7010110    -1.6882330    -0.6139760
  H        4.0494680    -0.5484410    -1.0790020
  H        3.9975300    -2.0243190    -0.0750760
  H        4.0378180    -0.4153140     0.6868970
units angstrom
no_reorient  #important for SAPT in psi4, default
symmetry c1  #important for SAPT in psi4, default
}

set PROPERTIES_ORIGIN ["COM"]
properties('MP2/aug-cc-pvtz', properties = ['dipole'])
--------------------------------------------------------------------------

    Molecular point group: c1
  Charge       = 0
  Multiplicity = 1
  Basis Set: AUG-CC-PVTZ
    Blend: AUG-CC-PVTZ
  Basis Set: (AUG-CC-PVTZ AUX)
    Blend: AUG-CC-PVTZ-JKFIT

    Orbital Energies [Eh]
    ---------------------

    Doubly Occupied:

       1A    -91.990851     2A    -20.522449     3A    -15.589831
       4A    -11.361406     5A    -11.275835     6A    -11.269804
       7A    -11.260956     8A    -11.257604     9A    -11.249233
      10A    -11.242115    11A     -8.990622    12A     -6.671492
      13A     -6.670940    14A     -6.670229    15A     -1.376877
      16A     -1.232236    17A     -1.187673    18A     -1.060129
      19A     -1.008698    20A     -0.954299    21A     -0.918335
      22A     -0.829745    23A     -0.769796    24A     -0.752319
      25A     -0.712344    26A     -0.644539    27A     -0.635949
      28A     -0.624052    29A     -0.592366    30A     -0.584635
      31A     -0.577431    32A     -0.552356    33A     -0.548320
      34A     -0.532561    35A     -0.515780    36A     -0.496461
      37A     -0.477846    38A     -0.435665    39A     -0.399240
      40A     -0.347778    41A     -0.326407

  @DF-RHF Final Energy:  -797.30708888425568

   => Energetics <=

    Nuclear Repulsion Energy =            589.8092657349627643
    One-Electron Energy =               -2263.9982957954675840
    Two-Electron Energy =                 876.8819411762491427
    Total Energy =                       -797.3070888842556769
  Basis Set: (AUG-CC-PVTZ AUX)
    Blend: AUG-CC-PVTZ-RI
    Molecular point group: c1

    Geometry (in Angstrom), charge = 0, multiplicity = 1:

       Center              X                  Y                   Z               Mass
    ------------   -----------------  -----------------  -----------------  -----------------
         S           -0.814984740201     1.531710578942    -0.144032361836    31.972071174400
         O            2.136818259799     1.189797578942     0.381686638164    15.994914619570
         N            2.195373259799    -1.044078421058    -0.115164361836    14.003074004430
         C           -2.151051740201    -0.678796421058     0.019799638164    12.000000000000
         C            0.068604259799     0.064297578942     0.030876638164    12.000000000000
         C           -0.779114740201    -1.026572421058     0.117164638164    12.000000000000
         C           -2.306593740201     0.686322578942    -0.130630361836    12.000000000000
         C            1.544741259799     0.138854578942     0.110864638164    12.000000000000
         C           -3.207865240201    -1.597832421058     0.082973538164    12.000000000000
         C            3.647900259799    -1.064990421058    -0.160600361836    12.000000000000
         H           -0.428497740201    -2.042095421058     0.285849638164     1.007825032230
         H           -3.238084740201     1.231616578942    -0.232498361836     1.007825032230
         H           -3.280339740201    -2.202625421058     1.039964638164     1.007825032230
         H           -4.246446740201    -1.155548421058    -0.008635361836     1.007825032230
         H           -3.211769740201    -2.405083421058    -0.714274361836     1.007825032230
         H            1.691402259799    -1.762572421058    -0.618055361836     1.007825032230
         H            4.039859259799    -0.622780421058    -1.083081361836     1.007825032230
         H            3.987921259799    -2.098658421058    -0.079155361836     1.007825032230
         H            4.028209259799    -0.489653421058     0.682817638164     1.007825032230

  Basis Set: AUG-CC-PVTZ
    Blend: AUG-CC-PVTZ
  Basis Set: (AUG-CC-PVTZ AUX)
    Blend: AUG-CC-PVTZ-JKFIT
	 Reference Energy          =    -797.3070888842556769 [Eh]
	 Singles Energy            =      -0.0000000000000000 [Eh]
	 Same-Spin Energy          =      -0.4882057918306471 [Eh]
	 Opposite-Spin Energy      =      -1.5052370374942770 [Eh]
	 Correlation Energy        =      -1.9934428293249240 [Eh]
	 Total Energy              =    -799.3005317135806536 [Eh]

	 ================> DF-SCS-MP2 Energies <==================
	-----------------------------------------------------------
	 SCS Same-Spin Scale       =       0.3333333333333333 [-]
	 SCS Opposite-Spin Scale   =       1.2000000000000000 [-]
	 SCS Same-Spin Energy      =      -0.1627352639435490 [Eh]
	 SCS Opposite-Spin Energy  =      -1.8062844449931323 [Eh]
	 SCS Correlation Energy    =      -1.9690197089366814 [Eh]
	 SCS Total Energy          =    -799.2761085931923617 [Eh]
	-----------------------------------------------------------

  Dipole Moment: [D]
     X:    -1.4584      Y:    -3.7339      Z:    -1.1450     Total:     4.1689

*** Psi4 exiting successfully. Buy a developer a beer!
