                               Psi4 1.4a3.dev225

  ==> Input File <==

--------------------------------------------------------------------------
#psi4
#
memory 32 gb

molecule  {
0 1
  S       -0.8053760     1.6060500    -0.1399530
  O        2.1082325     1.2839899     0.3887894
  N        2.2049820    -0.9697390    -0.1110850
  C       -2.1414430    -0.6044570     0.0238790
  C        0.0782130     0.1386370     0.0349560
  C       -0.7695060    -0.9522330     0.1212440
  C       -2.2969850     0.7606620    -0.1265510
  C        1.5543500     0.2131940     0.1149440
  C       -3.2736380    -1.5890470     0.0915590
  C        3.6575090    -0.9906510    -0.1565210
  H       -0.4188890    -1.9677560     0.2899290
  H       -3.2284760     1.3059560    -0.2284190
  H       -3.2707310    -2.1282860     1.0440440
  H       -4.2368380    -1.0812090    -0.0045560
  H       -3.2021610    -2.3307440    -0.7101950
  H        1.7010110    -1.6882330    -0.6139760
  H        4.0494680    -0.5484410    -1.0790020
  H        3.9975300    -2.0243190    -0.0750760
  H        4.0378180    -0.4153140     0.6868970
units angstrom
no_reorient  #important for SAPT in psi4, default
symmetry c1  #important for SAPT in psi4, default
}

set PROPERTIES_ORIGIN ["COM"]
properties('MP2/aug-cc-pvtz', properties = ['dipole'])
--------------------------------------------------------------------------

    Molecular point group: c1
  Charge       = 0
  Multiplicity = 1
  Basis Set: AUG-CC-PVTZ
    Blend: AUG-CC-PVTZ
  Basis Set: (AUG-CC-PVTZ AUX)
    Blend: AUG-CC-PVTZ-JKFIT

    Orbital Energies [Eh]
    ---------------------

    Doubly Occupied:

       1A    -91.989103     2A    -20.522823     3A    -15.591695
       4A    -11.361430     5A    -11.273249     6A    -11.267830
       7A    -11.262342     8A    -11.255780     9A    -11.252844
      10A    -11.237529    11A     -8.988842    12A     -6.669706
      13A     -6.669156    14A     -6.668444    15A     -1.376534
      16A     -1.234640    17A     -1.182291    18A     -1.045464
      19A     -1.006462    20A     -0.954394    21A     -0.922315
      22A     -0.828771    23A     -0.769809    24A     -0.748975
      25A     -0.707878    26A     -0.645349    27A     -0.629698
      28A     -0.620871    29A     -0.593185    30A     -0.590183
      31A     -0.567383    32A     -0.553631    33A     -0.549953
      34A     -0.533881    35A     -0.522810    36A     -0.500158
      37A     -0.477175    38A     -0.434497    39A     -0.400767
      40A     -0.347178    41A     -0.326522

  @DF-RHF Final Energy:  -797.31920761743936

   => Energetics <=

    Nuclear Repulsion Energy =            588.1666363049356505
    One-Electron Energy =               -2260.8085919598738656
    Two-Electron Energy =                 875.3227480374987408
    Total Energy =                       -797.3192076174393605
  Basis Set: (AUG-CC-PVTZ AUX)
    Blend: AUG-CC-PVTZ-RI
    Molecular point group: c1

    Geometry (in Angstrom), charge = 0, multiplicity = 1:

       Center              X                  Y                   Z               Mass
    ------------   -----------------  -----------------  -----------------  -----------------
         S           -0.805209901290     1.534736256779    -0.144693042334    31.972071174400
         O            2.108398598710     1.212676156779     0.384049357666    15.994914619570
         N            2.205148098710    -1.041052743221    -0.115825042334    14.003074004430
         C           -2.141276901290    -0.675770743221     0.019138957666    12.000000000000
         C            0.078379098710     0.067323256779     0.030215957666    12.000000000000
         C           -0.769339901290    -1.023546743221     0.116503957666    12.000000000000
         C           -2.296818901290     0.689348256779    -0.131291042334    12.000000000000
         C            1.554516098710     0.141880256779     0.110203957666    12.000000000000
         C           -3.273471901290    -1.660360743221     0.086818957666    12.000000000000
         C            3.657675098710    -1.061964743221    -0.161261042334    12.000000000000
         H           -0.418722901290    -2.039069743221     0.285188957666     1.007825032230
         H           -3.228309901290     1.234642256779    -0.233159042334     1.007825032230
         H           -3.270564901290    -2.199599743221     1.039303957666     1.007825032230
         H           -4.236671901290    -1.152522743221    -0.009296042334     1.007825032230
         H           -3.201994901290    -2.402057743221    -0.714935042334     1.007825032230
         H            1.701177098710    -1.759546743221    -0.618716042334     1.007825032230
         H            4.049634098710    -0.619754743221    -1.083742042334     1.007825032230
         H            3.997696098710    -2.095632743221    -0.079816042334     1.007825032230
         H            4.037984098710    -0.486627743221     0.682156957666     1.007825032230

  Basis Set: AUG-CC-PVTZ
    Blend: AUG-CC-PVTZ
  Basis Set: (AUG-CC-PVTZ AUX)
    Blend: AUG-CC-PVTZ-JKFIT
	 Reference Energy          =    -797.3192076174393605 [Eh]
	 Singles Energy            =      -0.0000000000000000 [Eh]
	 Same-Spin Energy          =      -0.4869694232243499 [Eh]
	 Opposite-Spin Energy      =      -1.5037875254875450 [Eh]
	 Correlation Energy        =      -1.9907569487118950 [Eh]
	 Total Energy              =    -799.3099645661512795 [Eh]

	 ================> DF-SCS-MP2 Energies <==================
	-----------------------------------------------------------
	 SCS Same-Spin Scale       =       0.3333333333333333 [-]
	 SCS Opposite-Spin Scale   =       1.2000000000000000 [-]
	 SCS Same-Spin Energy      =      -0.1623231410747833 [Eh]
	 SCS Opposite-Spin Energy  =      -1.8045450305850539 [Eh]
	 SCS Correlation Energy    =      -1.9668681716598371 [Eh]
	 SCS Total Energy          =    -799.2860757890991863 [Eh]
	-----------------------------------------------------------

  Dipole Moment: [D]
     X:    -1.3296      Y:    -3.7918      Z:    -1.1505     Total:     4.1796

*** Psi4 exiting successfully. Buy a developer a beer!
