                               Psi4 1.4a3.dev225

  ==> Input File <==

--------------------------------------------------------------------------
#psi4
#
memory 32 gb

molecule  {
0 1
  S       -0.8053760     1.6060500    -0.1399530
  O        2.1464270     1.2641370     0.3857660
  N        2.2049820    -0.9697390    -0.1110850
  C       -2.1414430    -0.6044570     0.0238790
  C        0.0782130     0.1386370     0.0349560
  C       -0.7695060    -0.9522330     0.1212440
  C       -2.2969850     0.7606620    -0.1265510
  C        1.5543500     0.2131940     0.1149440
  C       -3.2736380    -1.5890470     0.0915590
  C        3.6575090    -0.9906510    -0.1565210
  H       -0.4188890    -1.9677560     0.2899290
  H       -3.2284760     1.3059560    -0.2284190
  H       -3.2707310    -2.1282860     1.0440440
  H       -4.2368380    -1.0812090    -0.0045560
  H       -3.1988959    -2.3646255    -0.7468199
  H        1.7010110    -1.6882330    -0.6139760
  H        4.0494680    -0.5484410    -1.0790020
  H        3.9975300    -2.0243190    -0.0750760
  H        4.0378180    -0.4153140     0.6868970
units angstrom
no_reorient  #important for SAPT in psi4, default
symmetry c1  #important for SAPT in psi4, default
}

set PROPERTIES_ORIGIN ["COM"]
properties('MP2/aug-cc-pvtz', properties = ['dipole'])
--------------------------------------------------------------------------

    Molecular point group: c1
  Charge       = 0
  Multiplicity = 1
  Basis Set: AUG-CC-PVTZ
    Blend: AUG-CC-PVTZ
  Basis Set: (AUG-CC-PVTZ AUX)
    Blend: AUG-CC-PVTZ-JKFIT

    Orbital Energies [Eh]
    ---------------------

    Doubly Occupied:

       1A    -91.990631     2A    -20.522021     3A    -15.589482
       4A    -11.361016     5A    -11.275149     6A    -11.269515
       7A    -11.260721     8A    -11.257441     9A    -11.254427
      10A    -11.244250    11A     -8.990378    12A     -6.671246
      13A     -6.670695    14A     -6.669983    15A     -1.376480
      16A     -1.231866    17A     -1.183734    18A     -1.045607
      19A     -1.007278    20A     -0.953519    21A     -0.920600
      22A     -0.828745    23A     -0.768837    24A     -0.749877
      25A     -0.708724    26A     -0.644151    27A     -0.628748
      28A     -0.620375    29A     -0.593583    30A     -0.585473
      31A     -0.567310    32A     -0.551760    33A     -0.548798
      34A     -0.534661    35A     -0.522783    36A     -0.500230
      37A     -0.478255    38A     -0.434838    39A     -0.398949
      40A     -0.348298    41A     -0.327975

  @DF-RHF Final Energy:  -797.31745586131672

   => Energetics <=

    Nuclear Repulsion Energy =            587.7205628075703316
    One-Electron Energy =               -2259.8992167072324264
    Two-Electron Energy =                 874.8611980383453783
    Total Energy =                       -797.3174558613167164
  Basis Set: (AUG-CC-PVTZ AUX)
    Blend: AUG-CC-PVTZ-RI
    Molecular point group: c1

    Geometry (in Angstrom), charge = 0, multiplicity = 1:

       Center              X                  Y                   Z               Mass
    ------------   -----------------  -----------------  -----------------  -----------------
         S           -0.809171501485     1.537004645349    -0.144143053628    31.972071174400
         O            2.142631498515     1.195091645349     0.381575946372    15.994914619570
         N            2.201186498515    -1.038784354651    -0.115275053628    14.003074004430
         C           -2.145238501485    -0.673502354651     0.019688946372    12.000000000000
         C            0.074417498515     0.069591645349     0.030765946372    12.000000000000
         C           -0.773301501485    -1.021278354651     0.117053946372    12.000000000000
         C           -2.300780501485     0.691616645349    -0.130741053628    12.000000000000
         C            1.550554498515     0.144148645349     0.110753946372    12.000000000000
         C           -3.277433501485    -1.658092354651     0.087368946372    12.000000000000
         C            3.653713498515    -1.059696354651    -0.160711053628    12.000000000000
         H           -0.422684501485    -2.036801354651     0.285738946372     1.007825032230
         H           -3.232271501485     1.236910645349    -0.232609053628     1.007825032230
         H           -3.274526501485    -2.197331354651     1.039853946372     1.007825032230
         H           -4.240633501485    -1.150254354651    -0.008746053628     1.007825032230
         H           -3.202691401485    -2.433670854651    -0.751009953628     1.007825032230
         H            1.697215498515    -1.757278354651    -0.618166053628     1.007825032230
         H            4.045672498515    -0.617486354651    -1.083192053628     1.007825032230
         H            3.993734498515    -2.093364354651    -0.079266053628     1.007825032230
         H            4.034022498515    -0.484359354651     0.682706946372     1.007825032230

  Basis Set: AUG-CC-PVTZ
    Blend: AUG-CC-PVTZ
  Basis Set: (AUG-CC-PVTZ AUX)
    Blend: AUG-CC-PVTZ-JKFIT
	 Reference Energy          =    -797.3174558613167164 [Eh]
	 Singles Energy            =      -0.0000000000000000 [Eh]
	 Same-Spin Energy          =      -0.4869919197782230 [Eh]
	 Opposite-Spin Energy      =      -1.5040901810333369 [Eh]
	 Correlation Energy        =      -1.9910821008115600 [Eh]
	 Total Energy              =    -799.3085379621282982 [Eh]

	 ================> DF-SCS-MP2 Energies <==================
	-----------------------------------------------------------
	 SCS Same-Spin Scale       =       0.3333333333333333 [-]
	 SCS Opposite-Spin Scale   =       1.2000000000000000 [-]
	 SCS Same-Spin Energy      =      -0.1623306399260743 [Eh]
	 SCS Opposite-Spin Energy  =      -1.8049082172400042 [Eh]
	 SCS Correlation Energy    =      -1.9672388571660784 [Eh]
	 SCS Total Energy          =    -799.2846947184827968 [Eh]
	-----------------------------------------------------------

  Dipole Moment: [D]
     X:    -1.4769      Y:    -3.7224      Z:    -1.1314     Total:     4.1614

*** Psi4 exiting successfully. Buy a developer a beer!
