                               Psi4 1.4a3.dev225

  ==> Input File <==

--------------------------------------------------------------------------
#psi4
#
memory 32 gb

molecule  {
0 1
  S       -0.7532925     1.6359983    -0.1414844
  O        2.1464270     1.2641370     0.3857660
  N        2.2049820    -0.9697390    -0.1110850
  C       -2.1414430    -0.6044570     0.0238790
  C        0.0782130     0.1386370     0.0349560
  C       -0.7695060    -0.9522330     0.1212440
  C       -2.2969850     0.7606620    -0.1265510
  C        1.5543500     0.2131940     0.1149440
  C       -3.2736380    -1.5890470     0.0915590
  C        3.6575090    -0.9906510    -0.1565210
  H       -0.4188890    -1.9677560     0.2899290
  H       -3.2284760     1.3059560    -0.2284190
  H       -3.2707310    -2.1282860     1.0440440
  H       -4.2368380    -1.0812090    -0.0045560
  H       -3.2021610    -2.3307440    -0.7101950
  H        1.7010110    -1.6882330    -0.6139760
  H        4.0494680    -0.5484410    -1.0790020
  H        3.9975300    -2.0243190    -0.0750760
  H        4.0378180    -0.4153140     0.6868970
units angstrom
no_reorient  #important for SAPT in psi4, default
symmetry c1  #important for SAPT in psi4, default
}

set PROPERTIES_ORIGIN ["COM"]
properties('MP2/aug-cc-pvtz', properties = ['dipole'])
--------------------------------------------------------------------------

    Molecular point group: c1
  Charge       = 0
  Multiplicity = 1
  Basis Set: AUG-CC-PVTZ
    Blend: AUG-CC-PVTZ
  Basis Set: (AUG-CC-PVTZ AUX)
    Blend: AUG-CC-PVTZ-JKFIT

    Orbital Energies [Eh]
    ---------------------

    Doubly Occupied:

       1A    -91.991385     2A    -20.522563     3A    -15.589423
       4A    -11.360525     5A    -11.276493     6A    -11.272954
       7A    -11.260666     8A    -11.258012     9A    -11.256138
      10A    -11.239585    11A     -8.989939    12A     -6.670766
      13A     -6.670113    14A     -6.669483    15A     -1.377052
      16A     -1.231863    17A     -1.177193    18A     -1.048161
      19A     -0.999097    20A     -0.953871    21A     -0.924634
      22A     -0.829155    23A     -0.768877    24A     -0.747345
      25A     -0.708552    26A     -0.644060    27A     -0.629138
      28A     -0.618647    29A     -0.594732    30A     -0.591229
      31A     -0.566303    32A     -0.551621    33A     -0.549161
      34A     -0.534984    35A     -0.519093    36A     -0.496865
      37A     -0.478552    38A     -0.434943    39A     -0.399121
      40A     -0.347621    41A     -0.328084

  @DF-RHF Final Energy:  -797.31661083134236

   => Energetics <=

    Nuclear Repulsion Energy =            586.6933428707883422
    One-Electron Energy =               -2257.8639144928442875
    Two-Electron Energy =                 873.8539607907134723
    Total Energy =                       -797.3166108313423592
  Basis Set: (AUG-CC-PVTZ AUX)
    Blend: AUG-CC-PVTZ-RI
    Molecular point group: c1

    Geometry (in Angstrom), charge = 0, multiplicity = 1:

       Center              X                  Y                   Z               Mass
    ------------   -----------------  -----------------  -----------------  -----------------
         S           -0.767807309533     1.560556836601    -0.145596728517    31.972071174400
         O            2.131912190467     1.188695536601     0.381653671483    15.994914619570
         N            2.190467190467    -1.045180463399    -0.115197328517    14.003074004430
         C           -2.155957809533    -0.679898463399     0.019766671483    12.000000000000
         C            0.063698190467     0.063195536601     0.030843671483    12.000000000000
         C           -0.784020809533    -1.027674463399     0.117131671483    12.000000000000
         C           -2.311499809533     0.685220536601    -0.130663328517    12.000000000000
         C            1.539835190467     0.137752536601     0.110831671483    12.000000000000
         C           -3.288152809533    -1.664488463399     0.087446671483    12.000000000000
         C            3.642994190467    -1.066092463399    -0.160633328517    12.000000000000
         H           -0.433403809533    -2.043197463399     0.285816671483     1.007825032230
         H           -3.242990809533     1.230514536601    -0.232531328517     1.007825032230
         H           -3.285245809533    -2.203727463399     1.039931671483     1.007825032230
         H           -4.251352809533    -1.156650463399    -0.008668328517     1.007825032230
         H           -3.216675809533    -2.406185463399    -0.714307328517     1.007825032230
         H            1.686496190467    -1.763674463399    -0.618088328517     1.007825032230
         H            4.034953190467    -0.623882463399    -1.083114328517     1.007825032230
         H            3.983015190467    -2.099760463399    -0.079188328517     1.007825032230
         H            4.023303190467    -0.490755463399     0.682784671483     1.007825032230

  Basis Set: AUG-CC-PVTZ
    Blend: AUG-CC-PVTZ
  Basis Set: (AUG-CC-PVTZ AUX)
    Blend: AUG-CC-PVTZ-JKFIT
	 Reference Energy          =    -797.3166108313423592 [Eh]
	 Singles Energy            =      -0.0000000000000000 [Eh]
	 Same-Spin Energy          =      -0.4866568171441111 [Eh]
	 Opposite-Spin Energy      =      -1.5046164176810612 [Eh]
	 Correlation Energy        =      -1.9912732348251723 [Eh]
	 Total Energy              =    -799.3078840661675031 [Eh]

	 ================> DF-SCS-MP2 Energies <==================
	-----------------------------------------------------------
	 SCS Same-Spin Scale       =       0.3333333333333333 [-]
	 SCS Opposite-Spin Scale   =       1.2000000000000000 [-]
	 SCS Same-Spin Energy      =      -0.1622189390480370 [Eh]
	 SCS Opposite-Spin Energy  =      -1.8055397012172734 [Eh]
	 SCS Correlation Energy    =      -1.9677586402653104 [Eh]
	 SCS Total Energy          =    -799.2843694716076470 [Eh]
	-----------------------------------------------------------

  Dipole Moment: [D]
     X:    -1.4665      Y:    -3.7891      Z:    -1.1365     Total:     4.2190

*** Psi4 exiting successfully. Buy a developer a beer!
