                               Psi4 1.4a3.dev225

  ==> Input File <==

--------------------------------------------------------------------------
#psi4
#
memory 32 gb

molecule  {
0 1
  S       -0.8053760     1.6060500    -0.1399530
  O        2.1464270     1.2641370     0.3857660
  N        2.2049820    -0.9697390    -0.1110850
  C       -2.1414430    -0.6044570     0.0238790
  C        0.0782130     0.1386370     0.0349560
  C       -0.7695060    -0.9522330     0.1212440
  C       -2.3194921     0.9581958    -0.1483183
  C        1.5543500     0.2131940     0.1149440
  C       -3.2736380    -1.5890470     0.0915590
  C        3.6575090    -0.9906510    -0.1565210
  H       -0.4188890    -1.9677560     0.2899290
  H       -3.2284760     1.3059560    -0.2284190
  H       -3.2707310    -2.1282860     1.0440440
  H       -4.2368380    -1.0812090    -0.0045560
  H       -3.2021610    -2.3307440    -0.7101950
  H        1.7010110    -1.6882330    -0.6139760
  H        4.0494680    -0.5484410    -1.0790020
  H        3.9975300    -2.0243190    -0.0750760
  H        4.0378180    -0.4153140     0.6868970
units angstrom
no_reorient  #important for SAPT in psi4, default
symmetry c1  #important for SAPT in psi4, default
}

set PROPERTIES_ORIGIN ["COM"]
properties('MP2/aug-cc-pvtz', properties = ['dipole'])
--------------------------------------------------------------------------

    Molecular point group: c1
  Charge       = 0
  Multiplicity = 1
  Basis Set: AUG-CC-PVTZ
    Blend: AUG-CC-PVTZ
  Basis Set: (AUG-CC-PVTZ AUX)
    Blend: AUG-CC-PVTZ-JKFIT

    Orbital Energies [Eh]
    ---------------------

    Doubly Occupied:

       1A    -92.004182     2A    -20.519175     3A    -15.588966
       4A    -11.360558     5A    -11.278405     6A    -11.272172
       7A    -11.271443     8A    -11.260380     9A    -11.256937
      10A    -11.237895    11A     -9.003586    12A     -6.684551
      13A     -6.683979    14A     -6.683468    15A     -1.374709
      16A     -1.231091    17A     -1.174449    18A     -1.038899
      19A     -1.020744    20A     -0.954948    21A     -0.914116
      22A     -0.829350    23A     -0.775211    24A     -0.748861
      25A     -0.706204    26A     -0.648928    27A     -0.627619
      28A     -0.627110    29A     -0.593785    30A     -0.586651
      31A     -0.575179    32A     -0.552038    33A     -0.548902
      34A     -0.542095    35A     -0.521972    36A     -0.499791
      37A     -0.462734    38A     -0.431605    39A     -0.398545
      40A     -0.359462    41A     -0.301618

  @DF-RHF Final Energy:  -797.27258645977213

   => Energetics <=

    Nuclear Repulsion Energy =            586.0072932094490170
    One-Electron Energy =               -2256.2551349201044104
    Two-Electron Energy =                 872.9752552508832650
    Total Energy =                       -797.2725864597721284
  Basis Set: (AUG-CC-PVTZ AUX)
    Blend: AUG-CC-PVTZ-RI
    Molecular point group: c1

    Geometry (in Angstrom), charge = 0, multiplicity = 1:

       Center              X                  Y                   Z               Mass
    ------------   -----------------  -----------------  -----------------  -----------------
         S           -0.807408246879     1.521495456104    -0.142696359825    31.972071174400
         O            2.144394753121     1.179582456104     0.383022640175    15.994914619570
         N            2.202949753121    -1.054293543896    -0.113828359825    14.003074004430
         C           -2.143475246879    -0.689011543896     0.021135640175    12.000000000000
         C            0.076180753121     0.054082456104     0.032212640175    12.000000000000
         C           -0.771538246879    -1.036787543896     0.118500640175    12.000000000000
         C           -2.321524346879     0.873641256104    -0.151061659825    12.000000000000
         C            1.552317753121     0.128639456104     0.112200640175    12.000000000000
         C           -3.275670246879    -1.673601543896     0.088815640175    12.000000000000
         C            3.655476753121    -1.075205543896    -0.159264359825    12.000000000000
         H           -0.420921246879    -2.052310543896     0.287185640175     1.007825032230
         H           -3.230508246879     1.221401456104    -0.231162359825     1.007825032230
         H           -3.272763246879    -2.212840543896     1.041300640175     1.007825032230
         H           -4.238870246879    -1.165763543896    -0.007299359825     1.007825032230
         H           -3.204193246879    -2.415298543896    -0.712938359825     1.007825032230
         H            1.698978753121    -1.772787543896    -0.616719359825     1.007825032230
         H            4.047435753121    -0.632995543896    -1.081745359825     1.007825032230
         H            3.995497753121    -2.108873543896    -0.077819359825     1.007825032230
         H            4.035785753121    -0.499868543896     0.684153640175     1.007825032230

  Basis Set: AUG-CC-PVTZ
    Blend: AUG-CC-PVTZ
  Basis Set: (AUG-CC-PVTZ AUX)
    Blend: AUG-CC-PVTZ-JKFIT
	 Reference Energy          =    -797.2725864597721284 [Eh]
	 Singles Energy            =      -0.0000000000000000 [Eh]
	 Same-Spin Energy          =      -0.4910140217511042 [Eh]
	 Opposite-Spin Energy      =      -1.5095107269083079 [Eh]
	 Correlation Energy        =      -2.0005247486594122 [Eh]
	 Total Energy              =    -799.2731112084314873 [Eh]

	 ================> DF-SCS-MP2 Energies <==================
	-----------------------------------------------------------
	 SCS Same-Spin Scale       =       0.3333333333333333 [-]
	 SCS Opposite-Spin Scale   =       1.2000000000000000 [-]
	 SCS Same-Spin Energy      =      -0.1636713405837014 [Eh]
	 SCS Opposite-Spin Energy  =      -1.8114128722899694 [Eh]
	 SCS Correlation Energy    =      -1.9750842128736708 [Eh]
	 SCS Total Energy          =    -799.2476706726457678 [Eh]
	-----------------------------------------------------------

  Dipole Moment: [D]
     X:    -1.4628      Y:    -3.7865      Z:    -1.1391     Total:     4.2160

*** Psi4 exiting successfully. Buy a developer a beer!
