                               Psi4 1.4a3.dev225

  ==> Input File <==

--------------------------------------------------------------------------
#psi4
#
memory 32 gb

molecule  {
0 1
  S       -0.7909230     1.5800739    -0.1365133
  O        2.1464270     1.2641370     0.3857660
  N        2.2049820    -0.9697390    -0.1110850
  C       -2.1414430    -0.6044570     0.0238790
  C        0.0782130     0.1386370     0.0349560
  C       -0.7695060    -0.9522330     0.1212440
  C       -2.2969850     0.7606620    -0.1265510
  C        1.5543500     0.2131940     0.1149440
  C       -3.2736380    -1.5890470     0.0915590
  C        3.6575090    -0.9906510    -0.1565210
  H       -0.4188890    -1.9677560     0.2899290
  H       -3.2284760     1.3059560    -0.2284190
  H       -3.2707310    -2.1282860     1.0440440
  H       -4.2368380    -1.0812090    -0.0045560
  H       -3.2021610    -2.3307440    -0.7101950
  H        1.7010110    -1.6882330    -0.6139760
  H        4.0494680    -0.5484410    -1.0790020
  H        3.9975300    -2.0243190    -0.0750760
  H        4.0378180    -0.4153140     0.6868970
units angstrom
no_reorient  #important for SAPT in psi4, default
symmetry c1  #important for SAPT in psi4, default
}

set PROPERTIES_ORIGIN ["COM"]
properties('MP2/aug-cc-pvtz', properties = ['dipole'])
--------------------------------------------------------------------------

    Molecular point group: c1
  Charge       = 0
  Multiplicity = 1
  Basis Set: AUG-CC-PVTZ
    Blend: AUG-CC-PVTZ
  Basis Set: (AUG-CC-PVTZ AUX)
    Blend: AUG-CC-PVTZ-JKFIT

    Orbital Energies [Eh]
    ---------------------

    Doubly Occupied:

       1A    -91.989412     2A    -20.522406     3A    -15.589665
       4A    -11.361390     5A    -11.272672     6A    -11.268284
       7A    -11.260830     8A    -11.255556     9A    -11.253787
      10A    -11.238023    11A     -8.989850    12A     -6.670740
      13A     -6.670222    14A     -6.669461    15A     -1.376983
      16A     -1.232102    17A     -1.187150    18A     -1.049095
      19A     -1.006212    20A     -0.953856    21A     -0.924913
      22A     -0.828708    23A     -0.768626    24A     -0.750410
      25A     -0.708679    26A     -0.644642    27A     -0.629350
      28A     -0.621879    29A     -0.593594    30A     -0.590910
      31A     -0.568496    32A     -0.552162    33A     -0.550439
      34A     -0.534451    35A     -0.526595    36A     -0.502219
      37A     -0.476661    38A     -0.435198    39A     -0.399123
      40A     -0.346116    41A     -0.329723

  @DF-RHF Final Energy:  -797.31927947701627

   => Energetics <=

    Nuclear Repulsion Energy =            589.3176262994326180
    One-Electron Energy =               -2263.0726347347022056
    Two-Electron Energy =                 876.4357289582534349
    Total Energy =                       -797.3192794770162664
  Basis Set: (AUG-CC-PVTZ AUX)
    Blend: AUG-CC-PVTZ-RI
    Molecular point group: c1

    Geometry (in Angstrom), charge = 0, multiplicity = 1:

       Center              X                  Y                   Z               Mass
    ------------   -----------------  -----------------  -----------------  -----------------
         S           -0.797677739486     1.516165030143    -0.141650756650    31.972071174400
         O            2.139672260514     1.200228130143     0.380628543350    15.994914619570
         N            2.198227260514    -1.033647869857    -0.116222456650    14.003074004430
         C           -2.148197739486    -0.668365869857     0.018741543350    12.000000000000
         C            0.071458260514     0.074728130143     0.029818543350    12.000000000000
         C           -0.776260739486    -1.016141869857     0.116106543350    12.000000000000
         C           -2.303739739486     0.696753130143    -0.131688456650    12.000000000000
         C            1.547595260514     0.149285130143     0.109806543350    12.000000000000
         C           -3.280392739486    -1.652955869857     0.086421543350    12.000000000000
         C            3.650754260514    -1.054559869857    -0.161658456650    12.000000000000
         H           -0.425643739486    -2.031664869857     0.284791543350     1.007825032230
         H           -3.235230739486     1.242047130143    -0.233556456650     1.007825032230
         H           -3.277485739486    -2.192194869857     1.038906543350     1.007825032230
         H           -4.243592739486    -1.145117869857    -0.009693456650     1.007825032230
         H           -3.208915739486    -2.394652869857    -0.715332456650     1.007825032230
         H            1.694256260514    -1.752141869857    -0.619113456650     1.007825032230
         H            4.042713260514    -0.612349869857    -1.084139456650     1.007825032230
         H            3.990775260514    -2.088227869857    -0.080213456650     1.007825032230
         H            4.031063260514    -0.479222869857     0.681759543350     1.007825032230

  Basis Set: AUG-CC-PVTZ
    Blend: AUG-CC-PVTZ
  Basis Set: (AUG-CC-PVTZ AUX)
    Blend: AUG-CC-PVTZ-JKFIT
	 Reference Energy          =    -797.3192794770162664 [Eh]
	 Singles Energy            =      -0.0000000000000000 [Eh]
	 Same-Spin Energy          =      -0.4873349772501589 [Eh]
	 Opposite-Spin Energy      =      -1.5036384348169871 [Eh]
	 Correlation Energy        =      -1.9909734120671461 [Eh]
	 Total Energy              =    -799.3102528890833582 [Eh]

	 ================> DF-SCS-MP2 Energies <==================
	-----------------------------------------------------------
	 SCS Same-Spin Scale       =       0.3333333333333333 [-]
	 SCS Opposite-Spin Scale   =       1.2000000000000000 [-]
	 SCS Same-Spin Energy      =      -0.1624449924167196 [Eh]
	 SCS Opposite-Spin Energy  =      -1.8043661217803844 [Eh]
	 SCS Correlation Energy    =      -1.9668111141971041 [Eh]
	 SCS Total Energy          =    -799.2860905912133376 [Eh]
	-----------------------------------------------------------

  Dipole Moment: [D]
     X:    -1.4779      Y:    -3.7359      Z:    -1.1462     Total:     4.1779

*** Psi4 exiting successfully. Buy a developer a beer!
