                               Psi4 1.4a3.dev225

  ==> Input File <==

--------------------------------------------------------------------------
#psi4
#
memory 32 gb

molecule  {
0 1
  S       -0.8053760     1.6060500    -0.1399530
  O        2.1464270     1.2641370     0.3857660
  N        2.2049820    -0.9697390    -0.1110850
  C       -2.1414430    -0.6044570     0.0238790
  C        0.0782130     0.1386370     0.0349560
  C       -0.8070693    -0.9224496     0.1152117
  C       -2.2969850     0.7606620    -0.1265510
  C        1.5543500     0.2131940     0.1149440
  C       -3.2736380    -1.5890470     0.0915590
  C        3.6575090    -0.9906510    -0.1565210
  H       -0.4188890    -1.9677560     0.2899290
  H       -3.2284760     1.3059560    -0.2284190
  H       -3.2707310    -2.1282860     1.0440440
  H       -4.2368380    -1.0812090    -0.0045560
  H       -3.2021610    -2.3307440    -0.7101950
  H        1.7010110    -1.6882330    -0.6139760
  H        4.0494680    -0.5484410    -1.0790020
  H        3.9975300    -2.0243190    -0.0750760
  H        4.0378180    -0.4153140     0.6868970
units angstrom
no_reorient  #important for SAPT in psi4, default
symmetry c1  #important for SAPT in psi4, default
}

set PROPERTIES_ORIGIN ["COM"]
properties('MP2/aug-cc-pvtz', properties = ['dipole'])
--------------------------------------------------------------------------

    Molecular point group: c1
  Charge       = 0
  Multiplicity = 1
  Basis Set: AUG-CC-PVTZ
    Blend: AUG-CC-PVTZ
  Basis Set: (AUG-CC-PVTZ AUX)
    Blend: AUG-CC-PVTZ-JKFIT

    Orbital Energies [Eh]
    ---------------------

    Doubly Occupied:

       1A    -91.991394     2A    -20.521809     3A    -15.589327
       4A    -11.361733     5A    -11.273066     6A    -11.270381
       7A    -11.260552     8A    -11.256411     9A    -11.249692
      10A    -11.238913    11A     -8.991036    12A     -6.671853
      13A     -6.671364    14A     -6.670675    15A     -1.376341
      16A     -1.231643    17A     -1.189588    18A     -1.048937
      19A     -1.005584    20A     -0.955313    21A     -0.924909
      22A     -0.828653    23A     -0.769831    24A     -0.748415
      25A     -0.708043    26A     -0.643935    27A     -0.629376
      28A     -0.621557    29A     -0.593448    30A     -0.591747
      31A     -0.564773    32A     -0.551450    33A     -0.549525
      34A     -0.539328    35A     -0.519027    36A     -0.502711
      37A     -0.476770    38A     -0.435618    39A     -0.398847
      40A     -0.351087    41A     -0.326654

  @DF-RHF Final Energy:  -797.31550177854490

   => Energetics <=

    Nuclear Repulsion Energy =            588.5433252056366200
    One-Electron Energy =               -2261.5150216455863301
    Two-Electron Energy =                 875.6561946614048111
    Total Energy =                       -797.3155017785448990
  Basis Set: (AUG-CC-PVTZ AUX)
    Blend: AUG-CC-PVTZ-RI
    Molecular point group: c1

    Geometry (in Angstrom), charge = 0, multiplicity = 1:

       Center              X                  Y                   Z               Mass
    ------------   -----------------  -----------------  -----------------  -----------------
         S           -0.806242909968     1.534479192570    -0.143914235271    31.972071174400
         O            2.145560090032     1.192566192570     0.381804764729    15.994914619570
         N            2.204115090032    -1.041309807430    -0.115046235271    14.003074004430
         C           -2.142309909968    -0.676027807430     0.019917764729    12.000000000000
         C            0.077346090032     0.067066192570     0.030994764729    12.000000000000
         C           -0.807936209968    -0.994020407430     0.111250464729    12.000000000000
         C           -2.297851909968     0.689091192570    -0.130512235271    12.000000000000
         C            1.553483090032     0.141623192570     0.110982764729    12.000000000000
         C           -3.274504909968    -1.660617807430     0.087597764729    12.000000000000
         C            3.656642090032    -1.062221807430    -0.160482235271    12.000000000000
         H           -0.419755909968    -2.039326807430     0.285967764729     1.007825032230
         H           -3.229342909968     1.234385192570    -0.232380235271     1.007825032230
         H           -3.271597909968    -2.199856807430     1.040082764729     1.007825032230
         H           -4.237704909968    -1.152779807430    -0.008517235271     1.007825032230
         H           -3.203027909968    -2.402314807430    -0.714156235271     1.007825032230
         H            1.700144090032    -1.759803807430    -0.617937235271     1.007825032230
         H            4.048601090032    -0.620011807430    -1.082963235271     1.007825032230
         H            3.996663090032    -2.095889807430    -0.079037235271     1.007825032230
         H            4.036951090032    -0.486884807430     0.682935764729     1.007825032230

  Basis Set: AUG-CC-PVTZ
    Blend: AUG-CC-PVTZ
  Basis Set: (AUG-CC-PVTZ AUX)
    Blend: AUG-CC-PVTZ-JKFIT
	 Reference Energy          =    -797.3155017785448990 [Eh]
	 Singles Energy            =      -0.0000000000000000 [Eh]
	 Same-Spin Energy          =      -0.4879216962297132 [Eh]
	 Opposite-Spin Energy      =      -1.5045205910628874 [Eh]
	 Correlation Energy        =      -1.9924422872926006 [Eh]
	 Total Energy              =    -799.3079440658375461 [Eh]

	 ================> DF-SCS-MP2 Energies <==================
	-----------------------------------------------------------
	 SCS Same-Spin Scale       =       0.3333333333333333 [-]
	 SCS Opposite-Spin Scale   =       1.2000000000000000 [-]
	 SCS Same-Spin Energy      =      -0.1626405654099044 [Eh]
	 SCS Opposite-Spin Energy  =      -1.8054247092754647 [Eh]
	 SCS Correlation Energy    =      -1.9680652746853691 [Eh]
	 SCS Total Energy          =    -799.2835670532302856 [Eh]
	-----------------------------------------------------------

  Dipole Moment: [D]
     X:    -1.4920      Y:    -3.7366      Z:    -1.1500     Total:     4.1846

*** Psi4 exiting successfully. Buy a developer a beer!
