                               Psi4 1.4a3.dev225

  ==> Input File <==

--------------------------------------------------------------------------
#psi4
#
memory 32 gb

molecule  {
0 1
  S       -0.8053760     1.6060500    -0.1399530
  O        2.1464270     1.2641370     0.3857660
  N        2.2049820    -0.9697390    -0.1110850
  C       -2.1414430    -0.6044570     0.0238790
  C        0.0782130     0.1386370     0.0349560
  C       -0.7695060    -0.9522330     0.1212440
  C       -2.2969850     0.7606620    -0.1265510
  C        1.5543500     0.2131940     0.1149440
  C       -3.2736380    -1.5890470     0.0915590
  C        3.6575090    -0.9906510    -0.1565210
  H       -0.4188890    -1.9677560     0.2899290
  H       -3.2284760     1.3059560    -0.2284190
  H       -3.2707310    -2.1282860     1.0440440
  H       -4.2368380    -1.0812090    -0.0045560
  H       -3.2152216    -2.1952181    -0.5636953
  H        1.7010110    -1.6882330    -0.6139760
  H        4.0494680    -0.5484410    -1.0790020
  H        3.9975300    -2.0243190    -0.0750760
  H        4.0378180    -0.4153140     0.6868970
units angstrom
no_reorient  #important for SAPT in psi4, default
symmetry c1  #important for SAPT in psi4, default
}

set PROPERTIES_ORIGIN ["COM"]
properties('MP2/aug-cc-pvtz', properties = ['dipole'])
--------------------------------------------------------------------------

    Molecular point group: c1
  Charge       = 0
  Multiplicity = 1
  Basis Set: AUG-CC-PVTZ
    Blend: AUG-CC-PVTZ
  Basis Set: (AUG-CC-PVTZ AUX)
    Blend: AUG-CC-PVTZ-JKFIT

    Orbital Energies [Eh]
    ---------------------

    Doubly Occupied:

       1A    -91.989966     2A    -20.521584     3A    -15.589187
       4A    -11.360598     5A    -11.274534     6A    -11.268325
       7A    -11.260521     8A    -11.256951     9A    -11.252789
      10A    -11.213719    11A     -8.989712    12A     -6.670578
      13A     -6.670031    14A     -6.669323    15A     -1.376071
      16A     -1.231559    17A     -1.183445    18A     -1.055816
      19A     -1.008159    20A     -0.959861    21A     -0.933209
      22A     -0.829490    23A     -0.768462    24A     -0.751767
      25A     -0.709499    26A     -0.644479    27A     -0.637615
      28A     -0.624469    29A     -0.613059    30A     -0.591577
      31A     -0.568371    32A     -0.551567    33A     -0.550263
      34A     -0.534670    35A     -0.525235    36A     -0.501879
      37A     -0.478414    38A     -0.434378    39A     -0.398660
      40A     -0.348348    41A     -0.327889

  @DF-RHF Final Energy:  -797.28559665287742

   => Energetics <=

    Nuclear Repulsion Energy =            588.9253372597747784
    One-Electron Energy =               -2262.1698106534477120
    Two-Electron Energy =                 875.9588767407955174
    Total Energy =                       -797.2855966528774161
  Basis Set: (AUG-CC-PVTZ AUX)
    Blend: AUG-CC-PVTZ-RI
    Molecular point group: c1

    Geometry (in Angstrom), charge = 0, multiplicity = 1:

       Center              X                  Y                   Z               Mass
    ------------   -----------------  -----------------  -----------------  -----------------
         S           -0.809065377919     1.535903429636    -0.145333436615    31.972071174400
         O            2.142737622081     1.193990429636     0.380385563385    15.994914619570
         N            2.201292622081    -1.039885570364    -0.116465436615    14.003074004430
         C           -2.145132377919    -0.674603570364     0.018498563385    12.000000000000
         C            0.074523622081     0.068490429636     0.029575563385    12.000000000000
         C           -0.773195377919    -1.022379570364     0.115863563385    12.000000000000
         C           -2.300674377919     0.690515429636    -0.131931436615    12.000000000000
         C            1.550660622081     0.143047429636     0.109563563385    12.000000000000
         C           -3.277327377919    -1.659193570364     0.086178563385    12.000000000000
         C            3.653819622081    -1.060797570364    -0.161901436615    12.000000000000
         H           -0.422578377919    -2.037902570364     0.284548563385     1.007825032230
         H           -3.232165377919     1.235809429636    -0.233799436615     1.007825032230
         H           -3.274420377919    -2.198432570364     1.038663563385     1.007825032230
         H           -4.240527377919    -1.151355570364    -0.009936436615     1.007825032230
         H           -3.218910977919    -2.265364670364    -0.569075736615     1.007825032230
         H            1.697321622081    -1.758379570364    -0.619356436615     1.007825032230
         H            4.045778622081    -0.618587570364    -1.084382436615     1.007825032230
         H            3.993840622081    -2.094465570364    -0.080456436615     1.007825032230
         H            4.034128622081    -0.485460570364     0.681516563385     1.007825032230

  Basis Set: AUG-CC-PVTZ
    Blend: AUG-CC-PVTZ
  Basis Set: (AUG-CC-PVTZ AUX)
    Blend: AUG-CC-PVTZ-JKFIT
	 Reference Energy          =    -797.2855966528774161 [Eh]
	 Singles Energy            =      -0.0000000000000000 [Eh]
	 Same-Spin Energy          =      -0.4872055029678086 [Eh]
	 Opposite-Spin Energy      =      -1.5032808663227351 [Eh]
	 Correlation Energy        =      -1.9904863692905437 [Eh]
	 Total Energy              =    -799.2760830221679953 [Eh]

	 ================> DF-SCS-MP2 Energies <==================
	-----------------------------------------------------------
	 SCS Same-Spin Scale       =       0.3333333333333333 [-]
	 SCS Opposite-Spin Scale   =       1.2000000000000000 [-]
	 SCS Same-Spin Energy      =      -0.1624018343226029 [Eh]
	 SCS Opposite-Spin Energy  =      -1.8039370395872820 [Eh]
	 SCS Correlation Energy    =      -1.9663388739098848 [Eh]
	 SCS Total Energy          =    -799.2519355267872925 [Eh]
	-----------------------------------------------------------

  Dipole Moment: [D]
     X:    -1.5281      Y:    -3.8054      Z:    -1.1750     Total:     4.2658

*** Psi4 exiting successfully. Buy a developer a beer!
