                               Psi4 1.4a3.dev225

  ==> Input File <==

--------------------------------------------------------------------------
#psi4
#
memory 32 gb

molecule  {
0 1
  S       -0.8053760     1.6060500    -0.1399530
  O        2.2565007     1.1970004     0.3747328
  N        2.2049820    -0.9697390    -0.1110850
  C       -2.1414430    -0.6044570     0.0238790
  C        0.0782130     0.1386370     0.0349560
  C       -0.7695060    -0.9522330     0.1212440
  C       -2.2969850     0.7606620    -0.1265510
  C        1.5543500     0.2131940     0.1149440
  C       -3.2736380    -1.5890470     0.0915590
  C        3.6575090    -0.9906510    -0.1565210
  H       -0.4188890    -1.9677560     0.2899290
  H       -3.2284760     1.3059560    -0.2284190
  H       -3.2707310    -2.1282860     1.0440440
  H       -4.2368380    -1.0812090    -0.0045560
  H       -3.2021610    -2.3307440    -0.7101950
  H        1.7010110    -1.6882330    -0.6139760
  H        4.0494680    -0.5484410    -1.0790020
  H        3.9975300    -2.0243190    -0.0750760
  H        4.0378180    -0.4153140     0.6868970
units angstrom
no_reorient  #important for SAPT in psi4, default
symmetry c1  #important for SAPT in psi4, default
}

set PROPERTIES_ORIGIN ["COM"]
properties('MP2/aug-cc-pvtz', properties = ['dipole'])
--------------------------------------------------------------------------

    Molecular point group: c1
  Charge       = 0
  Multiplicity = 1
  Basis Set: AUG-CC-PVTZ
    Blend: AUG-CC-PVTZ
  Basis Set: (AUG-CC-PVTZ AUX)
    Blend: AUG-CC-PVTZ-JKFIT

    Orbital Energies [Eh]
    ---------------------

    Doubly Occupied:

       1A    -91.994093     2A    -20.518823     3A    -15.582436
       4A    -11.359552     5A    -11.280065     6A    -11.272834
       7A    -11.261487     8A    -11.257239     9A    -11.255437
      10A    -11.240490    11A     -8.993876    12A     -6.674753
      13A     -6.674199    14A     -6.673490    15A     -1.376955
      16A     -1.222788    17A     -1.186960    18A     -1.050067
      19A     -1.009805    20A     -0.953434    21A     -0.923678
      22A     -0.829001    23A     -0.765203    24A     -0.752897
      25A     -0.711118    26A     -0.640327    27A     -0.627638
      28A     -0.619655    29A     -0.596431    30A     -0.592914
      31A     -0.568810    32A     -0.547780    33A     -0.545558
      34A     -0.536729    35A     -0.525299    36A     -0.502179
      37A     -0.481470    38A     -0.433854    39A     -0.393077
      40A     -0.351276    41A     -0.331722

  @DF-RHF Final Energy:  -797.31597996634105

   => Energetics <=

    Nuclear Repulsion Energy =            587.4472437164527037
    One-Electron Energy =               -2259.2956578641960732
    Two-Electron Energy =                 874.5324341814023228
    Total Energy =                       -797.3159799663410467
  Basis Set: (AUG-CC-PVTZ AUX)
    Blend: AUG-CC-PVTZ-RI
    Molecular point group: c1

    Geometry (in Angstrom), charge = 0, multiplicity = 1:

       Center              X                  Y                   Z               Mass
    ------------   -----------------  -----------------  -----------------  -----------------
         S           -0.820506146000     1.543710619988    -0.143242878419    31.972071174400
         O            2.241370554000     1.134661019988     0.371442921581    15.994914619570
         N            2.189851854000    -1.032078380012    -0.114374878419    14.003074004430
         C           -2.156573146000    -0.666796380012     0.020589121581    12.000000000000
         C            0.063082854000     0.076297619988     0.031666121581    12.000000000000
         C           -0.784636146000    -1.014572380012     0.117954121581    12.000000000000
         C           -2.312115146000     0.698322619988    -0.129840878419    12.000000000000
         C            1.539219854000     0.150854619988     0.111654121581    12.000000000000
         C           -3.288768146000    -1.651386380012     0.088269121581    12.000000000000
         C            3.642378854000    -1.052990380012    -0.159810878419    12.000000000000
         H           -0.434019146000    -2.030095380012     0.286639121581     1.007825032230
         H           -3.243606146000     1.243616619988    -0.231708878419     1.007825032230
         H           -3.285861146000    -2.190625380012     1.040754121581     1.007825032230
         H           -4.251968146000    -1.143548380012    -0.007845878419     1.007825032230
         H           -3.217291146000    -2.393083380012    -0.713484878419     1.007825032230
         H            1.685880854000    -1.750572380012    -0.617265878419     1.007825032230
         H            4.034337854000    -0.610780380012    -1.082291878419     1.007825032230
         H            3.982399854000    -2.086658380012    -0.078365878419     1.007825032230
         H            4.022687854000    -0.477653380012     0.683607121581     1.007825032230

  Basis Set: AUG-CC-PVTZ
    Blend: AUG-CC-PVTZ
  Basis Set: (AUG-CC-PVTZ AUX)
    Blend: AUG-CC-PVTZ-JKFIT
	 Reference Energy          =    -797.3159799663410467 [Eh]
	 Singles Energy            =      -0.0000000000000000 [Eh]
	 Same-Spin Energy          =      -0.4873520216421615 [Eh]
	 Opposite-Spin Energy      =      -1.5041894968583651 [Eh]
	 Correlation Energy        =      -1.9915415185005267 [Eh]
	 Total Energy              =    -799.3075214848415726 [Eh]

	 ================> DF-SCS-MP2 Energies <==================
	-----------------------------------------------------------
	 SCS Same-Spin Scale       =       0.3333333333333333 [-]
	 SCS Opposite-Spin Scale   =       1.2000000000000000 [-]
	 SCS Same-Spin Energy      =      -0.1624506738807205 [Eh]
	 SCS Opposite-Spin Energy  =      -1.8050273962300381 [Eh]
	 SCS Correlation Energy    =      -1.9674780701107586 [Eh]
	 SCS Total Energy          =    -799.2834580364518615 [Eh]
	-----------------------------------------------------------

  Dipole Moment: [D]
     X:    -1.9553      Y:    -3.5899      Z:    -1.1215     Total:     4.2389

*** Psi4 exiting successfully. Buy a developer a beer!
