                               Psi4 1.4a3.dev225

  ==> Input File <==

--------------------------------------------------------------------------
#psi4
#
memory 32 gb

molecule  {
0 1
  S       -0.8053760     1.6060500    -0.1399530
  O        2.1464270     1.2641370     0.3857660
  N        2.2049820    -0.9697390    -0.1110850
  C       -2.1414430    -0.6044570     0.0238790
  C        0.0782130     0.1386370     0.0349560
  C       -0.7695060    -0.9522330     0.1212440
  C       -2.2969850     0.7606620    -0.1265510
  C        1.5543500     0.2131940     0.1149440
  C       -3.2736380    -1.5890470     0.0915590
  C        3.6575090    -0.9906510    -0.1565210
  H       -0.4188890    -1.9677560     0.2899290
  H       -3.2284760     1.3059560    -0.2284190
  H       -3.2707310    -2.1282860     1.0440440
  H       -4.2368380    -1.0812090    -0.0045560
  H       -3.2086913    -2.2629811    -0.6369451
  H        1.7010110    -1.6882330    -0.6139760
  H        4.0494680    -0.5484410    -1.0790020
  H        3.9975300    -2.0243190    -0.0750760
  H        4.0378180    -0.4153140     0.6868970
units angstrom
no_reorient  #important for SAPT in psi4, default
symmetry c1  #important for SAPT in psi4, default
}

set PROPERTIES_ORIGIN ["COM"]
properties('MP2/aug-cc-pvtz', properties = ['dipole'])
--------------------------------------------------------------------------

    Molecular point group: c1
  Charge       = 0
  Multiplicity = 1
  Basis Set: AUG-CC-PVTZ
    Blend: AUG-CC-PVTZ
  Basis Set: (AUG-CC-PVTZ AUX)
    Blend: AUG-CC-PVTZ-JKFIT

    Orbital Energies [Eh]
    ---------------------

    Doubly Occupied:

       1A    -91.990108     2A    -20.521704     3A    -15.589266
       4A    -11.360709     5A    -11.274704     6A    -11.268602
       7A    -11.260574     8A    -11.257043     9A    -11.253288
      10A    -11.225991    11A     -8.989856    12A     -6.670723
      13A     -6.670174    14A     -6.669464    15A     -1.376181
      16A     -1.231640    17A     -1.183374    18A     -1.050041
      19A     -1.007572    20A     -0.956093    21A     -0.927932
      22A     -0.829060    23A     -0.768547    24A     -0.750648
      25A     -0.708912    26A     -0.644037    27A     -0.630629
      28A     -0.621954    29A     -0.605496    30A     -0.591912
      31A     -0.568186    32A     -0.551592    33A     -0.549915
      34A     -0.534587    35A     -0.524671    36A     -0.501455
      37A     -0.478346    38A     -0.434502    39A     -0.398735
      40A     -0.348252    41A     -0.327841

  @DF-RHF Final Energy:  -797.31344720366417

   => Energetics <=

    Nuclear Repulsion Energy =            588.3939712656247139
    One-Electron Energy =               -2261.2062026815319769
    Two-Electron Energy =                 875.4987842122430948
    Total Energy =                       -797.3134472036641682
  Basis Set: (AUG-CC-PVTZ AUX)
    Blend: AUG-CC-PVTZ-RI
    Molecular point group: c1

    Geometry (in Angstrom), charge = 0, multiplicity = 1:

       Center              X                  Y                   Z               Mass
    ------------   -----------------  -----------------  -----------------  -----------------
         S           -0.809107827476     1.536343916181    -0.144857283680    31.972071174400
         O            2.142695172524     1.194430916181     0.380861716320    15.994914619570
         N            2.201250172524    -1.039445083819    -0.115989283680    14.003074004430
         C           -2.145174827476    -0.674163083819     0.018974716320    12.000000000000
         C            0.074481172524     0.068930916181     0.030051716320    12.000000000000
         C           -0.773237827476    -1.021939083819     0.116339716320    12.000000000000
         C           -2.300716827476     0.690955916181    -0.131455283680    12.000000000000
         C            1.550618172524     0.143487916181     0.110039716320    12.000000000000
         C           -3.277369827476    -1.658753083819     0.086654716320    12.000000000000
         C            3.653777172524    -1.060357083819    -0.161425283680    12.000000000000
         H           -0.422620827476    -2.037462083819     0.285024716320     1.007825032230
         H           -3.232207827476     1.236249916181    -0.233323283680     1.007825032230
         H           -3.274462827476    -2.197992083819     1.039139716320     1.007825032230
         H           -4.240569827476    -1.150915083819    -0.009460283680     1.007825032230
         H           -3.212423127476    -2.332687183819    -0.641849383680     1.007825032230
         H            1.697279172524    -1.757939083819    -0.618880283680     1.007825032230
         H            4.045736172524    -0.618147083819    -1.083906283680     1.007825032230
         H            3.993798172524    -2.094025083819    -0.079980283680     1.007825032230
         H            4.034086172524    -0.485020083819     0.681992716320     1.007825032230

  Basis Set: AUG-CC-PVTZ
    Blend: AUG-CC-PVTZ
  Basis Set: (AUG-CC-PVTZ AUX)
    Blend: AUG-CC-PVTZ-JKFIT
	 Reference Energy          =    -797.3134472036641682 [Eh]
	 Singles Energy            =      -0.0000000000000000 [Eh]
	 Same-Spin Energy          =      -0.4870827356247253 [Eh]
	 Opposite-Spin Energy      =      -1.5033844755631964 [Eh]
	 Correlation Energy        =      -1.9904672111879218 [Eh]
	 Total Energy              =    -799.3039144148521018 [Eh]

	 ================> DF-SCS-MP2 Energies <==================
	-----------------------------------------------------------
	 SCS Same-Spin Scale       =       0.3333333333333333 [-]
	 SCS Opposite-Spin Scale   =       1.2000000000000000 [-]
	 SCS Same-Spin Energy      =      -0.1623609118749084 [Eh]
	 SCS Opposite-Spin Energy  =      -1.8040613706758357 [Eh]
	 SCS Correlation Energy    =      -1.9664222825507442 [Eh]
	 SCS Total Energy          =    -799.2798694862149205 [Eh]
	-----------------------------------------------------------

  Dipole Moment: [D]
     X:    -1.5141      Y:    -3.7844      Z:    -1.1651     Total:     4.2393

*** Psi4 exiting successfully. Buy a developer a beer!
