                               Psi4 1.4a3.dev225

  ==> Input File <==

--------------------------------------------------------------------------
#psi4
#
memory 32 gb

molecule  {
0 1
  S       -0.8053760     1.6060500    -0.1399530
  O        2.1464270     1.2641370     0.3857660
  N        2.2049820    -0.9697390    -0.1110850
  C       -2.1713923    -0.7483212     0.0452574
  C        0.0782130     0.1386370     0.0349560
  C       -0.7695060    -0.9522330     0.1212440
  C       -2.2969850     0.7606620    -0.1265510
  C        1.5543500     0.2131940     0.1149440
  C       -3.2736380    -1.5890470     0.0915590
  C        3.6575090    -0.9906510    -0.1565210
  H       -0.4188890    -1.9677560     0.2899290
  H       -3.2284760     1.3059560    -0.2284190
  H       -3.2707310    -2.1282860     1.0440440
  H       -4.2368380    -1.0812090    -0.0045560
  H       -3.2021610    -2.3307440    -0.7101950
  H        1.7010110    -1.6882330    -0.6139760
  H        4.0494680    -0.5484410    -1.0790020
  H        3.9975300    -2.0243190    -0.0750760
  H        4.0378180    -0.4153140     0.6868970
units angstrom
no_reorient  #important for SAPT in psi4, default
symmetry c1  #important for SAPT in psi4, default
}

set PROPERTIES_ORIGIN ["COM"]
properties('MP2/aug-cc-pvtz', properties = ['dipole'])
--------------------------------------------------------------------------

    Molecular point group: c1
  Charge       = 0
  Multiplicity = 1
  Basis Set: AUG-CC-PVTZ
    Blend: AUG-CC-PVTZ
  Basis Set: (AUG-CC-PVTZ AUX)
    Blend: AUG-CC-PVTZ-JKFIT

    Orbital Energies [Eh]
    ---------------------

    Doubly Occupied:

       1A    -91.998664     2A    -20.519225     3A    -15.587041
       4A    -11.359370     5A    -11.283833     6A    -11.271536
       7A    -11.265478     8A    -11.259141     9A    -11.258801
      10A    -11.235357    11A     -8.997427    12A     -6.678231
      13A     -6.677675    14A     -6.677130    15A     -1.374172
      16A     -1.229571    17A     -1.172935    18A     -1.068438
      19A     -1.003691    20A     -0.957090    21A     -0.916843
      22A     -0.819294    23A     -0.766301    24A     -0.748349
      25A     -0.711420    26A     -0.641878    27A     -0.632778
      28A     -0.620455    29A     -0.603397    30A     -0.596778
      31A     -0.580391    32A     -0.552026    33A     -0.549517
      34A     -0.537328    35A     -0.506377    36A     -0.493973
      37A     -0.474981    38A     -0.434117    39A     -0.397249
      40A     -0.350960    41A     -0.306685

  @DF-RHF Final Energy:  -797.28434607220083

   => Energetics <=

    Nuclear Repulsion Energy =            586.4035677201837871
    One-Electron Energy =               -2257.1440244553709817
    Two-Electron Energy =                 873.4561106629864753
    Total Energy =                       -797.2843460722008331
  Basis Set: (AUG-CC-PVTZ AUX)
    Blend: AUG-CC-PVTZ-RI
    Molecular point group: c1

    Geometry (in Angstrom), charge = 0, multiplicity = 1:

       Center              X                  Y                   Z               Mass
    ------------   -----------------  -----------------  -----------------  -----------------
         S           -0.806832227009     1.547919367237    -0.146035799841    31.972071174400
         O            2.144970772991     1.206006367237     0.379683200159    15.994914619570
         N            2.203525772991    -1.027869632763    -0.117167799841    14.003074004430
         C           -2.172848527009    -0.806451832763     0.039174600159    12.000000000000
         C            0.076756772991     0.080506367237     0.028873200159    12.000000000000
         C           -0.770962227009    -1.010363632763     0.115161200159    12.000000000000
         C           -2.298441227009     0.702531367237    -0.132633799841    12.000000000000
         C            1.552893772991     0.155063367237     0.108861200159    12.000000000000
         C           -3.275094227009    -1.647177632763     0.085476200159    12.000000000000
         C            3.656052772991    -1.048781632763    -0.162603799841    12.000000000000
         H           -0.420345227009    -2.025886632763     0.283846200159     1.007825032230
         H           -3.229932227009     1.247825367237    -0.234501799841     1.007825032230
         H           -3.272187227009    -2.186416632763     1.037961200159     1.007825032230
         H           -4.238294227009    -1.139339632763    -0.010638799841     1.007825032230
         H           -3.203617227009    -2.388874632763    -0.716277799841     1.007825032230
         H            1.699554772991    -1.746363632763    -0.620058799841     1.007825032230
         H            4.048011772991    -0.606571632763    -1.085084799841     1.007825032230
         H            3.996073772991    -2.082449632763    -0.081158799841     1.007825032230
         H            4.036361772991    -0.473444632763     0.680814200159     1.007825032230

  Basis Set: AUG-CC-PVTZ
    Blend: AUG-CC-PVTZ
  Basis Set: (AUG-CC-PVTZ AUX)
    Blend: AUG-CC-PVTZ-JKFIT
	 Reference Energy          =    -797.2843460722008331 [Eh]
	 Singles Energy            =      -0.0000000000000000 [Eh]
	 Same-Spin Energy          =      -0.4912862530511278 [Eh]
	 Opposite-Spin Energy      =      -1.5096580771539410 [Eh]
	 Correlation Energy        =      -2.0009443302050687 [Eh]
	 Total Energy              =    -799.2852904024058489 [Eh]

	 ================> DF-SCS-MP2 Energies <==================
	-----------------------------------------------------------
	 SCS Same-Spin Scale       =       0.3333333333333333 [-]
	 SCS Opposite-Spin Scale   =       1.2000000000000000 [-]
	 SCS Same-Spin Energy      =      -0.1637620843503759 [Eh]
	 SCS Opposite-Spin Energy  =      -1.8115896925847290 [Eh]
	 SCS Correlation Energy    =      -1.9753517769351050 [Eh]
	 SCS Total Energy          =    -799.2596978491359323 [Eh]
	-----------------------------------------------------------

  Dipole Moment: [D]
     X:    -1.6758      Y:    -3.8275      Z:    -1.1444     Total:     4.3322

*** Psi4 exiting successfully. Buy a developer a beer!
