                               Psi4 1.4a3.dev225

  ==> Input File <==

--------------------------------------------------------------------------
#psi4
#
memory 32 gb

molecule  {
0 1
  S       -0.8053760     1.6060500    -0.1399530
  O        2.1464270     1.2641370     0.3857660
  N        2.2049820    -0.9697390    -0.1110850
  C       -2.1414430    -0.6044570     0.0238790
  C        0.0782130     0.1386370     0.0349560
  C       -0.7695060    -0.9522330     0.1212440
  C       -2.2969850     0.7606620    -0.1265510
  C        1.5543500     0.2131940     0.1149440
  C       -3.1228750    -1.4579391     0.0825467
  C        3.6575090    -0.9906510    -0.1565210
  H       -0.4188890    -1.9677560     0.2899290
  H       -3.2284760     1.3059560    -0.2284190
  H       -3.2707310    -2.1282860     1.0440440
  H       -4.2368380    -1.0812090    -0.0045560
  H       -3.2021610    -2.3307440    -0.7101950
  H        1.7010110    -1.6882330    -0.6139760
  H        4.0494680    -0.5484410    -1.0790020
  H        3.9975300    -2.0243190    -0.0750760
  H        4.0378180    -0.4153140     0.6868970
units angstrom
no_reorient  #important for SAPT in psi4, default
symmetry c1  #important for SAPT in psi4, default
}

set PROPERTIES_ORIGIN ["COM"]
properties('MP2/aug-cc-pvtz', properties = ['dipole'])
--------------------------------------------------------------------------

    Molecular point group: c1
  Charge       = 0
  Multiplicity = 1
  Basis Set: AUG-CC-PVTZ
    Blend: AUG-CC-PVTZ
  Basis Set: (AUG-CC-PVTZ AUX)
    Blend: AUG-CC-PVTZ-JKFIT

    Orbital Energies [Eh]
    ---------------------

    Doubly Occupied:

       1A    -91.991520     2A    -20.523176     3A    -15.590395
       4A    -11.362074     5A    -11.276942     6A    -11.271015
       7A    -11.261338     8A    -11.258305     9A    -11.248033
      10A    -11.242493    11A     -8.991314    12A     -6.672185
      13A     -6.671631    14A     -6.670923    15A     -1.377554
      16A     -1.232849    17A     -1.194318    18A     -1.077682
      19A     -1.010322    20A     -0.955119    21A     -0.914311
      22A     -0.830950    23A     -0.771227    24A     -0.754461
      25A     -0.716289    26A     -0.647915    27A     -0.644858
      28A     -0.625596    29A     -0.594104    30A     -0.585561
      31A     -0.583633    32A     -0.553094    33A     -0.547671
      34A     -0.533957    35A     -0.501878    36A     -0.489832
      37A     -0.470741    38A     -0.436397    39A     -0.399725
      40A     -0.347361    41A     -0.322987

  @DF-RHF Final Energy:  -797.26683223218629

   => Energetics <=

    Nuclear Repulsion Energy =            591.8614230071028715
    One-Electron Energy =               -2267.9530286768122096
    Two-Electron Energy =                 878.8247734375229356
    Total Energy =                       -797.2668322321862888
  Basis Set: (AUG-CC-PVTZ AUX)
    Blend: AUG-CC-PVTZ-RI
    Molecular point group: c1

    Geometry (in Angstrom), charge = 0, multiplicity = 1:

       Center              X                  Y                   Z               Mass
    ------------   -----------------  -----------------  -----------------  -----------------
         S           -0.820819203371     1.526636763547    -0.143683585838    31.972071174400
         O            2.130983796629     1.184723763547     0.382035414162    15.994914619570
         N            2.189538796629    -1.049152236453    -0.114815585838    14.003074004430
         C           -2.156886203371    -0.683870236453     0.020148414162    12.000000000000
         C            0.062769796629     0.059223763547     0.031225414162    12.000000000000
         C           -0.784949203371    -1.031646236453     0.117513414162    12.000000000000
         C           -2.312428203371     0.681248763547    -0.130281585838    12.000000000000
         C            1.538906796629     0.133780763547     0.111213414162    12.000000000000
         C           -3.138318203371    -1.537352336453     0.078816114162    12.000000000000
         C            3.642065796629    -1.070064236453    -0.160251585838    12.000000000000
         H           -0.434332203371    -2.047169236453     0.286198414162     1.007825032230
         H           -3.243919203371     1.226542763547    -0.232149585838     1.007825032230
         H           -3.286174203371    -2.207699236453     1.040313414162     1.007825032230
         H           -4.252281203371    -1.160622236453    -0.008286585838     1.007825032230
         H           -3.217604203371    -2.410157236453    -0.713925585838     1.007825032230
         H            1.685567796629    -1.767646236453    -0.617706585838     1.007825032230
         H            4.034024796629    -0.627854236453    -1.082732585838     1.007825032230
         H            3.982086796629    -2.103732236453    -0.078806585838     1.007825032230
         H            4.022374796629    -0.494727236453     0.683166414162     1.007825032230

  Basis Set: AUG-CC-PVTZ
    Blend: AUG-CC-PVTZ
  Basis Set: (AUG-CC-PVTZ AUX)
    Blend: AUG-CC-PVTZ-JKFIT
	 Reference Energy          =    -797.2668322321862888 [Eh]
	 Singles Energy            =      -0.0000000000000000 [Eh]
	 Same-Spin Energy          =      -0.4903595411409050 [Eh]
	 Opposite-Spin Energy      =      -1.5083131704822330 [Eh]
	 Correlation Energy        =      -1.9986727116231380 [Eh]
	 Total Energy              =    -799.2655049438094466 [Eh]

	 ================> DF-SCS-MP2 Energies <==================
	-----------------------------------------------------------
	 SCS Same-Spin Scale       =       0.3333333333333333 [-]
	 SCS Opposite-Spin Scale   =       1.2000000000000000 [-]
	 SCS Same-Spin Energy      =      -0.1634531803803017 [Eh]
	 SCS Opposite-Spin Energy  =      -1.8099758045786796 [Eh]
	 SCS Correlation Energy    =      -1.9734289849589812 [Eh]
	 SCS Total Energy          =    -799.2402612171453029 [Eh]
	-----------------------------------------------------------

  Dipole Moment: [D]
     X:    -1.3927      Y:    -3.7015      Z:    -1.1455     Total:     4.1173

*** Psi4 exiting successfully. Buy a developer a beer!
