                               Psi4 1.4a3.dev225

  ==> Input File <==

--------------------------------------------------------------------------
#psi4
#
memory 32 gb

molecule  {
0 1
  S       -0.9062513     1.5408285    -0.1362531
  O        2.1464270     1.2641370     0.3857660
  N        2.2049820    -0.9697390    -0.1110850
  C       -2.1414430    -0.6044570     0.0238790
  C        0.0782130     0.1386370     0.0349560
  C       -0.7695060    -0.9522330     0.1212440
  C       -2.2969850     0.7606620    -0.1265510
  C        1.5543500     0.2131940     0.1149440
  C       -3.2736380    -1.5890470     0.0915590
  C        3.6575090    -0.9906510    -0.1565210
  H       -0.4188890    -1.9677560     0.2899290
  H       -3.2284760     1.3059560    -0.2284190
  H       -3.2707310    -2.1282860     1.0440440
  H       -4.2368380    -1.0812090    -0.0045560
  H       -3.2021610    -2.3307440    -0.7101950
  H        1.7010110    -1.6882330    -0.6139760
  H        4.0494680    -0.5484410    -1.0790020
  H        3.9975300    -2.0243190    -0.0750760
  H        4.0378180    -0.4153140     0.6868970
units angstrom
no_reorient  #important for SAPT in psi4, default
symmetry c1  #important for SAPT in psi4, default
}

set PROPERTIES_ORIGIN ["COM"]
properties('MP2/aug-cc-pvtz', properties = ['dipole'])
--------------------------------------------------------------------------

    Molecular point group: c1
  Charge       = 0
  Multiplicity = 1
  Basis Set: AUG-CC-PVTZ
    Blend: AUG-CC-PVTZ
  Basis Set: (AUG-CC-PVTZ AUX)
    Blend: AUG-CC-PVTZ-JKFIT

    Orbital Energies [Eh]
    ---------------------

    Doubly Occupied:

       1A    -91.987461     2A    -20.520379     3A    -15.589224
       4A    -11.361514     5A    -11.271375     6A    -11.260727
       7A    -11.260557     8A    -11.255636     9A    -11.249375
      10A    -11.235706    11A     -8.990572    12A     -6.671780
      13A     -6.670874    14A     -6.670142    15A     -1.374931
      16A     -1.231609    17A     -1.200997    18A     -1.043639
      19A     -1.025500    20A     -0.954694    21A     -0.918423
      22A     -0.827694    23A     -0.768434    24A     -0.757204
      25A     -0.707900    26A     -0.644753    27A     -0.629255
      28A     -0.624854    29A     -0.593113    30A     -0.590913
      31A     -0.572815    32A     -0.551655    33A     -0.550089
      34A     -0.534073    35A     -0.531198    36A     -0.509638
      37A     -0.472045    38A     -0.433839    39A     -0.398301
      40A     -0.354872    41A     -0.322692

  @DF-RHF Final Energy:  -797.31079414579744

   => Energetics <=

    Nuclear Repulsion Energy =            590.8741850207018160
    One-Electron Energy =               -2266.1290604149767205
    Two-Electron Energy =                 877.9440812484774597
    Total Energy =                       -797.3107941457974448
  Basis Set: (AUG-CC-PVTZ AUX)
    Blend: AUG-CC-PVTZ-RI
    Molecular point group: c1

    Geometry (in Angstrom), charge = 0, multiplicity = 1:

       Center              X                  Y                   Z               Mass
    ------------   -----------------  -----------------  -----------------  -----------------
         S           -0.889223318387     1.485012720934    -0.141444214461    31.972071174400
         O            2.163454981613     1.208321220934     0.380574885539    15.994914619570
         N            2.222009981613    -1.025554779066    -0.116276114461    14.003074004430
         C           -2.124415018387    -0.660272779066     0.018687885539    12.000000000000
         C            0.095240981613     0.082821220934     0.029764885539    12.000000000000
         C           -0.752478018387    -1.008048779066     0.116052885539    12.000000000000
         C           -2.279957018387     0.704846220934    -0.131742114461    12.000000000000
         C            1.571377981613     0.157378220934     0.109752885539    12.000000000000
         C           -3.256610018387    -1.644862779066     0.086367885539    12.000000000000
         C            3.674536981613    -1.046466779066    -0.161712114461    12.000000000000
         H           -0.401861018387    -2.023571779066     0.284737885539     1.007825032230
         H           -3.211448018387     1.250140220934    -0.233610114461     1.007825032230
         H           -3.253703018387    -2.184101779066     1.038852885539     1.007825032230
         H           -4.219810018387    -1.137024779066    -0.009747114461     1.007825032230
         H           -3.185133018387    -2.386559779066    -0.715386114461     1.007825032230
         H            1.718038981613    -1.744048779066    -0.619167114461     1.007825032230
         H            4.066495981613    -0.604256779066    -1.084193114461     1.007825032230
         H            4.014557981613    -2.080134779066    -0.080267114461     1.007825032230
         H            4.054845981613    -0.471129779066     0.681705885539     1.007825032230

  Basis Set: AUG-CC-PVTZ
    Blend: AUG-CC-PVTZ
  Basis Set: (AUG-CC-PVTZ AUX)
    Blend: AUG-CC-PVTZ-JKFIT
	 Reference Energy          =    -797.3107941457974448 [Eh]
	 Singles Energy            =      -0.0000000000000000 [Eh]
	 Same-Spin Energy          =      -0.4881243888270609 [Eh]
	 Opposite-Spin Energy      =      -1.5027921840828720 [Eh]
	 Correlation Energy        =      -1.9909165729099330 [Eh]
	 Total Energy              =    -799.3017107187073407 [Eh]

	 ================> DF-SCS-MP2 Energies <==================
	-----------------------------------------------------------
	 SCS Same-Spin Scale       =       0.3333333333333333 [-]
	 SCS Opposite-Spin Scale   =       1.2000000000000000 [-]
	 SCS Same-Spin Energy      =      -0.1627081296090203 [Eh]
	 SCS Opposite-Spin Energy  =      -1.8033506208994463 [Eh]
	 SCS Correlation Energy    =      -1.9660587505084666 [Eh]
	 SCS Total Energy          =    -799.2768528963059680 [Eh]
	-----------------------------------------------------------

  Dipole Moment: [D]
     X:    -1.5688      Y:    -3.6731      Z:    -1.1607     Total:     4.1593

*** Psi4 exiting successfully. Buy a developer a beer!
