                               Psi4 1.4a3.dev225

  ==> Input File <==

--------------------------------------------------------------------------
#psi4
#
memory 32 gb

molecule  {
0 1
  S       -0.8053760     1.6060500    -0.1399530
  O        2.1464270     1.2641370     0.3857660
  N        2.2049820    -0.9697390    -0.1110850
  C       -2.1629443    -0.7006113     0.0337487
  C        0.0782130     0.1386370     0.0349560
  C       -0.7695060    -0.9522330     0.1212440
  C       -2.2969850     0.7606620    -0.1265510
  C        1.5543500     0.2131940     0.1149440
  C       -3.2736380    -1.5890470     0.0915590
  C        3.6575090    -0.9906510    -0.1565210
  H       -0.4188890    -1.9677560     0.2899290
  H       -3.2284760     1.3059560    -0.2284190
  H       -3.2707310    -2.1282860     1.0440440
  H       -4.2368380    -1.0812090    -0.0045560
  H       -3.2021610    -2.3307440    -0.7101950
  H        1.7010110    -1.6882330    -0.6139760
  H        4.0494680    -0.5484410    -1.0790020
  H        3.9975300    -2.0243190    -0.0750760
  H        4.0378180    -0.4153140     0.6868970
units angstrom
no_reorient  #important for SAPT in psi4, default
symmetry c1  #important for SAPT in psi4, default
}

set PROPERTIES_ORIGIN ["COM"]
properties('MP2/aug-cc-pvtz', properties = ['dipole'])
--------------------------------------------------------------------------

    Molecular point group: c1
  Charge       = 0
  Multiplicity = 1
  Basis Set: AUG-CC-PVTZ
    Blend: AUG-CC-PVTZ
  Basis Set: (AUG-CC-PVTZ AUX)
    Blend: AUG-CC-PVTZ-JKFIT

    Orbital Energies [Eh]
    ---------------------

    Doubly Occupied:

       1A    -91.995988     2A    -20.520198     3A    -15.587895
       4A    -11.359960     5A    -11.279525     6A    -11.272753
       7A    -11.261747     8A    -11.259692     9A    -11.258052
      10A    -11.236219    11A     -8.995072    12A     -6.675901
      13A     -6.675341    14A     -6.674744    15A     -1.374978
      16A     -1.230364    17A     -1.175757    18A     -1.060042
      19A     -1.004907    20A     -0.955977    21A     -0.918994
      22A     -0.822365    23A     -0.766934    24A     -0.748916
      25A     -0.710996    26A     -0.642609    27A     -0.630845
      28A     -0.620558    29A     -0.598801    30A     -0.595184
      31A     -0.573394    32A     -0.552087    33A     -0.549992
      34A     -0.536977    35A     -0.513931    36A     -0.496085
      37A     -0.478436    38A     -0.434535    39A     -0.397844
      40A     -0.350070    41A     -0.313523

  @DF-RHF Final Energy:  -797.30175299762413

   => Energetics <=

    Nuclear Repulsion Energy =            586.8630353182402359
    One-Electron Energy =               -2258.1131989190025706
    Two-Electron Energy =                 873.9484106031381998
    Total Energy =                       -797.3017529976241349
  Basis Set: (AUG-CC-PVTZ AUX)
    Blend: AUG-CC-PVTZ-RI
    Molecular point group: c1

    Geometry (in Angstrom), charge = 0, multiplicity = 1:

       Center              X                  Y                   Z               Mass
    ------------   -----------------  -----------------  -----------------  -----------------
         S           -0.807486094932     1.544226662073    -0.145145036374    31.972071174400
         O            2.144316905068     1.202313662073     0.380573963626    15.994914619570
         N            2.202871905068    -1.031562337927    -0.116277036374    14.003074004430
         C           -2.165054394932    -0.762434637927     0.028556663626    12.000000000000
         C            0.076102905068     0.076813662073     0.029763963626    12.000000000000
         C           -0.771616094932    -1.014056337927     0.116051963626    12.000000000000
         C           -2.299095094932     0.698838662073    -0.131743036374    12.000000000000
         C            1.552239905068     0.151370662073     0.109751963626    12.000000000000
         C           -3.275748094932    -1.650870337927     0.086366963626    12.000000000000
         C            3.655398905068    -1.052474337927    -0.161713036374    12.000000000000
         H           -0.420999094932    -2.029579337927     0.284736963626     1.007825032230
         H           -3.230586094932     1.244132662073    -0.233611036374     1.007825032230
         H           -3.272841094932    -2.190109337927     1.038851963626     1.007825032230
         H           -4.238948094932    -1.143032337927    -0.009748036374     1.007825032230
         H           -3.204271094932    -2.392567337927    -0.715387036374     1.007825032230
         H            1.698900905068    -1.750056337927    -0.619168036374     1.007825032230
         H            4.047357905068    -0.610264337927    -1.084194036374     1.007825032230
         H            3.995419905068    -2.086142337927    -0.080268036374     1.007825032230
         H            4.035707905068    -0.477137337927     0.681704963626     1.007825032230

  Basis Set: AUG-CC-PVTZ
    Blend: AUG-CC-PVTZ
  Basis Set: (AUG-CC-PVTZ AUX)
    Blend: AUG-CC-PVTZ-JKFIT
	 Reference Energy          =    -797.3017529976241349 [Eh]
	 Singles Energy            =      -0.0000000000000000 [Eh]
	 Same-Spin Energy          =      -0.4896846893902227 [Eh]
	 Opposite-Spin Energy      =      -1.5073834200863490 [Eh]
	 Correlation Energy        =      -1.9970681094765717 [Eh]
	 Total Energy              =    -799.2988211071007072 [Eh]

	 ================> DF-SCS-MP2 Energies <==================
	-----------------------------------------------------------
	 SCS Same-Spin Scale       =       0.3333333333333333 [-]
	 SCS Opposite-Spin Scale   =       1.2000000000000000 [-]
	 SCS Same-Spin Energy      =      -0.1632282297967409 [Eh]
	 SCS Opposite-Spin Energy  =      -1.8088601041036187 [Eh]
	 SCS Correlation Energy    =      -1.9720883339003596 [Eh]
	 SCS Total Energy          =    -799.2738413315245225 [Eh]
	-----------------------------------------------------------

  Dipole Moment: [D]
     X:    -1.6099      Y:    -3.7881      Z:    -1.1439     Total:     4.2720

*** Psi4 exiting successfully. Buy a developer a beer!
