                               Psi4 1.4a3.dev225

  ==> Input File <==

--------------------------------------------------------------------------
#psi4
#
memory 32 gb

molecule  {
0 1
  S       -0.8053760     1.6060500    -0.1399530
  O        2.1464270     1.2641370     0.3857660
  N        2.2049820    -0.9697390    -0.1110850
  C       -2.1414430    -0.6044570     0.0238790
  C        0.0782130     0.1386370     0.0349560
  C       -0.7695060    -0.9522330     0.1212440
  C       -2.2969850     0.7606620    -0.1265510
  C        1.5543500     0.2131940     0.1149440
  C       -3.2736380    -1.5890470     0.0915590
  C        3.6575090    -0.9906510    -0.1565210
  H       -0.4188890    -1.9677560     0.2899290
  H       -3.2284760     1.3059560    -0.2284190
  H       -3.2707310    -2.1282860     1.0440440
  H       -4.2368380    -1.0812090    -0.0045560
  H       -3.2021610    -2.3307440    -0.7101950
  H        1.8006599    -1.5461671    -0.5145407
  H        4.0494680    -0.5484410    -1.0790020
  H        3.9975300    -2.0243190    -0.0750760
  H        4.0378180    -0.4153140     0.6868970
units angstrom
no_reorient  #important for SAPT in psi4, default
symmetry c1  #important for SAPT in psi4, default
}

set PROPERTIES_ORIGIN ["COM"]
properties('MP2/aug-cc-pvtz', properties = ['dipole'])
--------------------------------------------------------------------------

    Molecular point group: c1
  Charge       = 0
  Multiplicity = 1
  Basis Set: AUG-CC-PVTZ
    Blend: AUG-CC-PVTZ
  Basis Set: (AUG-CC-PVTZ AUX)
    Blend: AUG-CC-PVTZ-JKFIT

    Orbital Energies [Eh]
    ---------------------

    Doubly Occupied:

       1A    -91.990872     2A    -20.522544     3A    -15.568008
       4A    -11.361562     5A    -11.275448     6A    -11.269870
       7A    -11.261029     8A    -11.258072     9A    -11.254366
      10A    -11.238451    11A     -8.990618    12A     -6.671486
      13A     -6.670937    14A     -6.670222    15A     -1.379700
      16A     -1.264198    17A     -1.184585    18A     -1.047183
      19A     -1.007971    20A     -0.958568    21A     -0.926814
      22A     -0.857589    23A     -0.792512    24A     -0.750800
      25A     -0.709864    26A     -0.648605    27A     -0.630933
      28A     -0.623007    29A     -0.594622    30A     -0.591104
      31A     -0.571199    32A     -0.558477    33A     -0.550014
      34A     -0.534903    35A     -0.524103    36A     -0.501355
      37A     -0.478766    38A     -0.436037    39A     -0.402647
      40A     -0.348810    41A     -0.328629

  @DF-RHF Final Energy:  -797.27470629431446

   => Energetics <=

    Nuclear Repulsion Energy =            589.2039434936224325
    One-Electron Energy =               -2262.5443382313592338
    Two-Electron Energy =                 876.0656884434224594
    Total Energy =                       -797.2747062943144556
  Basis Set: (AUG-CC-PVTZ AUX)
    Blend: AUG-CC-PVTZ-RI
    Molecular point group: c1

    Geometry (in Angstrom), charge = 0, multiplicity = 1:

       Center              X                  Y                   Z               Mass
    ------------   -----------------  -----------------  -----------------  -----------------
         S           -0.809798034654     1.535860917025    -0.145027499231    31.972071174400
         O            2.142004965346     1.193947917025     0.380691500769    15.994914619570
         N            2.200559965346    -1.039928082975    -0.116159499231    14.003074004430
         C           -2.145865034654    -0.674646082975     0.018804500769    12.000000000000
         C            0.073790965346     0.068447917025     0.029881500769    12.000000000000
         C           -0.773928034654    -1.022422082975     0.116169500769    12.000000000000
         C           -2.301407034654     0.690472917025    -0.131625499231    12.000000000000
         C            1.549927965346     0.143004917025     0.109869500769    12.000000000000
         C           -3.278060034654    -1.659236082975     0.086484500769    12.000000000000
         C            3.653086965346    -1.060840082975    -0.161595499231    12.000000000000
         H           -0.423311034654    -2.037945082975     0.284854500769     1.007825032230
         H           -3.232898034654     1.235766917025    -0.233493499231     1.007825032230
         H           -3.275153034654    -2.198475082975     1.038969500769     1.007825032230
         H           -4.241260034654    -1.151398082975    -0.009630499231     1.007825032230
         H           -3.206583034654    -2.400933082975    -0.715269499231     1.007825032230
         H            1.796237865346    -1.616356182975    -0.519615199231     1.007825032230
         H            4.045045965346    -0.618630082975    -1.084076499231     1.007825032230
         H            3.993107965346    -2.094508082975    -0.080150499231     1.007825032230
         H            4.033395965346    -0.485503082975     0.681822500769     1.007825032230

  Basis Set: AUG-CC-PVTZ
    Blend: AUG-CC-PVTZ
  Basis Set: (AUG-CC-PVTZ AUX)
    Blend: AUG-CC-PVTZ-JKFIT
	 Reference Energy          =    -797.2747062943144556 [Eh]
	 Singles Energy            =      -0.0000000000000000 [Eh]
	 Same-Spin Energy          =      -0.4856348716946455 [Eh]
	 Opposite-Spin Energy      =      -1.5009972096329163 [Eh]
	 Correlation Energy        =      -1.9866320813275617 [Eh]
	 Total Energy              =    -799.2613383756420262 [Eh]

	 ================> DF-SCS-MP2 Energies <==================
	-----------------------------------------------------------
	 SCS Same-Spin Scale       =       0.3333333333333333 [-]
	 SCS Opposite-Spin Scale   =       1.2000000000000000 [-]
	 SCS Same-Spin Energy      =      -0.1618782905648818 [Eh]
	 SCS Opposite-Spin Energy  =      -1.8011966515594995 [Eh]
	 SCS Correlation Energy    =      -1.9630749421243814 [Eh]
	 SCS Total Energy          =    -799.2377812364388774 [Eh]
	-----------------------------------------------------------

  Dipole Moment: [D]
     X:    -1.4836      Y:    -3.6285      Z:    -1.0683     Total:     4.0630

*** Psi4 exiting successfully. Buy a developer a beer!
