                               Psi4 1.4a3.dev225

  ==> Input File <==

--------------------------------------------------------------------------
#psi4
#
memory 32 gb

molecule  {
0 1
  S       -0.8053760     1.6060500    -0.1399530
  O        2.1464270     1.2641370     0.3857660
  N        2.2049820    -0.9697390    -0.1110850
  C       -2.1414430    -0.6044570     0.0238790
  C        0.0782130     0.1386370     0.0349560
  C       -0.7695060    -0.9522330     0.1212440
  C       -2.1229930     0.8592741    -0.1281143
  C        1.5543500     0.2131940     0.1149440
  C       -3.2736380    -1.5890470     0.0915590
  C        3.6575090    -0.9906510    -0.1565210
  H       -0.4188890    -1.9677560     0.2899290
  H       -3.2284760     1.3059560    -0.2284190
  H       -3.2707310    -2.1282860     1.0440440
  H       -4.2368380    -1.0812090    -0.0045560
  H       -3.2021610    -2.3307440    -0.7101950
  H        1.7010110    -1.6882330    -0.6139760
  H        4.0494680    -0.5484410    -1.0790020
  H        3.9975300    -2.0243190    -0.0750760
  H        4.0378180    -0.4153140     0.6868970
units angstrom
no_reorient  #important for SAPT in psi4, default
symmetry c1  #important for SAPT in psi4, default
}

set PROPERTIES_ORIGIN ["COM"]
properties('MP2/aug-cc-pvtz', properties = ['dipole'])
--------------------------------------------------------------------------

    Molecular point group: c1
  Charge       = 0
  Multiplicity = 1
  Basis Set: AUG-CC-PVTZ
    Blend: AUG-CC-PVTZ
  Basis Set: (AUG-CC-PVTZ AUX)
    Blend: AUG-CC-PVTZ-JKFIT

    Orbital Energies [Eh]
    ---------------------

    Doubly Occupied:

       1A    -91.997741     2A    -20.514920     3A    -15.584474
       4A    -11.355012     5A    -11.274692     6A    -11.261640
       7A    -11.257544     8A    -11.256096     9A    -11.254428
      10A    -11.240802    11A     -9.002913    12A     -6.684559
      13A     -6.682651    14A     -6.682151    15A     -1.370757
      16A     -1.227412    17A     -1.205254    18A     -1.051052
      19A     -1.022090    20A     -0.952776    21A     -0.914261
      22A     -0.815063    23A     -0.763789    24A     -0.742019
      25A     -0.709252    26A     -0.638806    27A     -0.626942
      28A     -0.619363    29A     -0.591480    30A     -0.583151
      31A     -0.555872    32A     -0.554174    33A     -0.548829
      34A     -0.542465    35A     -0.522811    36A     -0.512036
      37A     -0.478357    38A     -0.428931    39A     -0.395640
      40A     -0.364399    41A     -0.306313

  @DF-RHF Final Energy:  -797.26950845588124

   => Energetics <=

    Nuclear Repulsion Energy =            591.3920385224321308
    One-Electron Energy =               -2267.1372569213535826
    Two-Electron Energy =                 878.4757099430402150
    Total Energy =                       -797.2695084558812368
  Basis Set: (AUG-CC-PVTZ AUX)
    Blend: AUG-CC-PVTZ-RI
    Molecular point group: c1

    Geometry (in Angstrom), charge = 0, multiplicity = 1:

       Center              X                  Y                   Z               Mass
    ------------   -----------------  -----------------  -----------------  -----------------
         S           -0.822617107962     1.529151910477    -0.144260132022    31.972071174400
         O            2.129185892038     1.187238910477     0.381458867978    15.994914619570
         N            2.187740892038    -1.046637089523    -0.115392132022    14.003074004430
         C           -2.158684107962    -0.681355089523     0.019571867978    12.000000000000
         C            0.060971892038     0.061738910477     0.030648867978    12.000000000000
         C           -0.786747107962    -1.029131089523     0.116936867978    12.000000000000
         C           -2.140234107962     0.782376010477    -0.132421432022    12.000000000000
         C            1.537108892038     0.136295910477     0.110636867978    12.000000000000
         C           -3.290879107962    -1.665945089523     0.087251867978    12.000000000000
         C            3.640267892038    -1.067549089523    -0.160828132022    12.000000000000
         H           -0.436130107962    -2.044654089523     0.285621867978     1.007825032230
         H           -3.245717107962     1.229057910477    -0.232726132022     1.007825032230
         H           -3.287972107962    -2.205184089523     1.039736867978     1.007825032230
         H           -4.254079107962    -1.158107089523    -0.008863132022     1.007825032230
         H           -3.219402107962    -2.407642089523    -0.714502132022     1.007825032230
         H            1.683769892038    -1.765131089523    -0.618283132022     1.007825032230
         H            4.032226892038    -0.625339089523    -1.083309132022     1.007825032230
         H            3.980288892038    -2.101217089523    -0.079383132022     1.007825032230
         H            4.020576892038    -0.492212089523     0.682589867978     1.007825032230

  Basis Set: AUG-CC-PVTZ
    Blend: AUG-CC-PVTZ
  Basis Set: (AUG-CC-PVTZ AUX)
    Blend: AUG-CC-PVTZ-JKFIT
	 Reference Energy          =    -797.2695084558812368 [Eh]
	 Singles Energy            =      -0.0000000000000000 [Eh]
	 Same-Spin Energy          =      -0.4909758775761270 [Eh]
	 Opposite-Spin Energy      =      -1.5066104748352243 [Eh]
	 Correlation Energy        =      -1.9975863524113513 [Eh]
	 Total Energy              =    -799.2670948082925406 [Eh]

	 ================> DF-SCS-MP2 Energies <==================
	-----------------------------------------------------------
	 SCS Same-Spin Scale       =       0.3333333333333333 [-]
	 SCS Opposite-Spin Scale   =       1.2000000000000000 [-]
	 SCS Same-Spin Energy      =      -0.1636586258587090 [Eh]
	 SCS Opposite-Spin Energy  =      -1.8079325698022690 [Eh]
	 SCS Correlation Energy    =      -1.9715911956609780 [Eh]
	 SCS Total Energy          =    -799.2410996515421857 [Eh]
	-----------------------------------------------------------

  Dipole Moment: [D]
     X:    -1.6780      Y:    -3.5654      Z:    -1.1666     Total:     4.1095

*** Psi4 exiting successfully. Buy a developer a beer!
