                               Psi4 1.4a3.dev225

  ==> Input File <==

--------------------------------------------------------------------------
#psi4
#
memory 32 gb

molecule  {
0 1
  S       -0.8053760     1.6060500    -0.1399530
  O        2.1464270     1.2641370     0.3857660
  N        2.2047666    -0.9473376    -0.1566008
  C       -2.1414430    -0.6044570     0.0238790
  C        0.0782130     0.1386370     0.0349560
  C       -0.7695060    -0.9522330     0.1212440
  C       -2.2969850     0.7606620    -0.1265510
  C        1.5543500     0.2131940     0.1149440
  C       -3.2736380    -1.5890470     0.0915590
  C        3.6575090    -0.9906510    -0.1565210
  H       -0.4188890    -1.9677560     0.2899290
  H       -3.2284760     1.3059560    -0.2284190
  H       -3.2707310    -2.1282860     1.0440440
  H       -4.2368380    -1.0812090    -0.0045560
  H       -3.2021610    -2.3307440    -0.7101950
  H        1.7010110    -1.6882330    -0.6139760
  H        4.0494680    -0.5484410    -1.0790020
  H        3.9975300    -2.0243190    -0.0750760
  H        4.0378180    -0.4153140     0.6868970
units angstrom
no_reorient  #important for SAPT in psi4, default
symmetry c1  #important for SAPT in psi4, default
}

set PROPERTIES_ORIGIN ["COM"]
properties('MP2/aug-cc-pvtz', properties = ['dipole'])
--------------------------------------------------------------------------

    Molecular point group: c1
  Charge       = 0
  Multiplicity = 1
  Basis Set: AUG-CC-PVTZ
    Blend: AUG-CC-PVTZ
  Basis Set: (AUG-CC-PVTZ AUX)
    Blend: AUG-CC-PVTZ-JKFIT

    Orbital Energies [Eh]
    ---------------------

    Doubly Occupied:

       1A    -91.990034     2A    -20.518890     3A    -15.589414
       4A    -11.359270     5A    -11.274659     6A    -11.268580
       7A    -11.261682     8A    -11.256834     9A    -11.253681
      10A    -11.238111    11A     -8.989771    12A     -6.670638
      13A     -6.670087    14A     -6.669376    15A     -1.375739
      16A     -1.233880    17A     -1.183218    18A     -1.046401
      19A     -1.007280    20A     -0.955436    21A     -0.922975
      22A     -0.829239    23A     -0.772739    24A     -0.749764
      25A     -0.708492    26A     -0.643604    27A     -0.628893
      28A     -0.622368    29A     -0.593548    30A     -0.590769
      31A     -0.568142    32A     -0.553340    33A     -0.549295
      34A     -0.534262    35A     -0.523196    36A     -0.500584
      37A     -0.477818    38A     -0.433134    39A     -0.397025
      40A     -0.347977    41A     -0.327487

  @DF-RHF Final Energy:  -797.31985824431820

   => Energetics <=

    Nuclear Repulsion Energy =            588.2203076942336111
    One-Electron Energy =               -2260.9050681195958532
    Two-Electron Energy =                 875.3649021810439308
    Total Energy =                       -797.3198582443181976
  Basis Set: (AUG-CC-PVTZ AUX)
    Blend: AUG-CC-PVTZ-RI
    Molecular point group: c1

    Geometry (in Angstrom), charge = 0, multiplicity = 1:

       Center              X                  Y                   Z               Mass
    ------------   -----------------  -----------------  -----------------  -----------------
         S           -0.809130822358     1.534761134013    -0.140270196648    31.972071174400
         O            2.142672177642     1.192848134013     0.385448803352    15.994914619570
         N            2.201011777642    -1.018626465987    -0.156917996648    14.003074004430
         C           -2.145197822358    -0.675745865987     0.023561803352    12.000000000000
         C            0.074458177642     0.067348134013     0.034638803352    12.000000000000
         C           -0.773260822358    -1.023521865987     0.120926803352    12.000000000000
         C           -2.300739822358     0.689373134013    -0.126868196648    12.000000000000
         C            1.550595177642     0.141905134013     0.114626803352    12.000000000000
         C           -3.277392822358    -1.660335865987     0.091241803352    12.000000000000
         C            3.653754177642    -1.061939865987    -0.156838196648    12.000000000000
         H           -0.422643822358    -2.039044865987     0.289611803352     1.007825032230
         H           -3.232230822358     1.234667134013    -0.228736196648     1.007825032230
         H           -3.274485822358    -2.199574865987     1.043726803352     1.007825032230
         H           -4.240592822358    -1.152497865987    -0.004873196648     1.007825032230
         H           -3.205915822358    -2.402032865987    -0.710512196648     1.007825032230
         H            1.697256177642    -1.759521865987    -0.614293196648     1.007825032230
         H            4.045713177642    -0.619729865987    -1.079319196648     1.007825032230
         H            3.993775177642    -2.095607865987    -0.075393196648     1.007825032230
         H            4.034063177642    -0.486602865987     0.686579803352     1.007825032230

  Basis Set: AUG-CC-PVTZ
    Blend: AUG-CC-PVTZ
  Basis Set: (AUG-CC-PVTZ AUX)
    Blend: AUG-CC-PVTZ-JKFIT
	 Reference Energy          =    -797.3198582443181976 [Eh]
	 Singles Energy            =      -0.0000000000000000 [Eh]
	 Same-Spin Energy          =      -0.4869763524105984 [Eh]
	 Opposite-Spin Energy      =      -1.5034875477913241 [Eh]
	 Correlation Energy        =      -1.9904639002019224 [Eh]
	 Total Energy              =    -799.3103221445201143 [Eh]

	 ================> DF-SCS-MP2 Energies <==================
	-----------------------------------------------------------
	 SCS Same-Spin Scale       =       0.3333333333333333 [-]
	 SCS Opposite-Spin Scale   =       1.2000000000000000 [-]
	 SCS Same-Spin Energy      =      -0.1623254508035328 [Eh]
	 SCS Opposite-Spin Energy  =      -1.8041850573495888 [Eh]
	 SCS Correlation Energy    =      -1.9665105081531216 [Eh]
	 SCS Total Energy          =    -799.2863687524712759 [Eh]
	-----------------------------------------------------------

  Dipole Moment: [D]
     X:    -1.4373      Y:    -3.8639      Z:    -1.0856     Total:     4.2632

*** Psi4 exiting successfully. Buy a developer a beer!
