                               Psi4 1.4a3.dev225

  ==> Input File <==

--------------------------------------------------------------------------
#psi4
#
memory 32 gb

molecule  {
0 1
  S       -0.8053760     1.6060500    -0.1399530
  O        2.1464270     1.2641370     0.3857660
  N        2.2049820    -0.9697390    -0.1110850
  C       -2.1414430    -0.6044570     0.0238790
  C        0.0782130     0.1386370     0.0349560
  C       -0.6508086    -1.0334718     0.1386814
  C       -2.2969850     0.7606620    -0.1265510
  C        1.5543500     0.2131940     0.1149440
  C       -3.2736380    -1.5890470     0.0915590
  C        3.6575090    -0.9906510    -0.1565210
  H       -0.4188890    -1.9677560     0.2899290
  H       -3.2284760     1.3059560    -0.2284190
  H       -3.2707310    -2.1282860     1.0440440
  H       -4.2368380    -1.0812090    -0.0045560
  H       -3.2021610    -2.3307440    -0.7101950
  H        1.7010110    -1.6882330    -0.6139760
  H        4.0494680    -0.5484410    -1.0790020
  H        3.9975300    -2.0243190    -0.0750760
  H        4.0378180    -0.4153140     0.6868970
units angstrom
no_reorient  #important for SAPT in psi4, default
symmetry c1  #important for SAPT in psi4, default
}

set PROPERTIES_ORIGIN ["COM"]
properties('MP2/aug-cc-pvtz', properties = ['dipole'])
--------------------------------------------------------------------------

    Molecular point group: c1
  Charge       = 0
  Multiplicity = 1
  Basis Set: AUG-CC-PVTZ
    Blend: AUG-CC-PVTZ
  Basis Set: (AUG-CC-PVTZ AUX)
    Blend: AUG-CC-PVTZ-JKFIT

    Orbital Energies [Eh]
    ---------------------

    Doubly Occupied:

       1A    -91.988797     2A    -20.521794     3A    -15.589098
       4A    -11.358247     5A    -11.281953     6A    -11.267202
       7A    -11.265306     8A    -11.260698     9A    -11.260279
      10A    -11.237174    11A     -8.988821    12A     -6.669817
      13A     -6.669096    14A     -6.668315    15A     -1.376165
      16A     -1.231973    17A     -1.170004    18A     -1.042857
      19A     -1.012450    20A     -0.951835    21A     -0.918233
      22A     -0.831542    23A     -0.770744    24A     -0.756590
      25A     -0.712220    26A     -0.644253    27A     -0.628012
      28A     -0.618059    29A     -0.600601    30A     -0.587401
      31A     -0.573177    32A     -0.552423    33A     -0.549541
      34A     -0.532642    35A     -0.512519    36A     -0.495885
      37A     -0.480599    38A     -0.430482    39A     -0.398526
      40A     -0.347187    41A     -0.327346

  @DF-RHF Final Energy:  -797.29615097748024

   => Energetics <=

    Nuclear Repulsion Energy =            586.3831799856343423
    One-Electron Energy =               -2257.1989284226856398
    Two-Electron Energy =                 873.5195974595710595
    Total Energy =                       -797.2961509774802380
  Basis Set: (AUG-CC-PVTZ AUX)
    Blend: AUG-CC-PVTZ-RI
    Molecular point group: c1

    Geometry (in Angstrom), charge = 0, multiplicity = 1:

       Center              X                  Y                   Z               Mass
    ------------   -----------------  -----------------  -----------------  -----------------
         S           -0.818337353551     1.543072215220    -0.145730769835    31.972071174400
         O            2.133465646449     1.201159215220     0.379988230165    15.994914619570
         N            2.192020646449    -1.032716784780    -0.116862769835    14.003074004430
         C           -2.154404353551    -0.667434784780     0.018101230165    12.000000000000
         C            0.065251646449     0.075659215220     0.029178230165    12.000000000000
         C           -0.663769953551    -1.096449584780     0.132903630165    12.000000000000
         C           -2.309946353551     0.697684215220    -0.132328769835    12.000000000000
         C            1.541388646449     0.150216215220     0.109166230165    12.000000000000
         C           -3.286599353551    -1.652024784780     0.085781230165    12.000000000000
         C            3.644547646449    -1.053628784780    -0.162298769835    12.000000000000
         H           -0.431850353551    -2.030733784780     0.284151230165     1.007825032230
         H           -3.241437353551     1.242978215220    -0.234196769835     1.007825032230
         H           -3.283692353551    -2.191263784780     1.038266230165     1.007825032230
         H           -4.249799353551    -1.144186784780    -0.010333769835     1.007825032230
         H           -3.215122353551    -2.393721784780    -0.715972769835     1.007825032230
         H            1.688049646449    -1.751210784780    -0.619753769835     1.007825032230
         H            4.036506646449    -0.611418784780    -1.084779769835     1.007825032230
         H            3.984568646449    -2.087296784780    -0.080853769835     1.007825032230
         H            4.024856646449    -0.478291784780     0.681119230165     1.007825032230

  Basis Set: AUG-CC-PVTZ
    Blend: AUG-CC-PVTZ
  Basis Set: (AUG-CC-PVTZ AUX)
    Blend: AUG-CC-PVTZ-JKFIT
	 Reference Energy          =    -797.2961509774802380 [Eh]
	 Singles Energy            =      -0.0000000000000000 [Eh]
	 Same-Spin Energy          =      -0.4850619824167999 [Eh]
	 Opposite-Spin Energy      =      -1.5036120266229127 [Eh]
	 Correlation Energy        =      -1.9886740090397126 [Eh]
	 Total Energy              =    -799.2848249865199932 [Eh]

	 ================> DF-SCS-MP2 Energies <==================
	-----------------------------------------------------------
	 SCS Same-Spin Scale       =       0.3333333333333333 [-]
	 SCS Opposite-Spin Scale   =       1.2000000000000000 [-]
	 SCS Same-Spin Energy      =      -0.1616873274722666 [Eh]
	 SCS Opposite-Spin Energy  =      -1.8043344319474952 [Eh]
	 SCS Correlation Energy    =      -1.9660217594197618 [Eh]
	 SCS Total Energy          =    -799.2621727368999700 [Eh]
	-----------------------------------------------------------

  Dipole Moment: [D]
     X:    -1.5121      Y:    -3.7424      Z:    -1.1361     Total:     4.1932

*** Psi4 exiting successfully. Buy a developer a beer!
