                               Psi4 1.4a3.dev225

  ==> Input File <==

--------------------------------------------------------------------------
#psi4
#
memory 32 gb

molecule  {
0 1
  S       -0.8053760     1.6060500    -0.1399530
  O        2.1464270     1.2641370     0.3857660
  N        2.2049820    -0.9697390    -0.1110850
  C       -2.1414430    -0.6044570     0.0238790
  C        0.1521222     0.0780443     0.0491286
  C       -0.7695060    -0.9522330     0.1212440
  C       -2.2969850     0.7606620    -0.1265510
  C        1.5543500     0.2131940     0.1149440
  C       -3.2736380    -1.5890470     0.0915590
  C        3.6575090    -0.9906510    -0.1565210
  H       -0.4188890    -1.9677560     0.2899290
  H       -3.2284760     1.3059560    -0.2284190
  H       -3.2707310    -2.1282860     1.0440440
  H       -4.2368380    -1.0812090    -0.0045560
  H       -3.2021610    -2.3307440    -0.7101950
  H        1.7010110    -1.6882330    -0.6139760
  H        4.0494680    -0.5484410    -1.0790020
  H        3.9975300    -2.0243190    -0.0750760
  H        4.0378180    -0.4153140     0.6868970
units angstrom
no_reorient  #important for SAPT in psi4, default
symmetry c1  #important for SAPT in psi4, default
}

set PROPERTIES_ORIGIN ["COM"]
properties('MP2/aug-cc-pvtz', properties = ['dipole'])
--------------------------------------------------------------------------

    Molecular point group: c1
  Charge       = 0
  Multiplicity = 1
  Basis Set: AUG-CC-PVTZ
    Blend: AUG-CC-PVTZ
  Basis Set: (AUG-CC-PVTZ AUX)
    Blend: AUG-CC-PVTZ-JKFIT

    Orbital Energies [Eh]
    ---------------------

    Doubly Occupied:

       1A    -91.988322     2A    -20.520690     3A    -15.586904
       4A    -11.355912     5A    -11.276679     6A    -11.276547
       7A    -11.266248     8A    -11.259034     9A    -11.256227
      10A    -11.240514    11A     -8.986815    12A     -6.667646
      13A     -6.666975    14A     -6.666411    15A     -1.376890
      16A     -1.232586    17A     -1.177169    18A     -1.049224
      19A     -1.011605    20A     -0.957636    21A     -0.919837
      22A     -0.839755    23A     -0.769469    24A     -0.753929
      25A     -0.710350    26A     -0.644518    27A     -0.629085
      28A     -0.619648    29A     -0.597752    30A     -0.592363
      31A     -0.573209    32A     -0.550650    33A     -0.550421
      34A     -0.539412    35A     -0.513271    36A     -0.495908
      37A     -0.466555    38A     -0.436278    39A     -0.398500
      40A     -0.352422    41A     -0.326143

  @DF-RHF Final Energy:  -797.30880914424620

   => Energetics <=

    Nuclear Repulsion Energy =            587.3200723809413830
    One-Electron Energy =               -2259.0587454519218227
    Two-Electron Energy =                 874.4298639267342423
    Total Energy =                       -797.3088091442461973
  Basis Set: (AUG-CC-PVTZ AUX)
    Blend: AUG-CC-PVTZ-RI
    Molecular point group: c1

    Geometry (in Angstrom), charge = 0, multiplicity = 1:

       Center              X                  Y                   Z               Mass
    ------------   -----------------  -----------------  -----------------  -----------------
         S           -0.814870785450     1.541474224864    -0.145478077127    31.972071174400
         O            2.136932214550     1.199561224864     0.380240922873    15.994914619570
         N            2.195487214550    -1.034314775136    -0.116610077127    14.003074004430
         C           -2.150937785450    -0.669032775136     0.018353922873    12.000000000000
         C            0.142627414550     0.013468524864     0.043603522873    12.000000000000
         C           -0.779000785450    -1.016808775136     0.115718922873    12.000000000000
         C           -2.306479785450     0.696086224864    -0.132076077127    12.000000000000
         C            1.544855214550     0.148618224864     0.109418922873    12.000000000000
         C           -3.283132785450    -1.653622775136     0.086033922873    12.000000000000
         C            3.648014214550    -1.055226775136    -0.162046077127    12.000000000000
         H           -0.428383785450    -2.032331775136     0.284403922873     1.007825032230
         H           -3.237970785450     1.241380224864    -0.233944077127     1.007825032230
         H           -3.280225785450    -2.192861775136     1.038518922873     1.007825032230
         H           -4.246332785450    -1.145784775136    -0.010081077127     1.007825032230
         H           -3.211655785450    -2.395319775136    -0.715720077127     1.007825032230
         H            1.691516214550    -1.752808775136    -0.619501077127     1.007825032230
         H            4.039973214550    -0.613016775136    -1.084527077127     1.007825032230
         H            3.988035214550    -2.088894775136    -0.080601077127     1.007825032230
         H            4.028323214550    -0.479889775136     0.681371922873     1.007825032230

  Basis Set: AUG-CC-PVTZ
    Blend: AUG-CC-PVTZ
  Basis Set: (AUG-CC-PVTZ AUX)
    Blend: AUG-CC-PVTZ-JKFIT
	 Reference Energy          =    -797.3088091442461973 [Eh]
	 Singles Energy            =      -0.0000000000000000 [Eh]
	 Same-Spin Energy          =      -0.4876634942742543 [Eh]
	 Opposite-Spin Energy      =      -1.5055335704208210 [Eh]
	 Correlation Energy        =      -1.9931970646950754 [Eh]
	 Total Energy              =    -799.3020062089412932 [Eh]

	 ================> DF-SCS-MP2 Energies <==================
	-----------------------------------------------------------
	 SCS Same-Spin Scale       =       0.3333333333333333 [-]
	 SCS Opposite-Spin Scale   =       1.2000000000000000 [-]
	 SCS Same-Spin Energy      =      -0.1625544980914181 [Eh]
	 SCS Opposite-Spin Energy  =      -1.8066402845049851 [Eh]
	 SCS Correlation Energy    =      -1.9691947825964033 [Eh]
	 SCS Total Energy          =    -799.2780039268426435 [Eh]
	-----------------------------------------------------------

  Dipole Moment: [D]
     X:    -1.6575      Y:    -3.8696      Z:    -1.1334     Total:     4.3596

*** Psi4 exiting successfully. Buy a developer a beer!
