                               Psi4 1.4a3.dev225

  ==> Input File <==

--------------------------------------------------------------------------
#psi4
#
memory 32 gb

molecule  {
0 1
  S       -0.8053760     1.6060500    -0.1399530
  O        2.1464270     1.2641370     0.3857660
  N        2.2049820    -0.9697390    -0.1110850
  C       -2.1414430    -0.6044570     0.0238790
  C        0.0782130     0.1386370     0.0349560
  C       -0.7695060    -0.9522330     0.1212440
  C       -2.2969850     0.7606620    -0.1265510
  C        1.5543500     0.2131940     0.1149440
  C       -3.2736380    -1.5890470     0.0915590
  C        3.6575090    -0.9906510    -0.1565210
  H       -0.4188890    -1.9677560     0.2899290
  H       -3.2284760     1.3059560    -0.2284190
  H       -3.2707310    -2.1282860     1.0440440
  H       -4.2368380    -1.0812090    -0.0045560
  H       -3.1891004    -2.4662699    -0.8566947
  H        1.7010110    -1.6882330    -0.6139760
  H        4.0494680    -0.5484410    -1.0790020
  H        3.9975300    -2.0243190    -0.0750760
  H        4.0378180    -0.4153140     0.6868970
units angstrom
no_reorient  #important for SAPT in psi4, default
symmetry c1  #important for SAPT in psi4, default
}

set PROPERTIES_ORIGIN ["COM"]
properties('MP2/aug-cc-pvtz', properties = ['dipole'])
--------------------------------------------------------------------------

    Molecular point group: c1
  Charge       = 0
  Multiplicity = 1
  Basis Set: AUG-CC-PVTZ
    Blend: AUG-CC-PVTZ
  Basis Set: (AUG-CC-PVTZ AUX)
    Blend: AUG-CC-PVTZ-JKFIT

    Orbital Energies [Eh]
    ---------------------

    Doubly Occupied:

       1A    -91.991586     2A    -20.522528     3A    -15.589839
       4A    -11.361520     5A    -11.275865     6A    -11.271095
       7A    -11.260964     8A    -11.260930     9A    -11.258212
      10A    -11.255976    11A     -8.991329    12A     -6.672197
      13A     -6.671642    14A     -6.670928    15A     -1.376965
      16A     -1.232241    17A     -1.184620    18A     -1.044163
      19A     -1.007637    20A     -0.952829    21A     -0.915884
      22A     -0.828901    23A     -0.769349    24A     -0.750050
      25A     -0.709215    26A     -0.644516    27A     -0.628846
      28A     -0.620787    29A     -0.595281    30A     -0.575240
      31A     -0.563542    32A     -0.552121    33A     -0.546592
      34A     -0.534837    35A     -0.518209    36A     -0.496682
      37A     -0.477419    38A     -0.435372    39A     -0.399304
      40A     -0.348597    41A     -0.328332

  @DF-RHF Final Energy:  -797.29978628046263

   => Energetics <=

    Nuclear Repulsion Energy =            587.1528174950291259
    One-Electron Energy =               -2258.7209243815391346
    Two-Electron Energy =                 874.2683206060474959
    Total Energy =                       -797.2997862804626266
  Basis Set: (AUG-CC-PVTZ AUX)
    Blend: AUG-CC-PVTZ-RI
    Molecular point group: c1

    Geometry (in Angstrom), charge = 0, multiplicity = 1:

       Center              X                  Y                   Z               Mass
    ------------   -----------------  -----------------  -----------------  -----------------
         S           -0.809235176145     1.537665374517    -0.143428823575    31.972071174400
         O            2.142567823855     1.195752374517     0.382290176425    15.994914619570
         N            2.201122823855    -1.038123625483    -0.114560823575    14.003074004430
         C           -2.145302176145    -0.672841625483     0.020403176425    12.000000000000
         C            0.074353823855     0.070252374517     0.031480176425    12.000000000000
         C           -0.773365176145    -1.020617625483     0.117768176425    12.000000000000
         C           -2.300844176145     0.692277374517    -0.130026823575    12.000000000000
         C            1.550490823855     0.144809374517     0.111468176425    12.000000000000
         C           -3.277497176145    -1.657431625483     0.088083176425    12.000000000000
         C            3.653649823855    -1.059035625483    -0.159996823575    12.000000000000
         H           -0.422748176145    -2.036140625483     0.286453176425     1.007825032230
         H           -3.232335176145     1.237571374517    -0.231894823575     1.007825032230
         H           -3.274590176145    -2.196670625483     1.040568176425     1.007825032230
         H           -4.240697176145    -1.149593625483    -0.008031823575     1.007825032230
         H           -3.192959576145    -2.534654525483    -0.860170523575     1.007825032230
         H            1.697151823855    -1.756617625483    -0.617451823575     1.007825032230
         H            4.045608823855    -0.616825625483    -1.082477823575     1.007825032230
         H            3.993670823855    -2.092703625483    -0.078551823575     1.007825032230
         H            4.033958823855    -0.483698625483     0.683421176425     1.007825032230

  Basis Set: AUG-CC-PVTZ
    Blend: AUG-CC-PVTZ
  Basis Set: (AUG-CC-PVTZ AUX)
    Blend: AUG-CC-PVTZ-JKFIT
	 Reference Energy          =    -797.2997862804626266 [Eh]
	 Singles Energy            =      -0.0000000000000000 [Eh]
	 Same-Spin Energy          =      -0.4869241842251724 [Eh]
	 Opposite-Spin Energy      =      -1.5051915953842978 [Eh]
	 Correlation Energy        =      -1.9921157796094702 [Eh]
	 Total Energy              =    -799.2919020600720614 [Eh]

	 ================> DF-SCS-MP2 Energies <==================
	-----------------------------------------------------------
	 SCS Same-Spin Scale       =       0.3333333333333333 [-]
	 SCS Opposite-Spin Scale   =       1.2000000000000000 [-]
	 SCS Same-Spin Energy      =      -0.1623080614083908 [Eh]
	 SCS Opposite-Spin Energy  =      -1.8062299144611573 [Eh]
	 SCS Correlation Energy    =      -1.9685379758695480 [Eh]
	 SCS Total Energy          =    -799.2683242563322210 [Eh]
	-----------------------------------------------------------

  Dipole Moment: [D]
     X:    -1.4179      Y:    -3.6221      Z:    -1.0752     Total:     4.0356

*** Psi4 exiting successfully. Buy a developer a beer!
