                               Psi4 1.4a3.dev225

  ==> Input File <==

--------------------------------------------------------------------------
#psi4
#
memory 32 gb

molecule  {
0 1
  S       -0.8053760     1.6060500    -0.1399530
  O        2.1464270     1.2641370     0.3857660
  N        2.2049820    -0.9697390    -0.1110850
  C       -2.1414430    -0.6044570     0.0238790
  C        0.0782130     0.1386370     0.0349560
  C       -0.7579278    -0.9043003     0.1167171
  C       -2.2969850     0.7606620    -0.1265510
  C        1.5543500     0.2131940     0.1149440
  C       -3.2736380    -1.5890470     0.0915590
  C        3.6575090    -0.9906510    -0.1565210
  H       -0.4188890    -1.9677560     0.2899290
  H       -3.2284760     1.3059560    -0.2284190
  H       -3.2707310    -2.1282860     1.0440440
  H       -4.2368380    -1.0812090    -0.0045560
  H       -3.2021610    -2.3307440    -0.7101950
  H        1.7010110    -1.6882330    -0.6139760
  H        4.0494680    -0.5484410    -1.0790020
  H        3.9975300    -2.0243190    -0.0750760
  H        4.0378180    -0.4153140     0.6868970
units angstrom
no_reorient  #important for SAPT in psi4, default
symmetry c1  #important for SAPT in psi4, default
}

set PROPERTIES_ORIGIN ["COM"]
properties('MP2/aug-cc-pvtz', properties = ['dipole'])
--------------------------------------------------------------------------

    Molecular point group: c1
  Charge       = 0
  Multiplicity = 1
  Basis Set: AUG-CC-PVTZ
    Blend: AUG-CC-PVTZ
  Basis Set: (AUG-CC-PVTZ AUX)
    Blend: AUG-CC-PVTZ-JKFIT

    Orbital Energies [Eh]
    ---------------------

    Doubly Occupied:

       1A    -91.987252     2A    -20.522748     3A    -15.589825
       4A    -11.361860     5A    -11.269690     6A    -11.269069
       7A    -11.260934     8A    -11.255684     9A    -11.253134
      10A    -11.239658    11A     -8.987317    12A     -6.668189
      13A     -6.667666    14A     -6.666883    15A     -1.377091
      16A     -1.232441    17A     -1.188979    18A     -1.048458
      19A     -1.007905    20A     -0.955417    21A     -0.923489
      22A     -0.828025    23A     -0.769301    24A     -0.749345
      25A     -0.710600    26A     -0.644302    27A     -0.629653
      28A     -0.620766    29A     -0.592217    30A     -0.589623
      31A     -0.568580    32A     -0.552137    33A     -0.551176
      34A     -0.535093    35A     -0.520145    36A     -0.502712
      37A     -0.476171    38A     -0.435523    39A     -0.399183
      40A     -0.350869    41A     -0.329860

  @DF-RHF Final Energy:  -797.31798593813812

   => Energetics <=

    Nuclear Repulsion Energy =            588.8802207470793064
    One-Electron Energy =               -2262.2184705548675083
    Two-Electron Energy =                 876.0202638696499662
    Total Energy =                       -797.3179859381381220
  Basis Set: (AUG-CC-PVTZ AUX)
    Blend: AUG-CC-PVTZ-RI
    Molecular point group: c1

    Geometry (in Angstrom), charge = 0, multiplicity = 1:

       Center              X                  Y                   Z               Mass
    ------------   -----------------  -----------------  -----------------  -----------------
         S           -0.810046419739     1.533074452384    -0.144030751934    31.972071174400
         O            2.141756580261     1.191161452384     0.381688248066    15.994914619570
         N            2.200311580261    -1.042714547616    -0.115162751934    14.003074004430
         C           -2.146113419739    -0.677432547616     0.019801248066    12.000000000000
         C            0.073542580261     0.065661452384     0.030878248066    12.000000000000
         C           -0.762598219739    -0.977275847616     0.112639348066    12.000000000000
         C           -2.301655419739     0.687686452384    -0.130628751934    12.000000000000
         C            1.549679580261     0.140218452384     0.110866248066    12.000000000000
         C           -3.278308419739    -1.662022547616     0.087481248066    12.000000000000
         C            3.652838580261    -1.063626547616    -0.160598751934    12.000000000000
         H           -0.423559419739    -2.040731547616     0.285851248066     1.007825032230
         H           -3.233146419739     1.232980452384    -0.232496751934     1.007825032230
         H           -3.275401419739    -2.201261547616     1.039966248066     1.007825032230
         H           -4.241508419739    -1.154184547616    -0.008633751934     1.007825032230
         H           -3.206831419739    -2.403719547616    -0.714272751934     1.007825032230
         H            1.696340580261    -1.761208547616    -0.618053751934     1.007825032230
         H            4.044797580261    -0.621416547616    -1.083079751934     1.007825032230
         H            3.992859580261    -2.097294547616    -0.079153751934     1.007825032230
         H            4.033147580261    -0.488289547616     0.682819248066     1.007825032230

  Basis Set: AUG-CC-PVTZ
    Blend: AUG-CC-PVTZ
  Basis Set: (AUG-CC-PVTZ AUX)
    Blend: AUG-CC-PVTZ-JKFIT
	 Reference Energy          =    -797.3179859381381220 [Eh]
	 Singles Energy            =      -0.0000000000000000 [Eh]
	 Same-Spin Energy          =      -0.4863956518700643 [Eh]
	 Opposite-Spin Energy      =      -1.5028996730414437 [Eh]
	 Correlation Energy        =      -1.9892953249115080 [Eh]
	 Total Energy              =    -799.3072812630496173 [Eh]

	 ================> DF-SCS-MP2 Energies <==================
	-----------------------------------------------------------
	 SCS Same-Spin Scale       =       0.3333333333333333 [-]
	 SCS Opposite-Spin Scale   =       1.2000000000000000 [-]
	 SCS Same-Spin Energy      =      -0.1621318839566881 [Eh]
	 SCS Opposite-Spin Energy  =      -1.8034796076497324 [Eh]
	 SCS Correlation Energy    =      -1.9656114916064205 [Eh]
	 SCS Total Energy          =    -799.2835974297445318 [Eh]
	-----------------------------------------------------------

  Dipole Moment: [D]
     X:    -1.4832      Y:    -3.8054      Z:    -1.1424     Total:     4.2410

*** Psi4 exiting successfully. Buy a developer a beer!
