                               Psi4 1.4a3.dev225

  ==> Input File <==

--------------------------------------------------------------------------
#psi4
#
memory 32 gb

molecule  {
0 1
  S       -0.8053760     1.6060500    -0.1399530
  O        2.1464270     1.2641370     0.3857660
  N        2.2049820    -0.9697390    -0.1110850
  C       -2.1414430    -0.6044570     0.0238790
  C        0.0782130     0.1386370     0.0349560
  C       -0.7695060    -0.9522330     0.1212440
  C       -2.2534870     0.7853150    -0.1269418
  C        1.5543500     0.2131940     0.1149440
  C       -3.2736380    -1.5890470     0.0915590
  C        3.6575090    -0.9906510    -0.1565210
  H       -0.4188890    -1.9677560     0.2899290
  H       -3.2284760     1.3059560    -0.2284190
  H       -3.2707310    -2.1282860     1.0440440
  H       -4.2368380    -1.0812090    -0.0045560
  H       -3.2021610    -2.3307440    -0.7101950
  H        1.7010110    -1.6882330    -0.6139760
  H        4.0494680    -0.5484410    -1.0790020
  H        3.9975300    -2.0243190    -0.0750760
  H        4.0378180    -0.4153140     0.6868970
units angstrom
no_reorient  #important for SAPT in psi4, default
symmetry c1  #important for SAPT in psi4, default
}

set PROPERTIES_ORIGIN ["COM"]
properties('MP2/aug-cc-pvtz', properties = ['dipole'])
--------------------------------------------------------------------------

    Molecular point group: c1
  Charge       = 0
  Multiplicity = 1
  Basis Set: AUG-CC-PVTZ
    Blend: AUG-CC-PVTZ
  Basis Set: (AUG-CC-PVTZ AUX)
    Blend: AUG-CC-PVTZ-JKFIT

    Orbital Energies [Eh]
    ---------------------

    Doubly Occupied:

       1A    -91.992705     2A    -20.520388     3A    -15.588319
       4A    -11.359625     5A    -11.271968     6A    -11.270281
       7A    -11.259987     8A    -11.256729     9A    -11.254253
      10A    -11.238925    11A     -8.993350    12A     -6.674304
      13A     -6.673650    14A     -6.672935    15A     -1.375157
      16A     -1.230784    17A     -1.187080    18A     -1.045120
      19A     -1.012807    20A     -0.953749    21A     -0.921138
      22A     -0.825882    23A     -0.767211    24A     -0.747496
      25A     -0.708790    26A     -0.642885    27A     -0.628361
      28A     -0.620666    29A     -0.591294    30A     -0.589447
      31A     -0.564504    32A     -0.551304    33A     -0.549572
      34A     -0.530823    35A     -0.528429    36A     -0.503290
      37A     -0.483504    38A     -0.433615    39A     -0.398159
      40A     -0.351623    41A     -0.322734

  @DF-RHF Final Energy:  -797.31601251772622

   => Energetics <=

    Nuclear Repulsion Energy =            588.7151039935737344
    One-Electron Energy =               -2261.8765468934439014
    Two-Electron Energy =                 875.8454303821438316
    Total Energy =                       -797.3160125177262216
  Basis Set: (AUG-CC-PVTZ AUX)
    Blend: AUG-CC-PVTZ-RI
    Molecular point group: c1

    Geometry (in Angstrom), charge = 0, multiplicity = 1:

       Center              X                  Y                   Z               Mass
    ------------   -----------------  -----------------  -----------------  -----------------
         S           -0.812516984765     1.534876281111    -0.144350882512    31.972071174400
         O            2.139286015235     1.192963281111     0.381368117488    15.994914619570
         N            2.197841015235    -1.040912718889    -0.115482882512    14.003074004430
         C           -2.148583984765    -0.675630718889     0.019481117488    12.000000000000
         C            0.071072015235     0.067463281111     0.030558117488    12.000000000000
         C           -0.776646984765    -1.023406718889     0.116846117488    12.000000000000
         C           -2.260627984765     0.714141281111    -0.131339682512    12.000000000000
         C            1.547209015235     0.142020281111     0.110546117488    12.000000000000
         C           -3.280778984765    -1.660220718889     0.087161117488    12.000000000000
         C            3.650368015235    -1.061824718889    -0.160918882512    12.000000000000
         H           -0.426029984765    -2.038929718889     0.285531117488     1.007825032230
         H           -3.235616984765     1.234782281111    -0.232816882512     1.007825032230
         H           -3.277871984765    -2.199459718889     1.039646117488     1.007825032230
         H           -4.243978984765    -1.152382718889    -0.008953882512     1.007825032230
         H           -3.209301984765    -2.401917718889    -0.714592882512     1.007825032230
         H            1.693870015235    -1.759406718889    -0.618373882512     1.007825032230
         H            4.042327015235    -0.619614718889    -1.083399882512     1.007825032230
         H            3.990389015235    -2.095492718889    -0.079473882512     1.007825032230
         H            4.030677015235    -0.486487718889     0.682499117488     1.007825032230

  Basis Set: AUG-CC-PVTZ
    Blend: AUG-CC-PVTZ
  Basis Set: (AUG-CC-PVTZ AUX)
    Blend: AUG-CC-PVTZ-JKFIT
	 Reference Energy          =    -797.3160125177262216 [Eh]
	 Singles Energy            =      -0.0000000000000000 [Eh]
	 Same-Spin Energy          =      -0.4878362643526964 [Eh]
	 Opposite-Spin Energy      =      -1.5041614968650601 [Eh]
	 Correlation Energy        =      -1.9919977612177564 [Eh]
	 Total Energy              =    -799.3080102789439252 [Eh]

	 ================> DF-SCS-MP2 Energies <==================
	-----------------------------------------------------------
	 SCS Same-Spin Scale       =       0.3333333333333333 [-]
	 SCS Opposite-Spin Scale   =       1.2000000000000000 [-]
	 SCS Same-Spin Energy      =      -0.1626120881175655 [Eh]
	 SCS Opposite-Spin Energy  =      -1.8049937962380720 [Eh]
	 SCS Correlation Energy    =      -1.9676058843556374 [Eh]
	 SCS Total Energy          =    -799.2836184020818564 [Eh]
	-----------------------------------------------------------

  Dipole Moment: [D]
     X:    -1.5215      Y:    -3.6969      Z:    -1.1508     Total:     4.1601

*** Psi4 exiting successfully. Buy a developer a beer!
