                               Psi4 1.4a3.dev225

  ==> Input File <==

--------------------------------------------------------------------------
#psi4
#
memory 32 gb

molecule  {
0 1
  S       -0.8053760     1.6060500    -0.1399530
  O        2.1464270     1.2641370     0.3857660
  N        2.2049820    -0.9697390    -0.1110850
  C       -2.1414430    -0.6044570     0.0238790
  C        0.0782130     0.1386370     0.0349560
  C       -0.7695060    -0.9522330     0.1212440
  C       -2.3143842     0.7508008    -0.1263947
  C        1.5543500     0.2131940     0.1149440
  C       -3.2736380    -1.5890470     0.0915590
  C        3.6575090    -0.9906510    -0.1565210
  H       -0.4188890    -1.9677560     0.2899290
  H       -3.2284760     1.3059560    -0.2284190
  H       -3.2707310    -2.1282860     1.0440440
  H       -4.2368380    -1.0812090    -0.0045560
  H       -3.2021610    -2.3307440    -0.7101950
  H        1.7010110    -1.6882330    -0.6139760
  H        4.0494680    -0.5484410    -1.0790020
  H        3.9975300    -2.0243190    -0.0750760
  H        4.0378180    -0.4153140     0.6868970
units angstrom
no_reorient  #important for SAPT in psi4, default
symmetry c1  #important for SAPT in psi4, default
}

set PROPERTIES_ORIGIN ["COM"]
properties('MP2/aug-cc-pvtz', properties = ['dipole'])
--------------------------------------------------------------------------

    Molecular point group: c1
  Charge       = 0
  Multiplicity = 1
  Basis Set: AUG-CC-PVTZ
    Blend: AUG-CC-PVTZ
  Basis Set: (AUG-CC-PVTZ AUX)
    Blend: AUG-CC-PVTZ-JKFIT

    Orbital Energies [Eh]
    ---------------------

    Doubly Occupied:

       1A    -91.989406     2A    -20.522453     3A    -15.589797
       4A    -11.361362     5A    -11.276116     6A    -11.268796
       7A    -11.260912     8A    -11.257473     9A    -11.253953
      10A    -11.238078    11A     -8.988862    12A     -6.669714
      13A     -6.669167    14A     -6.668469    15A     -1.376804
      16A     -1.232146    17A     -1.182402    18A     -1.047517
      19A     -1.005091    20A     -0.954248    21A     -0.923376
      22A     -0.829870    23A     -0.769361    24A     -0.751185
      25A     -0.708690    26A     -0.644534    27A     -0.629236
      28A     -0.620434    29A     -0.595986    30A     -0.591040
      31A     -0.568906    32A     -0.551875    33A     -0.549190
      34A     -0.536058    35A     -0.521772    36A     -0.499856
      37A     -0.475535    38A     -0.435063    39A     -0.399121
      40A     -0.347119    41A     -0.329823

  @DF-RHF Final Energy:  -797.31952109139991

   => Energetics <=

    Nuclear Repulsion Energy =            587.6301302154201949
    One-Electron Energy =               -2259.7177109269778157
    Two-Electron Energy =                 874.7680596201577146
    Total Energy =                       -797.3195210913999063
  Basis Set: (AUG-CC-PVTZ AUX)
    Blend: AUG-CC-PVTZ-RI
    Molecular point group: c1

    Geometry (in Angstrom), charge = 0, multiplicity = 1:

       Center              X                  Y                   Z               Mass
    ------------   -----------------  -----------------  -----------------  -----------------
         S           -0.807803593939     1.537547650462    -0.144393227580    31.972071174400
         O            2.143999406061     1.195634650462     0.381325772420    15.994914619570
         N            2.202554406061    -1.038241349538    -0.115525227580    14.003074004430
         C           -2.143870593939    -0.672959349538     0.019438772420    12.000000000000
         C            0.075785406061     0.070134650462     0.030515772420    12.000000000000
         C           -0.771933593939    -1.020735349538     0.116803772420    12.000000000000
         C           -2.316811793939     0.682298450462    -0.130834927580    12.000000000000
         C            1.551922406061     0.144691650462     0.110503772420    12.000000000000
         C           -3.276065593939    -1.657549349538     0.087118772420    12.000000000000
         C            3.655081406061    -1.059153349538    -0.160961227580    12.000000000000
         H           -0.421316593939    -2.036258349538     0.285488772420     1.007825032230
         H           -3.230903593939     1.237453650462    -0.232859227580     1.007825032230
         H           -3.273158593939    -2.196788349538     1.039603772420     1.007825032230
         H           -4.239265593939    -1.149711349538    -0.008996227580     1.007825032230
         H           -3.204588593939    -2.399246349538    -0.714635227580     1.007825032230
         H            1.698583406061    -1.756735349538    -0.618416227580     1.007825032230
         H            4.047040406061    -0.616943349538    -1.083442227580     1.007825032230
         H            3.995102406061    -2.092821349538    -0.079516227580     1.007825032230
         H            4.035390406061    -0.483816349538     0.682456772420     1.007825032230

  Basis Set: AUG-CC-PVTZ
    Blend: AUG-CC-PVTZ
  Basis Set: (AUG-CC-PVTZ AUX)
    Blend: AUG-CC-PVTZ-JKFIT
	 Reference Energy          =    -797.3195210913999063 [Eh]
	 Singles Energy            =      -0.0000000000000000 [Eh]
	 Same-Spin Energy          =      -0.4867311282447569 [Eh]
	 Opposite-Spin Energy      =      -1.5037217041208606 [Eh]
	 Correlation Energy        =      -1.9904528323656174 [Eh]
	 Total Energy              =    -799.3099739237654831 [Eh]

	 ================> DF-SCS-MP2 Energies <==================
	-----------------------------------------------------------
	 SCS Same-Spin Scale       =       0.3333333333333333 [-]
	 SCS Opposite-Spin Scale   =       1.2000000000000000 [-]
	 SCS Same-Spin Energy      =      -0.1622437094149189 [Eh]
	 SCS Opposite-Spin Energy  =      -1.8044660449450327 [Eh]
	 SCS Correlation Energy    =      -1.9667097543599517 [Eh]
	 SCS Total Energy          =    -799.2862308457598601 [Eh]
	-----------------------------------------------------------

  Dipole Moment: [D]
     X:    -1.4829      Y:    -3.7685      Z:    -1.1428     Total:     4.2080

*** Psi4 exiting successfully. Buy a developer a beer!
