                               Psi4 1.4a3.dev225

  ==> Input File <==

--------------------------------------------------------------------------
#psi4
#
memory 32 gb

molecule  {
0 1
  S       -0.8053760     1.6060500    -0.1399530
  O        2.1464270     1.2641370     0.3857660
  N        2.2049820    -0.9697390    -0.1110850
  C       -2.1414430    -0.6044570     0.0238790
  C        0.0782130     0.1386370     0.0349560
  C       -0.7480352    -0.8560023     0.1120772
  C       -2.2969850     0.7606620    -0.1265510
  C        1.5543500     0.2131940     0.1149440
  C       -3.2736380    -1.5890470     0.0915590
  C        3.6575090    -0.9906510    -0.1565210
  H       -0.4188890    -1.9677560     0.2899290
  H       -3.2284760     1.3059560    -0.2284190
  H       -3.2707310    -2.1282860     1.0440440
  H       -4.2368380    -1.0812090    -0.0045560
  H       -3.2021610    -2.3307440    -0.7101950
  H        1.7010110    -1.6882330    -0.6139760
  H        4.0494680    -0.5484410    -1.0790020
  H        3.9975300    -2.0243190    -0.0750760
  H        4.0378180    -0.4153140     0.6868970
units angstrom
no_reorient  #important for SAPT in psi4, default
symmetry c1  #important for SAPT in psi4, default
}

set PROPERTIES_ORIGIN ["COM"]
properties('MP2/aug-cc-pvtz', properties = ['dipole'])
--------------------------------------------------------------------------

    Molecular point group: c1
  Charge       = 0
  Multiplicity = 1
  Basis Set: AUG-CC-PVTZ
    Blend: AUG-CC-PVTZ
  Basis Set: (AUG-CC-PVTZ AUX)
    Blend: AUG-CC-PVTZ-JKFIT

    Orbital Energies [Eh]
    ---------------------

    Doubly Occupied:

       1A    -91.984352     2A    -20.523722     3A    -15.590301
       4A    -11.362978     5A    -11.269127     6A    -11.264347
       7A    -11.261231     8A    -11.254199     9A    -11.252590
      10A    -11.241046    11A     -8.984733    12A     -6.665603
      13A     -6.665113    14A     -6.664254    15A     -1.377930
      16A     -1.233223    17A     -1.195248    18A     -1.051196
      19A     -1.008275    20A     -0.956803    21A     -0.924282
      22A     -0.827643    23A     -0.770332    24A     -0.751862
      25A     -0.709306    26A     -0.644614    27A     -0.630452
      28A     -0.621301    29A     -0.593179    30A     -0.587696
      31A     -0.569341    32A     -0.553820    33A     -0.552213
      34A     -0.536607    35A     -0.513317    36A     -0.504760
      37A     -0.473296    38A     -0.436003    39A     -0.399511
      40A     -0.354734    41A     -0.330936

  @DF-RHF Final Energy:  -797.30911824886095

   => Energetics <=

    Nuclear Repulsion Energy =            589.8657597528425640
    One-Electron Energy =               -2264.1668045303904364
    Two-Electron Energy =                 876.9919265286868040
    Total Energy =                       -797.3091182488609547
  Basis Set: (AUG-CC-PVTZ AUX)
    Blend: AUG-CC-PVTZ-RI
    Molecular point group: c1

    Geometry (in Angstrom), charge = 0, multiplicity = 1:

       Center              X                  Y                   Z               Mass
    ------------   -----------------  -----------------  -----------------  -----------------
         S           -0.810812098458     1.529336228786    -0.143671627671    31.972071174400
         O            2.140990901542     1.187423228786     0.382047372329    15.994914619570
         N            2.199545901542    -1.046452771214    -0.114803627671    14.003074004430
         C           -2.146879098458    -0.681170771214     0.020160372329    12.000000000000
         C            0.072776901542     0.061923228786     0.031237372329    12.000000000000
         C           -0.753471298458    -0.932716071214     0.108358572329    12.000000000000
         C           -2.302421098458     0.683948228786    -0.130269627671    12.000000000000
         C            1.548913901542     0.136480228786     0.111225372329    12.000000000000
         C           -3.279074098458    -1.665760771214     0.087840372329    12.000000000000
         C            3.652072901542    -1.067364771214    -0.160239627671    12.000000000000
         H           -0.424325098458    -2.044469771214     0.286210372329     1.007825032230
         H           -3.233912098458     1.229242228786    -0.232137627671     1.007825032230
         H           -3.276167098458    -2.204999771214     1.040325372329     1.007825032230
         H           -4.242274098458    -1.157922771214    -0.008274627671     1.007825032230
         H           -3.207597098458    -2.407457771214    -0.713913627671     1.007825032230
         H            1.695574901542    -1.764946771214    -0.617694627671     1.007825032230
         H            4.044031901542    -0.625154771214    -1.082720627671     1.007825032230
         H            3.992093901542    -2.101032771214    -0.078794627671     1.007825032230
         H            4.032381901542    -0.492027771214     0.683178372329     1.007825032230

  Basis Set: AUG-CC-PVTZ
    Blend: AUG-CC-PVTZ
  Basis Set: (AUG-CC-PVTZ AUX)
    Blend: AUG-CC-PVTZ-JKFIT
	 Reference Energy          =    -797.3091182488609547 [Eh]
	 Singles Energy            =      -0.0000000000000000 [Eh]
	 Same-Spin Energy          =      -0.4859588153269589 [Eh]
	 Opposite-Spin Energy      =      -1.5023643722727846 [Eh]
	 Correlation Energy        =      -1.9883231875997436 [Eh]
	 Total Energy              =    -799.2974414364606446 [Eh]

	 ================> DF-SCS-MP2 Energies <==================
	-----------------------------------------------------------
	 SCS Same-Spin Scale       =       0.3333333333333333 [-]
	 SCS Opposite-Spin Scale   =       1.2000000000000000 [-]
	 SCS Same-Spin Energy      =      -0.1619862717756530 [Eh]
	 SCS Opposite-Spin Energy  =      -1.8028372467273415 [Eh]
	 SCS Correlation Energy    =      -1.9648235185029945 [Eh]
	 SCS Total Energy          =    -799.2739417673639082 [Eh]
	-----------------------------------------------------------

  Dipole Moment: [D]
     X:    -1.4754      Y:    -3.8533      Z:    -1.1412     Total:     4.2810

*** Psi4 exiting successfully. Buy a developer a beer!
