                               Psi4 1.4a3.dev225

  ==> Input File <==

--------------------------------------------------------------------------
#psi4
#
memory 32 gb

molecule  {
0 1
  S       -0.8053760     1.6060500    -0.1399530
  O        2.1464270     1.2641370     0.3857660
  N        2.2049820    -0.9697390    -0.1110850
  C       -2.1414430    -0.6044570     0.0238790
  C        0.0782130     0.1386370     0.0349560
  C       -0.7695060    -0.9522330     0.1212440
  C       -2.2969850     0.7606620    -0.1265510
  C        1.5543500     0.2131940     0.1149440
  C       -3.3490195    -1.6546010     0.0960651
  C        3.6575090    -0.9906510    -0.1565210
  H       -0.4188890    -1.9677560     0.2899290
  H       -3.2284760     1.3059560    -0.2284190
  H       -3.2707310    -2.1282860     1.0440440
  H       -4.2368380    -1.0812090    -0.0045560
  H       -3.2021610    -2.3307440    -0.7101950
  H        1.7010110    -1.6882330    -0.6139760
  H        4.0494680    -0.5484410    -1.0790020
  H        3.9975300    -2.0243190    -0.0750760
  H        4.0378180    -0.4153140     0.6868970
units angstrom
no_reorient  #important for SAPT in psi4, default
symmetry c1  #important for SAPT in psi4, default
}

set PROPERTIES_ORIGIN ["COM"]
properties('MP2/aug-cc-pvtz', properties = ['dipole'])
--------------------------------------------------------------------------

    Molecular point group: c1
  Charge       = 0
  Multiplicity = 1
  Basis Set: AUG-CC-PVTZ
    Blend: AUG-CC-PVTZ
  Basis Set: (AUG-CC-PVTZ AUX)
    Blend: AUG-CC-PVTZ-JKFIT

    Orbital Energies [Eh]
    ---------------------

    Doubly Occupied:

       1A    -91.990005     2A    -20.521403     3A    -15.588998
       4A    -11.360425     5A    -11.274196     6A    -11.268703
       7A    -11.260393     8A    -11.257633     9A    -11.256513
      10A    -11.237335    11A     -8.989737    12A     -6.670601
      13A     -6.670053    14A     -6.669340    15A     -1.375898
      16A     -1.231365    17A     -1.180774    18A     -1.036970
      19A     -1.005961    20A     -0.954506    21A     -0.926947
      22A     -0.827951    23A     -0.767832    24A     -0.748083
      25A     -0.705695    26A     -0.643691    27A     -0.626826
      28A     -0.616427    29A     -0.601911    30A     -0.599350
      31A     -0.561924    32A     -0.551901    33A     -0.549227
      34A     -0.542898    35A     -0.513352    36A     -0.502338
      37A     -0.474474    38A     -0.433206    39A     -0.398513
      40A     -0.348476    41A     -0.328328

  @DF-RHF Final Energy:  -797.31226662316067

   => Energetics <=

    Nuclear Repulsion Energy =            586.1814882144910825
    One-Electron Energy =               -2256.8471918415089021
    Two-Electron Energy =                 873.3534370038571524
    Total Energy =                       -797.3122666231606672
  Basis Set: (AUG-CC-PVTZ AUX)
    Blend: AUG-CC-PVTZ-RI
    Molecular point group: c1

    Geometry (in Angstrom), charge = 0, multiplicity = 1:

       Center              X                  Y                   Z               Mass
    ------------   -----------------  -----------------  -----------------  -----------------
         S           -0.803315813863     1.541858225211    -0.144729898354    31.972071174400
         O            2.148487186137     1.199945225211     0.380989101646    15.994914619570
         N            2.207042186137    -1.033930774789    -0.115861898354    14.003074004430
         C           -2.139382813863    -0.668648774789     0.019102101646    12.000000000000
         C            0.080273186137     0.074445225211     0.030179101646    12.000000000000
         C           -0.767445813863    -1.016424774789     0.116467101646    12.000000000000
         C           -2.294924813863     0.696470225211    -0.131327898354    12.000000000000
         C            1.556410186137     0.149002225211     0.110167101646    12.000000000000
         C           -3.346959313863    -1.718792774789     0.091288201646    12.000000000000
         C            3.659569186137    -1.054842774789    -0.161297898354    12.000000000000
         H           -0.416828813863    -2.031947774789     0.285152101646     1.007825032230
         H           -3.226415813863     1.241764225211    -0.233195898354     1.007825032230
         H           -3.268670813863    -2.192477774789     1.039267101646     1.007825032230
         H           -4.234777813863    -1.145400774789    -0.009332898354     1.007825032230
         H           -3.200100813863    -2.394935774789    -0.714971898354     1.007825032230
         H            1.703071186137    -1.752424774789    -0.618752898354     1.007825032230
         H            4.051528186137    -0.612632774789    -1.083778898354     1.007825032230
         H            3.999590186137    -2.088510774789    -0.079852898354     1.007825032230
         H            4.039878186137    -0.479505774789     0.682120101646     1.007825032230

  Basis Set: AUG-CC-PVTZ
    Blend: AUG-CC-PVTZ
  Basis Set: (AUG-CC-PVTZ AUX)
    Blend: AUG-CC-PVTZ-JKFIT
	 Reference Energy          =    -797.3122666231606672 [Eh]
	 Singles Energy            =      -0.0000000000000000 [Eh]
	 Same-Spin Energy          =      -0.4866331103321812 [Eh]
	 Opposite-Spin Energy      =      -1.5037220586495992 [Eh]
	 Correlation Energy        =      -1.9903551689817802 [Eh]
	 Total Energy              =    -799.3026217921424177 [Eh]

	 ================> DF-SCS-MP2 Energies <==================
	-----------------------------------------------------------
	 SCS Same-Spin Scale       =       0.3333333333333333 [-]
	 SCS Opposite-Spin Scale   =       1.2000000000000000 [-]
	 SCS Same-Spin Energy      =      -0.1622110367773937 [Eh]
	 SCS Opposite-Spin Energy  =      -1.8044664703795190 [Eh]
	 SCS Correlation Energy    =      -1.9666775071569127 [Eh]
	 SCS Total Energy          =    -799.2789441303175408 [Eh]
	-----------------------------------------------------------

  Dipole Moment: [D]
     X:    -1.5065      Y:    -3.7499      Z:    -1.1455     Total:     4.2004

*** Psi4 exiting successfully. Buy a developer a beer!
