                               Psi4 1.4a3.dev225

  ==> Input File <==

--------------------------------------------------------------------------
#psi4
#
memory 32 gb

molecule  {
0 1
  S       -0.8053760     1.6060500    -0.1399530
  O        2.1464270     1.2641370     0.3857660
  N        2.2049820    -0.9697390    -0.1110850
  C       -2.1414430    -0.6044570     0.0238790
  C       -0.0402764     0.2194759     0.0145064
  C       -0.7695060    -0.9522330     0.1212440
  C       -2.2969850     0.7606620    -0.1265510
  C        1.5543500     0.2131940     0.1149440
  C       -3.2736380    -1.5890470     0.0915590
  C        3.6575090    -0.9906510    -0.1565210
  H       -0.4188890    -1.9677560     0.2899290
  H       -3.2284760     1.3059560    -0.2284190
  H       -3.2707310    -2.1282860     1.0440440
  H       -4.2368380    -1.0812090    -0.0045560
  H       -3.2021610    -2.3307440    -0.7101950
  H        1.7010110    -1.6882330    -0.6139760
  H        4.0494680    -0.5484410    -1.0790020
  H        3.9975300    -2.0243190    -0.0750760
  H        4.0378180    -0.4153140     0.6868970
units angstrom
no_reorient  #important for SAPT in psi4, default
symmetry c1  #important for SAPT in psi4, default
}

set PROPERTIES_ORIGIN ["COM"]
properties('MP2/aug-cc-pvtz', properties = ['dipole'])
--------------------------------------------------------------------------

    Molecular point group: c1
  Charge       = 0
  Multiplicity = 1
  Basis Set: AUG-CC-PVTZ
    Blend: AUG-CC-PVTZ
  Basis Set: (AUG-CC-PVTZ AUX)
    Blend: AUG-CC-PVTZ-JKFIT

    Orbital Energies [Eh]
    ---------------------

    Doubly Occupied:

       1A    -91.991200     2A    -20.523140     3A    -15.592642
       4A    -11.366678     5A    -11.273515     6A    -11.262723
       7A    -11.258270     8A    -11.251355     9A    -11.245964
      10A    -11.235080    11A     -8.994283    12A     -6.675516
      13A     -6.674449    14A     -6.673687    15A     -1.375085
      16A     -1.231496    17A     -1.199461    18A     -1.051569
      19A     -0.997511    20A     -0.951814    21A     -0.927083
      22A     -0.812358    23A     -0.764431    24A     -0.747072
      25A     -0.705575    26A     -0.643639    27A     -0.630527
      28A     -0.621570    29A     -0.590249    30A     -0.588236
      31A     -0.557494    32A     -0.554330    33A     -0.549235
      34A     -0.541772    35A     -0.526905    36A     -0.509493
      37A     -0.486345    38A     -0.425446    39A     -0.399309
      40A     -0.346902    41A     -0.326152

  @DF-RHF Final Energy:  -797.29817292450639

   => Energetics <=

    Nuclear Repulsion Energy =            589.1516721696526702
    One-Electron Energy =               -2262.7405677554461363
    Two-Electron Energy =                 876.2907226612871909
    Total Energy =                       -797.2981729245063889
  Basis Set: (AUG-CC-PVTZ AUX)
    Blend: AUG-CC-PVTZ-RI
    Molecular point group: c1

    Geometry (in Angstrom), charge = 0, multiplicity = 1:

       Center              X                  Y                   Z               Mass
    ------------   -----------------  -----------------  -----------------  -----------------
         S           -0.799979299534     1.530527540848    -0.142798348670    31.972071174400
         O            2.151823700466     1.188614540848     0.382920651330    15.994914619570
         N            2.210378700466    -1.045261459152    -0.113930348670    14.003074004430
         C           -2.136046299534    -0.679979459152     0.021033651330    12.000000000000
         C           -0.034879699534     0.143953440848     0.011661051330    12.000000000000
         C           -0.764109299534    -1.027755459152     0.118398651330    12.000000000000
         C           -2.291588299534     0.685139540848    -0.129396348670    12.000000000000
         C            1.559746700466     0.137671540848     0.112098651330    12.000000000000
         C           -3.268241299534    -1.664569459152     0.088713651330    12.000000000000
         C            3.662905700466    -1.066173459152    -0.159366348670    12.000000000000
         H           -0.413492299534    -2.043278459152     0.287083651330     1.007825032230
         H           -3.223079299534     1.230433540848    -0.231264348670     1.007825032230
         H           -3.265334299534    -2.203808459152     1.041198651330     1.007825032230
         H           -4.231441299534    -1.156731459152    -0.007401348670     1.007825032230
         H           -3.196764299534    -2.406266459152    -0.713040348670     1.007825032230
         H            1.706407700466    -1.763755459152    -0.616821348670     1.007825032230
         H            4.054864700466    -0.623963459152    -1.081847348670     1.007825032230
         H            4.002926700466    -2.099841459152    -0.077921348670     1.007825032230
         H            4.043214700466    -0.490836459152     0.684051651330     1.007825032230

  Basis Set: AUG-CC-PVTZ
    Blend: AUG-CC-PVTZ
  Basis Set: (AUG-CC-PVTZ AUX)
    Blend: AUG-CC-PVTZ-JKFIT
	 Reference Energy          =    -797.2981729245063889 [Eh]
	 Singles Energy            =      -0.0000000000000000 [Eh]
	 Same-Spin Energy          =      -0.4876885404235131 [Eh]
	 Opposite-Spin Energy      =      -1.5037805098790491 [Eh]
	 Correlation Energy        =      -1.9914690503025620 [Eh]
	 Total Energy              =    -799.2896419748090011 [Eh]

	 ================> DF-SCS-MP2 Energies <==================
	-----------------------------------------------------------
	 SCS Same-Spin Scale       =       0.3333333333333333 [-]
	 SCS Opposite-Spin Scale   =       1.2000000000000000 [-]
	 SCS Same-Spin Energy      =      -0.1625628468078377 [Eh]
	 SCS Opposite-Spin Energy  =      -1.8045366118548589 [Eh]
	 SCS Correlation Energy    =      -1.9670994586626966 [Eh]
	 SCS Total Energy          =    -799.2652723831690764 [Eh]
	-----------------------------------------------------------

  Dipole Moment: [D]
     X:    -1.1913      Y:    -3.5678      Z:    -1.1588     Total:     3.9359

*** Psi4 exiting successfully. Buy a developer a beer!
