                               Psi4 1.4a3.dev225

  ==> Input File <==

--------------------------------------------------------------------------
#psi4
#
memory 32 gb

molecule  {
0 1
  S       -0.8053760     1.6060500    -0.1399530
  O        2.1652566     1.2537288     0.3841303
  N        2.2049820    -0.9697390    -0.1110850
  C       -2.1414430    -0.6044570     0.0238790
  C        0.0782130     0.1386370     0.0349560
  C       -0.7695060    -0.9522330     0.1212440
  C       -2.2969850     0.7606620    -0.1265510
  C        1.5543500     0.2131940     0.1149440
  C       -3.2736380    -1.5890470     0.0915590
  C        3.6575090    -0.9906510    -0.1565210
  H       -0.4188890    -1.9677560     0.2899290
  H       -3.2284760     1.3059560    -0.2284190
  H       -3.2707310    -2.1282860     1.0440440
  H       -4.2368380    -1.0812090    -0.0045560
  H       -3.2021610    -2.3307440    -0.7101950
  H        1.7010110    -1.6882330    -0.6139760
  H        4.0494680    -0.5484410    -1.0790020
  H        3.9975300    -2.0243190    -0.0750760
  H        4.0378180    -0.4153140     0.6868970
units angstrom
no_reorient  #important for SAPT in psi4, default
symmetry c1  #important for SAPT in psi4, default
}

set PROPERTIES_ORIGIN ["COM"]
properties('MP2/aug-cc-pvtz', properties = ['dipole'])
--------------------------------------------------------------------------

    Molecular point group: c1
  Charge       = 0
  Multiplicity = 1
  Basis Set: AUG-CC-PVTZ
    Blend: AUG-CC-PVTZ
  Basis Set: (AUG-CC-PVTZ AUX)
    Blend: AUG-CC-PVTZ-JKFIT

    Orbital Energies [Eh]
    ---------------------

    Doubly Occupied:

       1A    -91.991050     2A    -20.521414     3A    -15.588242
       4A    -11.360642     5A    -11.275830     6A    -11.269780
       7A    -11.259810     8A    -11.257999     9A    -11.254557
      10A    -11.238684    11A     -8.990803    12A     -6.671673
      13A     -6.671122    14A     -6.670411    15A     -1.376343
      16A     -1.230318    17A     -1.184164    18A     -1.047249
      19A     -1.007719    20A     -0.953949    21A     -0.923014
      22A     -0.828825    23A     -0.768154    24A     -0.750530
      25A     -0.709112    26A     -0.643445    27A     -0.628645
      28A     -0.620399    29A     -0.594458    30A     -0.591248
      31A     -0.567970    32A     -0.550722    33A     -0.548954
      34A     -0.534985    35A     -0.524014    36A     -0.501056
      37A     -0.478854    38A     -0.434719    39A     -0.397906
      40A     -0.348781    41A     -0.328573

  @DF-RHF Final Energy:  -797.31938507938560

   => Energetics <=

    Nuclear Repulsion Energy =            587.8276011944645916
    One-Electron Energy =               -2260.1017314155201348
    Two-Electron Energy =                 874.9547451416700596
    Total Energy =                       -797.3193850793855972
  Basis Set: (AUG-CC-PVTZ AUX)
    Blend: AUG-CC-PVTZ-RI
    Molecular point group: c1

    Geometry (in Angstrom), charge = 0, multiplicity = 1:

       Center              X                  Y                   Z               Mass
    ------------   -----------------  -----------------  -----------------  -----------------
         S           -0.811092852509     1.537858174970    -0.144212381385    31.972071174400
         O            2.159539747491     1.185536974970     0.379870918615    15.994914619570
         N            2.199265147491    -1.037930825030    -0.115344381385    14.003074004430
         C           -2.147159852509    -0.672648825030     0.019619618615    12.000000000000
         C            0.072496147491     0.070445174970     0.030696618615    12.000000000000
         C           -0.775222852509    -1.020424825030     0.116984618615    12.000000000000
         C           -2.302701852509     0.692470174970    -0.130810381385    12.000000000000
         C            1.548633147491     0.145002174970     0.110684618615    12.000000000000
         C           -3.279354852509    -1.657238825030     0.087299618615    12.000000000000
         C            3.651792147491    -1.058842825030    -0.160780381385    12.000000000000
         H           -0.424605852509    -2.035947825030     0.285669618615     1.007825032230
         H           -3.234192852509     1.237764174970    -0.232678381385     1.007825032230
         H           -3.276447852509    -2.196477825030     1.039784618615     1.007825032230
         H           -4.242554852509    -1.149400825030    -0.008815381385     1.007825032230
         H           -3.207877852509    -2.398935825030    -0.714454381385     1.007825032230
         H            1.695294147491    -1.756424825030    -0.618235381385     1.007825032230
         H            4.043751147491    -0.616632825030    -1.083261381385     1.007825032230
         H            3.991813147491    -2.092510825030    -0.079335381385     1.007825032230
         H            4.032101147491    -0.483505825030     0.682637618615     1.007825032230

  Basis Set: AUG-CC-PVTZ
    Blend: AUG-CC-PVTZ
  Basis Set: (AUG-CC-PVTZ AUX)
    Blend: AUG-CC-PVTZ-JKFIT
	 Reference Energy          =    -797.3193850793855972 [Eh]
	 Singles Energy            =      -0.0000000000000000 [Eh]
	 Same-Spin Energy          =      -0.4870501358648897 [Eh]
	 Opposite-Spin Energy      =      -1.5038253954887097 [Eh]
	 Correlation Energy        =      -1.9908755313535995 [Eh]
	 Total Energy              =    -799.3102606107391921 [Eh]

	 ================> DF-SCS-MP2 Energies <==================
	-----------------------------------------------------------
	 SCS Same-Spin Scale       =       0.3333333333333333 [-]
	 SCS Opposite-Spin Scale   =       1.2000000000000000 [-]
	 SCS Same-Spin Energy      =      -0.1623500452882966 [Eh]
	 SCS Opposite-Spin Energy  =      -1.8045904745864516 [Eh]
	 SCS Correlation Energy    =      -1.9669405198747483 [Eh]
	 SCS Total Energy          =    -799.2863255992602944 [Eh]
	-----------------------------------------------------------

  Dipole Moment: [D]
     X:    -1.5712      Y:    -3.7236      Z:    -1.1420     Total:     4.1997

*** Psi4 exiting successfully. Buy a developer a beer!
