                               Psi4 1.4a3.dev225

  ==> Input File <==

--------------------------------------------------------------------------
#psi4
#
memory 32 gb

molecule  {
0 1
  S       -0.8053760     1.6060500    -0.1399530
  O        2.1464270     1.2641370     0.3857660
  N        2.2049820    -0.9697390    -0.1110850
  C       -2.1414430    -0.6044570     0.0238790
  C        0.0782130     0.1386370     0.0349560
  C       -0.7827557    -0.9997420     0.1256522
  C       -2.2969850     0.7606620    -0.1265510
  C        1.5543500     0.2131940     0.1149440
  C       -3.2736380    -1.5890470     0.0915590
  C        3.6575090    -0.9906510    -0.1565210
  H       -0.4188890    -1.9677560     0.2899290
  H       -3.2284760     1.3059560    -0.2284190
  H       -3.2707310    -2.1282860     1.0440440
  H       -4.2368380    -1.0812090    -0.0045560
  H       -3.2021610    -2.3307440    -0.7101950
  H        1.7010110    -1.6882330    -0.6139760
  H        4.0494680    -0.5484410    -1.0790020
  H        3.9975300    -2.0243190    -0.0750760
  H        4.0378180    -0.4153140     0.6868970
units angstrom
no_reorient  #important for SAPT in psi4, default
symmetry c1  #important for SAPT in psi4, default
}

set PROPERTIES_ORIGIN ["COM"]
properties('MP2/aug-cc-pvtz', properties = ['dipole'])
--------------------------------------------------------------------------

    Molecular point group: c1
  Charge       = 0
  Multiplicity = 1
  Basis Set: AUG-CC-PVTZ
    Blend: AUG-CC-PVTZ
  Basis Set: (AUG-CC-PVTZ AUX)
    Blend: AUG-CC-PVTZ-JKFIT

    Orbital Energies [Eh]
    ---------------------

    Doubly Occupied:

       1A    -91.993759     2A    -20.521164     3A    -15.589012
       4A    -11.360069     5A    -11.280054     6A    -11.269295
       7A    -11.260415     8A    -11.258882     9A    -11.255192
      10A    -11.236995    11A     -8.993192    12A     -6.674048
      13A     -6.673478    14A     -6.672834    15A     -1.375736
      16A     -1.231198    17A     -1.178932    18A     -1.045781
      19A     -1.006494    20A     -0.952875    21A     -0.922231
      22A     -0.829966    23A     -0.768532    24A     -0.753764
      25A     -0.703870    26A     -0.643963    27A     -0.628391
      28A     -0.620762    29A     -0.599439    30A     -0.590258
      31A     -0.567040    32A     -0.551409    33A     -0.547789
      34A     -0.535808    35A     -0.522358    36A     -0.499088
      37A     -0.479919    38A     -0.433685    39A     -0.398554
      40A     -0.346991    41A     -0.324989

  @DF-RHF Final Energy:  -797.31410900902972

   => Energetics <=

    Nuclear Repulsion Energy =            587.0196281255856547
    One-Electron Energy =               -2258.4710425734865566
    Two-Electron Energy =                 874.1373054388710671
    Total Energy =                       -797.3141090090297212
  Basis Set: (AUG-CC-PVTZ AUX)
    Blend: AUG-CC-PVTZ-RI
    Molecular point group: c1

    Geometry (in Angstrom), charge = 0, multiplicity = 1:

       Center              X                  Y                   Z               Mass
    ------------   -----------------  -----------------  -----------------  -----------------
         S           -0.808124761665     1.540461557754    -0.144722320978    31.972071174400
         O            2.143678238335     1.198548557754     0.380996679022    15.994914619570
         N            2.202233238335    -1.035327442246    -0.115854320978    14.003074004430
         C           -2.144191761665    -0.670045442246     0.019109679022    12.000000000000
         C            0.075464238335     0.073048557754     0.030186679022    12.000000000000
         C           -0.785504461665    -1.065330442246     0.120882879022    12.000000000000
         C           -2.299733761665     0.695073557754    -0.131320320978    12.000000000000
         C            1.551601238335     0.147605557754     0.110174679022    12.000000000000
         C           -3.276386761665    -1.654635442246     0.086789679022    12.000000000000
         C            3.654760238335    -1.056239442246    -0.161290320978    12.000000000000
         H           -0.421637761665    -2.033344442246     0.285159679022     1.007825032230
         H           -3.231224761665     1.240367557754    -0.233188320978     1.007825032230
         H           -3.273479761665    -2.193874442246     1.039274679022     1.007825032230
         H           -4.239586761665    -1.146797442246    -0.009325320978     1.007825032230
         H           -3.204909761665    -2.396332442246    -0.714964320978     1.007825032230
         H            1.698262238335    -1.753821442246    -0.618745320978     1.007825032230
         H            4.046719238335    -0.614029442246    -1.083771320978     1.007825032230
         H            3.994781238335    -2.089907442246    -0.079845320978     1.007825032230
         H            4.035069238335    -0.480902442246     0.682127679022     1.007825032230

  Basis Set: AUG-CC-PVTZ
    Blend: AUG-CC-PVTZ
  Basis Set: (AUG-CC-PVTZ AUX)
    Blend: AUG-CC-PVTZ-JKFIT
	 Reference Energy          =    -797.3141090090297212 [Eh]
	 Singles Energy            =      -0.0000000000000000 [Eh]
	 Same-Spin Energy          =      -0.4878068759193299 [Eh]
	 Opposite-Spin Energy      =      -1.5050632853820649 [Eh]
	 Correlation Energy        =      -1.9928701613013948 [Eh]
	 Total Energy              =    -799.3069791703311466 [Eh]

	 ================> DF-SCS-MP2 Energies <==================
	-----------------------------------------------------------
	 SCS Same-Spin Scale       =       0.3333333333333333 [-]
	 SCS Opposite-Spin Scale   =       1.2000000000000000 [-]
	 SCS Same-Spin Energy      =      -0.1626022919731100 [Eh]
	 SCS Opposite-Spin Energy  =      -1.8060759424584778 [Eh]
	 SCS Correlation Energy    =      -1.9686782344315878 [Eh]
	 SCS Total Energy          =    -799.2827872434612573 [Eh]
	-----------------------------------------------------------

  Dipole Moment: [D]
     X:    -1.5013      Y:    -3.6830      Z:    -1.1488     Total:     4.1398

*** Psi4 exiting successfully. Buy a developer a beer!
