                               Psi4 1.4a3.dev225

  ==> Input File <==

--------------------------------------------------------------------------
#psi4
#
memory 32 gb

molecule  {
0 1
  S       -0.8053760     1.6060500    -0.1399530
  O        2.1464270     1.2641370     0.3857660
  N        2.2049820    -0.9697390    -0.1110850
  C       -2.1414430    -0.6044570     0.0238790
  C        0.0525542     0.1812496     0.0298768
  C       -0.7695060    -0.9522330     0.1212440
  C       -2.2969850     0.7606620    -0.1265510
  C        1.5543500     0.2131940     0.1149440
  C       -3.2736380    -1.5890470     0.0915590
  C        3.6575090    -0.9906510    -0.1565210
  H       -0.4188890    -1.9677560     0.2899290
  H       -3.2284760     1.3059560    -0.2284190
  H       -3.2707310    -2.1282860     1.0440440
  H       -4.2368380    -1.0812090    -0.0045560
  H       -3.2021610    -2.3307440    -0.7101950
  H        1.7010110    -1.6882330    -0.6139760
  H        4.0494680    -0.5484410    -1.0790020
  H        3.9975300    -2.0243190    -0.0750760
  H        4.0378180    -0.4153140     0.6868970
units angstrom
no_reorient  #important for SAPT in psi4, default
symmetry c1  #important for SAPT in psi4, default
}

set PROPERTIES_ORIGIN ["COM"]
properties('MP2/aug-cc-pvtz', properties = ['dipole'])
--------------------------------------------------------------------------

    Molecular point group: c1
  Charge       = 0
  Multiplicity = 1
  Basis Set: AUG-CC-PVTZ
    Blend: AUG-CC-PVTZ
  Basis Set: (AUG-CC-PVTZ AUX)
    Blend: AUG-CC-PVTZ-JKFIT

    Orbital Energies [Eh]
    ---------------------

    Doubly Occupied:

       1A    -91.992200     2A    -20.521245     3A    -15.590295
       4A    -11.361908     5A    -11.274978     6A    -11.266138
       7A    -11.261274     8A    -11.255436     9A    -11.253481
      10A    -11.237545    11A     -8.992845    12A     -6.673782
      13A     -6.673193    14A     -6.672443    15A     -1.375803
      16A     -1.231266    17A     -1.186823    18A     -1.048603
      19A     -1.003248    20A     -0.951879    21A     -0.925541
      22A     -0.825170    23A     -0.768116    24A     -0.748315
      25A     -0.705844    26A     -0.643964    27A     -0.628961
      28A     -0.621485    29A     -0.592685    30A     -0.590355
      31A     -0.564851    32A     -0.552361    33A     -0.549147
      34A     -0.532952    35A     -0.529968    36A     -0.502943
      37A     -0.481220    38A     -0.432842    39A     -0.398712
      40A     -0.346074    41A     -0.327461

  @DF-RHF Final Energy:  -797.31682265222469

   => Energetics <=

    Nuclear Repulsion Energy =            588.2943661126109873
    One-Electron Energy =               -2261.0356790851851656
    Two-Electron Energy =                 875.4244903203494914
    Total Energy =                       -797.3168226522246869
  Basis Set: (AUG-CC-PVTZ AUX)
    Blend: AUG-CC-PVTZ-RI
    Molecular point group: c1

    Geometry (in Angstrom), charge = 0, multiplicity = 1:

       Center              X                  Y                   Z               Mass
    ------------   -----------------  -----------------  -----------------  -----------------
         S           -0.807164308014     1.533486223541    -0.143988004390    31.972071174400
         O            2.144638691986     1.191573223541     0.381730995610    15.994914619570
         N            2.203193691986    -1.042302776459    -0.115120004390    14.003074004430
         C           -2.143231308014    -0.677020776459     0.019843995610    12.000000000000
         C            0.050765891986     0.108685823541     0.025841795610    12.000000000000
         C           -0.771294308014    -1.024796776459     0.117208995610    12.000000000000
         C           -2.298773308014     0.688098223541    -0.130586004390    12.000000000000
         C            1.552561691986     0.140630223541     0.110908995610    12.000000000000
         C           -3.275426308014    -1.661610776459     0.087523995610    12.000000000000
         C            3.655720691986    -1.063214776459    -0.160556004390    12.000000000000
         H           -0.420677308014    -2.040319776459     0.285893995610     1.007825032230
         H           -3.230264308014     1.233392223541    -0.232454004390     1.007825032230
         H           -3.272519308014    -2.200849776459     1.040008995610     1.007825032230
         H           -4.238626308014    -1.153772776459    -0.008591004390     1.007825032230
         H           -3.203949308014    -2.403307776459    -0.714230004390     1.007825032230
         H            1.699222691986    -1.760796776459    -0.618011004390     1.007825032230
         H            4.047679691986    -0.621004776459    -1.083037004390     1.007825032230
         H            3.995741691986    -2.096882776459    -0.079111004390     1.007825032230
         H            4.036029691986    -0.487877776459     0.682861995610     1.007825032230

  Basis Set: AUG-CC-PVTZ
    Blend: AUG-CC-PVTZ
  Basis Set: (AUG-CC-PVTZ AUX)
    Blend: AUG-CC-PVTZ-JKFIT
	 Reference Energy          =    -797.3168226522246869 [Eh]
	 Singles Energy            =      -0.0000000000000000 [Eh]
	 Same-Spin Energy          =      -0.4873873657750646 [Eh]
	 Opposite-Spin Energy      =      -1.5038014097858510 [Eh]
	 Correlation Energy        =      -1.9911887755609157 [Eh]
	 Total Energy              =    -799.3080114277855728 [Eh]

	 ================> DF-SCS-MP2 Energies <==================
	-----------------------------------------------------------
	 SCS Same-Spin Scale       =       0.3333333333333333 [-]
	 SCS Opposite-Spin Scale   =       1.2000000000000000 [-]
	 SCS Same-Spin Energy      =      -0.1624624552583548 [Eh]
	 SCS Opposite-Spin Energy  =      -1.8045616917430212 [Eh]
	 SCS Correlation Energy    =      -1.9670241470013761 [Eh]
	 SCS Total Energy          =    -799.2838467992260121 [Eh]
	-----------------------------------------------------------

  Dipole Moment: [D]
     X:    -1.4479      Y:    -3.6777      Z:    -1.1570     Total:     4.1183

*** Psi4 exiting successfully. Buy a developer a beer!
