                               Psi4 1.4a3.dev225

  ==> Input File <==

--------------------------------------------------------------------------
#psi4
#
memory 32 gb

molecule  {
0 1
  S       -0.8053760     1.6060500    -0.1399530
  O        2.1464270     1.2641370     0.3857660
  N        2.2049820    -0.9697390    -0.1110850
  C       -2.1414430    -0.6044570     0.0238790
  C        0.0782130     0.1386370     0.0349560
  C       -0.7695060    -0.9522330     0.1212440
  C       -2.2969850     0.7606620    -0.1265510
  C        1.5543500     0.2131940     0.1149440
  C       -3.2736380    -1.5890470     0.0915590
  C        3.6575090    -0.9906510    -0.1565210
  H       -0.4188890    -1.9677560     0.2899290
  H       -3.2284760     1.3059560    -0.2284190
  H       -3.2707310    -2.1282860     1.0440440
  H       -4.2368380    -1.0812090    -0.0045560
  H       -3.2021610    -2.3307440    -0.7101950
  H        1.6910461    -1.7024396    -0.6239195
  H        4.0494680    -0.5484410    -1.0790020
  H        3.9975300    -2.0243190    -0.0750760
  H        4.0378180    -0.4153140     0.6868970
units angstrom
no_reorient  #important for SAPT in psi4, default
symmetry c1  #important for SAPT in psi4, default
}

set PROPERTIES_ORIGIN ["COM"]
properties('MP2/aug-cc-pvtz', properties = ['dipole'])
--------------------------------------------------------------------------

    Molecular point group: c1
  Charge       = 0
  Multiplicity = 1
  Basis Set: AUG-CC-PVTZ
    Blend: AUG-CC-PVTZ
  Basis Set: (AUG-CC-PVTZ AUX)
    Blend: AUG-CC-PVTZ-JKFIT

    Orbital Energies [Eh]
    ---------------------

    Doubly Occupied:

       1A    -91.990365     2A    -20.521872     3A    -15.591228
       4A    -11.360861     5A    -11.274923     6A    -11.269067
       7A    -11.260643     8A    -11.257185     9A    -11.253955
      10A    -11.238290    11A     -8.990113    12A     -6.670981
      13A     -6.670431    14A     -6.669720    15A     -1.376180
      16A     -1.229524    17A     -1.183442    18A     -1.046611
      19A     -1.007228    20A     -0.953819    21A     -0.922554
      22A     -0.827222    23A     -0.765554    24A     -0.749845
      25A     -0.708533    26A     -0.643607    27A     -0.628759
      28A     -0.620285    29A     -0.593980    30A     -0.590877
      31A     -0.567513    32A     -0.550764    33A     -0.549120
      34A     -0.534587    35A     -0.523596    36A     -0.500725
      37A     -0.478259    38A     -0.434584    39A     -0.398555
      40A     -0.348194    41A     -0.327828

  @DF-RHF Final Energy:  -797.31839386092634

   => Energetics <=

    Nuclear Repulsion Energy =            587.8241844070292927
    One-Electron Energy =               -2260.1223933659434806
    Two-Electron Energy =                 874.9798150979877391
    Total Energy =                       -797.3183938609263350
  Basis Set: (AUG-CC-PVTZ AUX)
    Blend: AUG-CC-PVTZ-RI
    Molecular point group: c1

    Geometry (in Angstrom), charge = 0, multiplicity = 1:

       Center              X                  Y                   Z               Mass
    ------------   -----------------  -----------------  -----------------  -----------------
         S           -0.809085501205     1.536876750646    -0.144316493376    31.972071174400
         O            2.142717498795     1.194963750646     0.381402506624    15.994914619570
         N            2.201272498795    -1.038912249354    -0.115448493376    14.003074004430
         C           -2.145152501205    -0.673630249354     0.019515506624    12.000000000000
         C            0.074503498795     0.069463750646     0.030592506624    12.000000000000
         C           -0.773215501205    -1.021406249354     0.116880506624    12.000000000000
         C           -2.300694501205     0.691488750646    -0.130914493376    12.000000000000
         C            1.550640498795     0.144020750646     0.110580506624    12.000000000000
         C           -3.277347501205    -1.658220249354     0.087195506624    12.000000000000
         C            3.653799498795    -1.059824249354    -0.160884493376    12.000000000000
         H           -0.422598501205    -2.036929249354     0.285565506624     1.007825032230
         H           -3.232185501205     1.236782750646    -0.232782493376     1.007825032230
         H           -3.274440501205    -2.197459249354     1.039680506624     1.007825032230
         H           -4.240547501205    -1.150382249354    -0.008919493376     1.007825032230
         H           -3.205870501205    -2.399917249354    -0.714558493376     1.007825032230
         H            1.687336598795    -1.771612849354    -0.628282993376     1.007825032230
         H            4.045758498795    -0.617614249354    -1.083365493376     1.007825032230
         H            3.993820498795    -2.093492249354    -0.079439493376     1.007825032230
         H            4.034108498795    -0.484487249354     0.682533506624     1.007825032230

  Basis Set: AUG-CC-PVTZ
    Blend: AUG-CC-PVTZ
  Basis Set: (AUG-CC-PVTZ AUX)
    Blend: AUG-CC-PVTZ-JKFIT
	 Reference Energy          =    -797.3183938609263350 [Eh]
	 Singles Energy            =      -0.0000000000000000 [Eh]
	 Same-Spin Energy          =      -0.4871765381984356 [Eh]
	 Opposite-Spin Energy      =      -1.5041747803363681 [Eh]
	 Correlation Energy        =      -1.9913513185348037 [Eh]
	 Total Energy              =    -799.3097451794611743 [Eh]

	 ================> DF-SCS-MP2 Energies <==================
	-----------------------------------------------------------
	 SCS Same-Spin Scale       =       0.3333333333333333 [-]
	 SCS Opposite-Spin Scale   =       1.2000000000000000 [-]
	 SCS Same-Spin Energy      =      -0.1623921793994785 [Eh]
	 SCS Opposite-Spin Energy  =      -1.8050097364036417 [Eh]
	 SCS Correlation Energy    =      -1.9674019158031202 [Eh]
	 SCS Total Energy          =    -799.2857957767294010 [Eh]
	-----------------------------------------------------------

  Dipole Moment: [D]
     X:    -1.4925      Y:    -3.7582      Z:    -1.1527     Total:     4.2048

*** Psi4 exiting successfully. Buy a developer a beer!
