                               Psi4 1.4a3.dev225

  ==> Input File <==

--------------------------------------------------------------------------
#psi4
#
memory 32 gb

molecule  {
0 1
  S       -0.8053760     1.6060500    -0.1399530
  O        2.1464270     1.2641370     0.3857660
  N        2.2049820    -0.9697390    -0.1110850
  C       -2.1281780    -0.5569862     0.0191191
  C        0.0782130     0.1386370     0.0349560
  C       -0.7695060    -0.9522330     0.1212440
  C       -2.2969850     0.7606620    -0.1265510
  C        1.5543500     0.2131940     0.1149440
  C       -3.2736380    -1.5890470     0.0915590
  C        3.6575090    -0.9906510    -0.1565210
  H       -0.4188890    -1.9677560     0.2899290
  H       -3.2284760     1.3059560    -0.2284190
  H       -3.2707310    -2.1282860     1.0440440
  H       -4.2368380    -1.0812090    -0.0045560
  H       -3.2021610    -2.3307440    -0.7101950
  H        1.7010110    -1.6882330    -0.6139760
  H        4.0494680    -0.5484410    -1.0790020
  H        3.9975300    -2.0243190    -0.0750760
  H        4.0378180    -0.4153140     0.6868970
units angstrom
no_reorient  #important for SAPT in psi4, default
symmetry c1  #important for SAPT in psi4, default
}

set PROPERTIES_ORIGIN ["COM"]
properties('MP2/aug-cc-pvtz', properties = ['dipole'])
--------------------------------------------------------------------------

    Molecular point group: c1
  Charge       = 0
  Multiplicity = 1
  Basis Set: AUG-CC-PVTZ
    Blend: AUG-CC-PVTZ
  Basis Set: (AUG-CC-PVTZ AUX)
    Blend: AUG-CC-PVTZ-JKFIT

    Orbital Energies [Eh]
    ---------------------

    Doubly Occupied:

       1A    -91.987641     2A    -20.522639     3A    -15.590071
       4A    -11.361262     5A    -11.276018     6A    -11.263294
       7A    -11.261097     8A    -11.257016     9A    -11.250247
      10A    -11.239282    11A     -8.987728    12A     -6.668606
      13A     -6.668071    14A     -6.667298    15A     -1.376961
      16A     -1.232423    17A     -1.188599    18A     -1.042717
      19A     -1.007737    20A     -0.953665    21A     -0.924030
      22A     -0.832022    23A     -0.769739    24A     -0.750639
      25A     -0.706857    26A     -0.644800    27A     -0.628670
      28A     -0.620588    29A     -0.594992    30A     -0.588114
      31A     -0.569984    32A     -0.552006    33A     -0.549225
      34A     -0.535869    35A     -0.518572    36A     -0.503301
      37A     -0.475813    38A     -0.434257    39A     -0.399302
      40A     -0.347409    41A     -0.335298

  @DF-RHF Final Energy:  -797.31867151499068

   => Energetics <=

    Nuclear Repulsion Energy =            588.5469984657443092
    One-Electron Energy =               -2261.5636142908824695
    Two-Electron Energy =                 875.6979443101474772
    Total Energy =                       -797.3186715149906831
  Basis Set: (AUG-CC-PVTZ AUX)
    Blend: AUG-CC-PVTZ-RI
    Molecular point group: c1

    Geometry (in Angstrom), charge = 0, multiplicity = 1:

       Center              X                  Y                   Z               Mass
    ------------   -----------------  -----------------  -----------------  -----------------
         S           -0.810176976606     1.533110203046    -0.144012717935    31.972071174400
         O            2.141626023394     1.191197203046     0.381706282065    15.994914619570
         N            2.200181023394    -1.042678796954    -0.115144717935    14.003074004430
         C           -2.132978976606    -0.629925996954     0.015059382065    12.000000000000
         C            0.073412023394     0.065697203046     0.030896282065    12.000000000000
         C           -0.774306976606    -1.025172796954     0.117184282065    12.000000000000
         C           -2.301785976606     0.687722203046    -0.130610717935    12.000000000000
         C            1.549549023394     0.140254203046     0.110884282065    12.000000000000
         C           -3.278438976606    -1.661986796954     0.087499282065    12.000000000000
         C            3.652708023394    -1.063590796954    -0.160580717935    12.000000000000
         H           -0.423689976606    -2.040695796954     0.285869282065     1.007825032230
         H           -3.233276976606     1.233016203046    -0.232478717935     1.007825032230
         H           -3.275531976606    -2.201225796954     1.039984282065     1.007825032230
         H           -4.241638976606    -1.154148796954    -0.008615717935     1.007825032230
         H           -3.206961976606    -2.403683796954    -0.714254717935     1.007825032230
         H            1.696210023394    -1.761172796954    -0.618035717935     1.007825032230
         H            4.044667023394    -0.621380796954    -1.083061717935     1.007825032230
         H            3.992729023394    -2.097258796954    -0.079135717935     1.007825032230
         H            4.033017023394    -0.488253796954     0.682837282065     1.007825032230

  Basis Set: AUG-CC-PVTZ
    Blend: AUG-CC-PVTZ
  Basis Set: (AUG-CC-PVTZ AUX)
    Blend: AUG-CC-PVTZ-JKFIT
	 Reference Energy          =    -797.3186715149906831 [Eh]
	 Singles Energy            =      -0.0000000000000000 [Eh]
	 Same-Spin Energy          =      -0.4859984814781626 [Eh]
	 Opposite-Spin Energy      =      -1.5025381569039720 [Eh]
	 Correlation Energy        =      -1.9885366383821346 [Eh]
	 Total Energy              =    -799.3072081533728124 [Eh]

	 ================> DF-SCS-MP2 Energies <==================
	-----------------------------------------------------------
	 SCS Same-Spin Scale       =       0.3333333333333333 [-]
	 SCS Opposite-Spin Scale   =       1.2000000000000000 [-]
	 SCS Same-Spin Energy      =      -0.1619994938260542 [Eh]
	 SCS Opposite-Spin Energy  =      -1.8030457882847664 [Eh]
	 SCS Correlation Energy    =      -1.9650452821108206 [Eh]
	 SCS Total Energy          =    -799.2837167971015333 [Eh]
	-----------------------------------------------------------

  Dipole Moment: [D]
     X:    -1.4380      Y:    -3.7396      Z:    -1.1444     Total:     4.1668

*** Psi4 exiting successfully. Buy a developer a beer!
