                               Psi4 1.4a3.dev225

  ==> Input File <==

--------------------------------------------------------------------------
#psi4
#
memory 32 gb

molecule  {
0 1
  S       -0.8053760     1.6060500    -0.1399530
  O        2.1464270     1.2641370     0.3857660
  N        2.2064521    -0.9192363    -0.1156532
  C       -2.1414430    -0.6044570     0.0238790
  C        0.0782130     0.1386370     0.0349560
  C       -0.7695060    -0.9522330     0.1212440
  C       -2.2969850     0.7606620    -0.1265510
  C        1.5543500     0.2131940     0.1149440
  C       -3.2736380    -1.5890470     0.0915590
  C        3.6575090    -0.9906510    -0.1565210
  H       -0.4188890    -1.9677560     0.2899290
  H       -3.2284760     1.3059560    -0.2284190
  H       -3.2707310    -2.1282860     1.0440440
  H       -4.2368380    -1.0812090    -0.0045560
  H       -3.2021610    -2.3307440    -0.7101950
  H        1.7010110    -1.6882330    -0.6139760
  H        4.0494680    -0.5484410    -1.0790020
  H        3.9975300    -2.0243190    -0.0750760
  H        4.0378180    -0.4153140     0.6868970
units angstrom
no_reorient  #important for SAPT in psi4, default
symmetry c1  #important for SAPT in psi4, default
}

set PROPERTIES_ORIGIN ["COM"]
properties('MP2/aug-cc-pvtz', properties = ['dipole'])
--------------------------------------------------------------------------

    Molecular point group: c1
  Charge       = 0
  Multiplicity = 1
  Basis Set: AUG-CC-PVTZ
    Blend: AUG-CC-PVTZ
  Basis Set: (AUG-CC-PVTZ AUX)
    Blend: AUG-CC-PVTZ-JKFIT

    Orbital Energies [Eh]
    ---------------------

    Doubly Occupied:

       1A    -91.989558     2A    -20.513490     3A    -15.593734
       4A    -11.354662     5A    -11.274222     6A    -11.267981
       7A    -11.263407     8A    -11.256240     9A    -11.253230
      10A    -11.237822    11A     -8.989275    12A     -6.670139
      13A     -6.669591    14A     -6.668880    15A     -1.376575
      16A     -1.235988    17A     -1.182811    18A     -1.046171
      19A     -1.007814    20A     -0.958805    21A     -0.923372
      22A     -0.824513    23A     -0.771502    24A     -0.749150
      25A     -0.708258    26A     -0.646226    27A     -0.631345
      28A     -0.620950    29A     -0.592723    30A     -0.590381
      31A     -0.567936    32A     -0.549993    33A     -0.547321
      34A     -0.533876    35A     -0.524111    36A     -0.501033
      37A     -0.477173    38A     -0.430975    39A     -0.397668
      40A     -0.347523    41A     -0.327042

  @DF-RHF Final Energy:  -797.31716722708290

   => Energetics <=

    Nuclear Repulsion Energy =            588.8005241393965434
    One-Electron Energy =               -2262.0884504227396974
    Two-Electron Energy =                 875.9707590562601354
    Total Energy =                       -797.3171672270829049
  Basis Set: (AUG-CC-PVTZ AUX)
    Blend: AUG-CC-PVTZ-RI
    Molecular point group: c1

    Geometry (in Angstrom), charge = 0, multiplicity = 1:

       Center              X                  Y                   Z               Mass
    ------------   -----------------  -----------------  -----------------  -----------------
         S           -0.809283054733     1.532223057695    -0.143968535652    31.972071174400
         O            2.142519945267     1.190310057695     0.381750464348    15.994914619570
         N            2.202545045267    -0.993063242305    -0.119668735652    14.003074004430
         C           -2.145350054733    -0.678283942305     0.019863464348    12.000000000000
         C            0.074305945267     0.064810057695     0.030940464348    12.000000000000
         C           -0.773413054733    -1.026059942305     0.117228464348    12.000000000000
         C           -2.300892054733     0.686835057695    -0.130566535652    12.000000000000
         C            1.550442945267     0.139367057695     0.110928464348    12.000000000000
         C           -3.277545054733    -1.662873942305     0.087543464348    12.000000000000
         C            3.653601945267    -1.064477942305    -0.160536535652    12.000000000000
         H           -0.422796054733    -2.041582942305     0.285913464348     1.007825032230
         H           -3.232383054733     1.232129057695    -0.232434535652     1.007825032230
         H           -3.274638054733    -2.202112942305     1.040028464348     1.007825032230
         H           -4.240745054733    -1.155035942305    -0.008571535652     1.007825032230
         H           -3.206068054733    -2.404570942305    -0.714210535652     1.007825032230
         H            1.697103945267    -1.762059942305    -0.617991535652     1.007825032230
         H            4.045560945267    -0.622267942305    -1.083017535652     1.007825032230
         H            3.993622945267    -2.098145942305    -0.079091535652     1.007825032230
         H            4.033910945267    -0.489140942305     0.682881464348     1.007825032230

  Basis Set: AUG-CC-PVTZ
    Blend: AUG-CC-PVTZ
  Basis Set: (AUG-CC-PVTZ AUX)
    Blend: AUG-CC-PVTZ-JKFIT
	 Reference Energy          =    -797.3171672270829049 [Eh]
	 Singles Energy            =      -0.0000000000000000 [Eh]
	 Same-Spin Energy          =      -0.4871313564030170 [Eh]
	 Opposite-Spin Energy      =      -1.5036625008705089 [Eh]
	 Correlation Energy        =      -1.9907938572735260 [Eh]
	 Total Energy              =    -799.3079610843564069 [Eh]

	 ================> DF-SCS-MP2 Energies <==================
	-----------------------------------------------------------
	 SCS Same-Spin Scale       =       0.3333333333333333 [-]
	 SCS Opposite-Spin Scale   =       1.2000000000000000 [-]
	 SCS Same-Spin Energy      =      -0.1623771188010057 [Eh]
	 SCS Opposite-Spin Energy  =      -1.8043950010446106 [Eh]
	 SCS Correlation Energy    =      -1.9667721198456163 [Eh]
	 SCS Total Energy          =    -799.2839393469284914 [Eh]
	-----------------------------------------------------------

  Dipole Moment: [D]
     X:    -1.3648      Y:    -3.9817      Z:    -1.1622     Total:     4.3666

*** Psi4 exiting successfully. Buy a developer a beer!
