                               Psi4 1.4a3.dev225

  ==> Input File <==

--------------------------------------------------------------------------
#psi4
#
memory 32 gb

molecule  {
0 1
  S       -0.8053760     1.6060500    -0.1399530
  O        2.1464270     1.2641370     0.3857660
  N        2.2049820    -0.9697390    -0.1110850
  C       -2.1414430    -0.6044570     0.0238790
  C        0.0782130     0.1386370     0.0349560
  C       -0.7695060    -0.9522330     0.1212440
  C       -2.2969850     0.7606620    -0.1265510
  C        1.5543500     0.2131940     0.1149440
  C       -3.4244010    -1.7201549     0.1005713
  C        3.6575090    -0.9906510    -0.1565210
  H       -0.4188890    -1.9677560     0.2899290
  H       -3.2284760     1.3059560    -0.2284190
  H       -3.2707310    -2.1282860     1.0440440
  H       -4.2368380    -1.0812090    -0.0045560
  H       -3.2021610    -2.3307440    -0.7101950
  H        1.7010110    -1.6882330    -0.6139760
  H        4.0494680    -0.5484410    -1.0790020
  H        3.9975300    -2.0243190    -0.0750760
  H        4.0378180    -0.4153140     0.6868970
units angstrom
no_reorient  #important for SAPT in psi4, default
symmetry c1  #important for SAPT in psi4, default
}

set PROPERTIES_ORIGIN ["COM"]
properties('MP2/aug-cc-pvtz', properties = ['dipole'])
--------------------------------------------------------------------------

    Molecular point group: c1
  Charge       = 0
  Multiplicity = 1
  Basis Set: AUG-CC-PVTZ
    Blend: AUG-CC-PVTZ
  Basis Set: (AUG-CC-PVTZ AUX)
    Blend: AUG-CC-PVTZ-JKFIT

    Orbital Energies [Eh]
    ---------------------

    Doubly Occupied:

       1A    -91.989599     2A    -20.520947     3A    -15.588623
       4A    -11.359981     5A    -11.273474     6A    -11.268397
       7A    -11.260138     8A    -11.259194     9A    -11.256537
      10A    -11.239683    11A     -8.989320    12A     -6.670179
      13A     -6.669634    14A     -6.668920    15A     -1.375466
      16A     -1.230982    17A     -1.178762    18A     -1.030145
      19A     -1.004669    20A     -0.955547    21A     -0.930270
      22A     -0.827179    23A     -0.767078    24A     -0.746569
      25A     -0.703348    26A     -0.643341    27A     -0.626012
      28A     -0.615916    29A     -0.613709    30A     -0.606377
      31A     -0.560656    32A     -0.553424    33A     -0.549834
      34A     -0.543808    35A     -0.506326    36A     -0.498035
      37A     -0.464153    38A     -0.430229    39A     -0.398175
      40A     -0.348436    41A     -0.328223

  @DF-RHF Final Energy:  -797.29222729418552

   => Energetics <=

    Nuclear Repulsion Energy =            584.5194662510446051
    One-Electron Energy =               -2253.5207973332671827
    Two-Electron Energy =                 871.7091037880370550
    Total Energy =                       -797.2922272941855226
  Basis Set: (AUG-CC-PVTZ AUX)
    Blend: AUG-CC-PVTZ-RI
    Molecular point group: c1

    Geometry (in Angstrom), charge = 0, multiplicity = 1:

       Center              X                  Y                   Z               Mass
    ------------   -----------------  -----------------  -----------------  -----------------
         S           -0.797481350693     1.546932040605    -0.145078674352    31.972071174400
         O            2.154321649307     1.205019040605     0.380640325648    15.994914619570
         N            2.212876649307    -1.028856959395    -0.116210674352    14.003074004430
         C           -2.133548350693    -0.663574959395     0.018753325648    12.000000000000
         C            0.086107649307     0.079519040605     0.029830325648    12.000000000000
         C           -0.761611350693    -1.011350959395     0.116118325648    12.000000000000
         C           -2.289090350693     0.701544040605    -0.131676674352    12.000000000000
         C            1.562244649307     0.154076040605     0.109818325648    12.000000000000
         C           -3.416506350693    -1.779272859395     0.095445625648    12.000000000000
         C            3.665403649307    -1.049768959395    -0.161646674352    12.000000000000
         H           -0.410994350693    -2.026873959395     0.284803325648     1.007825032230
         H           -3.220581350693     1.246838040605    -0.233544674352     1.007825032230
         H           -3.262836350693    -2.187403959395     1.038918325648     1.007825032230
         H           -4.228943350693    -1.140326959395    -0.009681674352     1.007825032230
         H           -3.194266350693    -2.389861959395    -0.715320674352     1.007825032230
         H            1.708905649307    -1.747350959395    -0.619101674352     1.007825032230
         H            4.057362649307    -0.607558959395    -1.084127674352     1.007825032230
         H            4.005424649307    -2.083436959395    -0.080201674352     1.007825032230
         H            4.045712649307    -0.474431959395     0.681771325648     1.007825032230

  Basis Set: AUG-CC-PVTZ
    Blend: AUG-CC-PVTZ
  Basis Set: (AUG-CC-PVTZ AUX)
    Blend: AUG-CC-PVTZ-JKFIT
	 Reference Energy          =    -797.2922272941855226 [Eh]
	 Singles Energy            =      -0.0000000000000000 [Eh]
	 Same-Spin Energy          =      -0.4869212321815781 [Eh]
	 Opposite-Spin Energy      =      -1.5048192784307159 [Eh]
	 Correlation Energy        =      -1.9917405106122941 [Eh]
	 Total Energy              =    -799.2839678047978396 [Eh]

	 ================> DF-SCS-MP2 Energies <==================
	-----------------------------------------------------------
	 SCS Same-Spin Scale       =       0.3333333333333333 [-]
	 SCS Opposite-Spin Scale   =       1.2000000000000000 [-]
	 SCS Same-Spin Energy      =      -0.1623070773938594 [Eh]
	 SCS Opposite-Spin Energy  =      -1.8057831341168591 [Eh]
	 SCS Correlation Energy    =      -1.9680902115107184 [Eh]
	 SCS Total Energy          =    -799.2603175056962073 [Eh]
	-----------------------------------------------------------

  Dipole Moment: [D]
     X:    -1.4990      Y:    -3.7368      Z:    -1.1467     Total:     4.1863

*** Psi4 exiting successfully. Buy a developer a beer!
