                               Psi4 1.4a3.dev225

  ==> Input File <==

--------------------------------------------------------------------------
#psi4
#
memory 32 gb

molecule  {
0 1
  S       -0.8053760     1.6060500    -0.1399530
  O        2.1464270     1.2641370     0.3857660
  N        2.2111862    -1.1211539    -0.0977346
  C       -2.1414430    -0.6044570     0.0238790
  C        0.0782130     0.1386370     0.0349560
  C       -0.7695060    -0.9522330     0.1212440
  C       -2.2969850     0.7606620    -0.1265510
  C        1.5543500     0.2131940     0.1149440
  C       -3.2736380    -1.5890470     0.0915590
  C        3.6575090    -0.9906510    -0.1565210
  H       -0.4188890    -1.9677560     0.2899290
  H       -3.2284760     1.3059560    -0.2284190
  H       -3.2707310    -2.1282860     1.0440440
  H       -4.2368380    -1.0812090    -0.0045560
  H       -3.2021610    -2.3307440    -0.7101950
  H        1.7010110    -1.6882330    -0.6139760
  H        4.0494680    -0.5484410    -1.0790020
  H        3.9975300    -2.0243190    -0.0750760
  H        4.0378180    -0.4153140     0.6868970
units angstrom
no_reorient  #important for SAPT in psi4, default
symmetry c1  #important for SAPT in psi4, default
}

set PROPERTIES_ORIGIN ["COM"]
properties('MP2/aug-cc-pvtz', properties = ['dipole'])
--------------------------------------------------------------------------

    Molecular point group: c1
  Charge       = 0
  Multiplicity = 1
  Basis Set: AUG-CC-PVTZ
    Blend: AUG-CC-PVTZ
  Basis Set: (AUG-CC-PVTZ AUX)
    Blend: AUG-CC-PVTZ-JKFIT

    Orbital Energies [Eh]
    ---------------------

    Doubly Occupied:

       1A    -91.992984     2A    -20.544179     3A    -15.577388
       4A    -11.375953     5A    -11.277489     6A    -11.272767
       7A    -11.260513     8A    -11.256307     9A    -11.254870
      10A    -11.239760    11A     -8.992820    12A     -6.673695
      13A     -6.673140    14A     -6.672424    15A     -1.381006
      16A     -1.219715    17A     -1.185852    18A     -1.048470
      19A     -1.007359    20A     -0.945830    21A     -0.922233
      22A     -0.840293    23A     -0.754393    24A     -0.751898
      25A     -0.709513    26A     -0.641987    27A     -0.636550
      28A     -0.609205    29A     -0.598536    30A     -0.592128
      31A     -0.576169    32A     -0.551089    33A     -0.548030
      34A     -0.536618    35A     -0.517966    36A     -0.501588
      37A     -0.481704    38A     -0.439912    39A     -0.400227
      40A     -0.350520    41A     -0.330704

  @DF-RHF Final Energy:  -797.29381333743731

   => Energetics <=

    Nuclear Repulsion Energy =            585.3279780460227357
    One-Electron Energy =               -2254.9560148294508508
    Two-Electron Energy =                 872.3342234459908013
    Total Energy =                       -797.2938133374373137
  Basis Set: (AUG-CC-PVTZ AUX)
    Blend: AUG-CC-PVTZ-RI
    Molecular point group: c1

    Geometry (in Angstrom), charge = 0, multiplicity = 1:

       Center              X                  Y                   Z               Mass
    ------------   -----------------  -----------------  -----------------  -----------------
         S           -0.809710633069     1.550460017506    -0.145586922499    31.972071174400
         O            2.142092366931     1.208547017506     0.380132077501    15.994914619570
         N            2.206851566931    -1.176743882494    -0.103368522499    14.003074004430
         C           -2.145777633069    -0.660046982494     0.018245077501    12.000000000000
         C            0.073878366931     0.083047017506     0.029322077501    12.000000000000
         C           -0.773840633069    -1.007822982494     0.115610077501    12.000000000000
         C           -2.301319633069     0.705072017506    -0.132184922499    12.000000000000
         C            1.550015366931     0.157604017506     0.109310077501    12.000000000000
         C           -3.277972633069    -1.644636982494     0.085925077501    12.000000000000
         C            3.653174366931    -1.046240982494    -0.162154922499    12.000000000000
         H           -0.423223633069    -2.023345982494     0.284295077501     1.007825032230
         H           -3.232810633069     1.250366017506    -0.234052922499     1.007825032230
         H           -3.275065633069    -2.183875982494     1.038410077501     1.007825032230
         H           -4.241172633069    -1.136798982494    -0.010189922499     1.007825032230
         H           -3.206495633069    -2.386333982494    -0.715828922499     1.007825032230
         H            1.696676366931    -1.743822982494    -0.619609922499     1.007825032230
         H            4.045133366931    -0.604030982494    -1.084635922499     1.007825032230
         H            3.993195366931    -2.079908982494    -0.080709922499     1.007825032230
         H            4.033483366931    -0.470903982494     0.681263077501     1.007825032230

  Basis Set: AUG-CC-PVTZ
    Blend: AUG-CC-PVTZ
  Basis Set: (AUG-CC-PVTZ AUX)
    Blend: AUG-CC-PVTZ-JKFIT
	 Reference Energy          =    -797.2938133374373137 [Eh]
	 Singles Energy            =      -0.0000000000000000 [Eh]
	 Same-Spin Energy          =      -0.4872334594983387 [Eh]
	 Opposite-Spin Energy      =      -1.5059301592932535 [Eh]
	 Correlation Energy        =      -1.9931636187915922 [Eh]
	 Total Energy              =    -799.2869769562289548 [Eh]

	 ================> DF-SCS-MP2 Energies <==================
	-----------------------------------------------------------
	 SCS Same-Spin Scale       =       0.3333333333333333 [-]
	 SCS Opposite-Spin Scale   =       1.2000000000000000 [-]
	 SCS Same-Spin Energy      =      -0.1624111531661129 [Eh]
	 SCS Opposite-Spin Energy  =      -1.8071161911519040 [Eh]
	 SCS Correlation Energy    =      -1.9695273443180170 [Eh]
	 SCS Total Energy          =    -799.2633406817553805 [Eh]
	-----------------------------------------------------------

  Dipole Moment: [D]
     X:    -1.9099      Y:    -3.0094      Z:    -1.1075     Total:     3.7324

*** Psi4 exiting successfully. Buy a developer a beer!
