                               Psi4 1.4a3.dev225

  ==> Input File <==

--------------------------------------------------------------------------
#psi4
#
memory 32 gb

molecule  {
0 1
  S       -0.8053760     1.6060500    -0.1399530
  O        2.1464270     1.2641370     0.3857660
  N        2.2049820    -0.9697390    -0.1110850
  C       -2.1414430    -0.6044570     0.0238790
  C        0.0782130     0.1386370     0.0349560
  C       -0.7695060    -0.9522330     0.1212440
  C       -2.3839810     0.7113559    -0.1257693
  C        1.5543500     0.2131940     0.1149440
  C       -3.2736380    -1.5890470     0.0915590
  C        3.6575090    -0.9906510    -0.1565210
  H       -0.4188890    -1.9677560     0.2899290
  H       -3.2284760     1.3059560    -0.2284190
  H       -3.2707310    -2.1282860     1.0440440
  H       -4.2368380    -1.0812090    -0.0045560
  H       -3.2021610    -2.3307440    -0.7101950
  H        1.7010110    -1.6882330    -0.6139760
  H        4.0494680    -0.5484410    -1.0790020
  H        3.9975300    -2.0243190    -0.0750760
  H        4.0378180    -0.4153140     0.6868970
units angstrom
no_reorient  #important for SAPT in psi4, default
symmetry c1  #important for SAPT in psi4, default
}

set PROPERTIES_ORIGIN ["COM"]
properties('MP2/aug-cc-pvtz', properties = ['dipole'])
--------------------------------------------------------------------------

    Molecular point group: c1
  Charge       = 0
  Multiplicity = 1
  Basis Set: AUG-CC-PVTZ
    Blend: AUG-CC-PVTZ
  Basis Set: (AUG-CC-PVTZ AUX)
    Blend: AUG-CC-PVTZ-JKFIT

    Orbital Energies [Eh]
    ---------------------

    Doubly Occupied:

       1A    -91.984817     2A    -20.524420     3A    -15.591243
       4A    -11.363013     5A    -11.280385     6A    -11.268298
       7A    -11.261796     8A    -11.258169     9A    -11.254308
      10A    -11.237387    11A     -8.983432    12A     -6.664270
      13A     -6.663628    14A     -6.663010    15A     -1.378347
      16A     -1.233473    17A     -1.178974    18A     -1.051757
      19A     -0.996829    20A     -0.955076    21A     -0.925120
      22A     -0.833606    23A     -0.772299    24A     -0.756673
      25A     -0.708788    26A     -0.646251    27A     -0.630559
      28A     -0.619666    29A     -0.605428    30A     -0.591679
      31A     -0.572023    32A     -0.552630    33A     -0.548923
      34A     -0.540840    35A     -0.515168    36A     -0.496650
      37A     -0.461556    38A     -0.435809    39A     -0.400012
      40A     -0.345369    41A     -0.334958

  @DF-RHF Final Energy:  -797.31265687659891

   => Energetics <=

    Nuclear Repulsion Energy =            586.4850096644689756
    One-Electron Energy =               -2257.4220576969873946
    Two-Electron Energy =                 873.6243911559193975
    Total Energy =                       -797.3126568765989077
  Basis Set: (AUG-CC-PVTZ AUX)
    Blend: AUG-CC-PVTZ-RI
    Molecular point group: c1

    Geometry (in Angstrom), charge = 0, multiplicity = 1:

       Center              X                  Y                   Z               Mass
    ------------   -----------------  -----------------  -----------------  -----------------
         S           -0.802416861567     1.540600651746    -0.144441633002    31.972071174400
         O            2.149386138433     1.198687651746     0.381277366998    15.994914619570
         N            2.207941138433    -1.035188348254    -0.115573633002    14.003074004430
         C           -2.138483861567    -0.669906348254     0.019390366998    12.000000000000
         C            0.081172138433     0.073187651746     0.030467366998    12.000000000000
         C           -0.766546861567    -1.017682348254     0.116755366998    12.000000000000
         C           -2.381021861567     0.645906551746    -0.130257933002    12.000000000000
         C            1.557309138433     0.147744651746     0.110455366998    12.000000000000
         C           -3.270678861567    -1.654496348254     0.087070366998    12.000000000000
         C            3.660468138433    -1.056100348254    -0.161009633002    12.000000000000
         H           -0.415929861567    -2.033205348254     0.285440366998     1.007825032230
         H           -3.225516861567     1.240506651746    -0.232907633002     1.007825032230
         H           -3.267771861567    -2.193735348254     1.039555366998     1.007825032230
         H           -4.233878861567    -1.146658348254    -0.009044633002     1.007825032230
         H           -3.199201861567    -2.396193348254    -0.714683633002     1.007825032230
         H            1.703970138433    -1.753682348254    -0.618464633002     1.007825032230
         H            4.052427138433    -0.613890348254    -1.083490633002     1.007825032230
         H            4.000489138433    -2.089768348254    -0.079564633002     1.007825032230
         H            4.040777138433    -0.480763348254     0.682408366998     1.007825032230

  Basis Set: AUG-CC-PVTZ
    Blend: AUG-CC-PVTZ
  Basis Set: (AUG-CC-PVTZ AUX)
    Blend: AUG-CC-PVTZ-JKFIT
	 Reference Energy          =    -797.3126568765989077 [Eh]
	 Singles Energy            =      -0.0000000000000000 [Eh]
	 Same-Spin Energy          =      -0.4858767210014251 [Eh]
	 Opposite-Spin Energy      =      -1.5038119381636363 [Eh]
	 Correlation Energy        =      -1.9896886591650613 [Eh]
	 Total Energy              =    -799.3023455357639477 [Eh]

	 ================> DF-SCS-MP2 Energies <==================
	-----------------------------------------------------------
	 SCS Same-Spin Scale       =       0.3333333333333333 [-]
	 SCS Opposite-Spin Scale   =       1.2000000000000000 [-]
	 SCS Same-Spin Energy      =      -0.1619589070004750 [Eh]
	 SCS Opposite-Spin Energy  =      -1.8045743257963636 [Eh]
	 SCS Correlation Energy    =      -1.9665332327968386 [Eh]
	 SCS Total Energy          =    -799.2791901093956994 [Eh]
	-----------------------------------------------------------

  Dipole Moment: [D]
     X:    -1.4673      Y:    -3.8598      Z:    -1.1333     Total:     4.2820

*** Psi4 exiting successfully. Buy a developer a beer!
