                               Psi4 1.4a3.dev225

  ==> Input File <==

--------------------------------------------------------------------------
#psi4
#
memory 32 gb

molecule  {
0 1
  S       -0.8053760     1.6060500    -0.1399530
  O        2.1464270     1.2641370     0.3857660
  N        2.2049820    -0.9697390    -0.1110850
  C       -2.1414430    -0.6044570     0.0238790
  C        0.0782130     0.1386370     0.0349560
  C       -0.7695060    -0.9522330     0.1212440
  C       -2.2969850     0.7606620    -0.1265510
  C        1.5543500     0.2131940     0.1149440
  C       -3.2736380    -1.5890470     0.0915590
  C        3.6575090    -0.9906510    -0.1565210
  H       -0.4188890    -1.9677560     0.2899290
  H       -3.2284760     1.3059560    -0.2284190
  H       -3.2707310    -2.1282860     1.0440440
  H       -4.2368380    -1.0812090    -0.0045560
  H       -3.2021610    -2.3307440    -0.7101950
  H        1.6511866    -1.7592660    -0.6636937
  H        4.0494680    -0.5484410    -1.0790020
  H        3.9975300    -2.0243190    -0.0750760
  H        4.0378180    -0.4153140     0.6868970
units angstrom
no_reorient  #important for SAPT in psi4, default
symmetry c1  #important for SAPT in psi4, default
}

set PROPERTIES_ORIGIN ["COM"]
properties('MP2/aug-cc-pvtz', properties = ['dipole'])
--------------------------------------------------------------------------

    Molecular point group: c1
  Charge       = 0
  Multiplicity = 1
  Basis Set: AUG-CC-PVTZ
    Blend: AUG-CC-PVTZ
  Basis Set: (AUG-CC-PVTZ AUX)
    Blend: AUG-CC-PVTZ-JKFIT

    Orbital Energies [Eh]
    ---------------------

    Doubly Occupied:

       1A    -91.990183     2A    -20.521861     3A    -15.597906
       4A    -11.360791     5A    -11.274724     6A    -11.268780
       7A    -11.260602     8A    -11.256836     9A    -11.253789
      10A    -11.238228    11A     -8.989931    12A     -6.670799
      13A     -6.670249    14A     -6.669539    15A     -1.375634
      16A     -1.221893    17A     -1.182984    18A     -1.046410
      19A     -1.006937    20A     -0.952920    21A     -0.921711
      22A     -0.822599    23A     -0.754368    24A     -0.747595
      25A     -0.707677    26A     -0.641749    27A     -0.627919
      28A     -0.619156    29A     -0.593722    30A     -0.590792
      31A     -0.566586    32A     -0.549346    33A     -0.545459
      34A     -0.534426    35A     -0.523422    36A     -0.500540
      37A     -0.478079    38A     -0.434113    39A     -0.397452
      40A     -0.347938    41A     -0.327527

  @DF-RHF Final Energy:  -797.30871154950614

   => Energetics <=

    Nuclear Repulsion Energy =            587.4225555560359453
    One-Electron Energy =               -2259.3761903627123502
    Two-Electron Energy =                 874.6449232571701486
    Total Energy =                       -797.3087115495061425
  Basis Set: (AUG-CC-PVTZ AUX)
    Blend: AUG-CC-PVTZ-RI
    Molecular point group: c1

    Geometry (in Angstrom), charge = 0, multiplicity = 1:

       Center              X                  Y                   Z               Mass
    ------------   -----------------  -----------------  -----------------  -----------------
         S           -0.808826398546     1.537246144927    -0.144057945202    31.972071174400
         O            2.142976601454     1.195333144927     0.381661054798    15.994914619570
         N            2.201531601454    -1.038542855073    -0.115189945202    14.003074004430
         C           -2.144893398546    -0.673260855073     0.019774054798    12.000000000000
         C            0.074762601454     0.069833144927     0.030851054798    12.000000000000
         C           -0.772956398546    -1.021036855073     0.117139054798    12.000000000000
         C           -2.300435398546     0.691858144927    -0.130655945202    12.000000000000
         C            1.550899601454     0.144390144927     0.110839054798    12.000000000000
         C           -3.277088398546    -1.657850855073     0.087454054798    12.000000000000
         C            3.654058601454    -1.059454855073    -0.160625945202    12.000000000000
         H           -0.422339398546    -2.036559855073     0.285824054798     1.007825032230
         H           -3.231926398546     1.237152144927    -0.232523945202     1.007825032230
         H           -3.274181398546    -2.197089855073     1.039939054798     1.007825032230
         H           -4.240288398546    -1.150012855073    -0.008660945202     1.007825032230
         H           -3.205611398546    -2.399547855073    -0.714299945202     1.007825032230
         H            1.647736201454    -1.828069855073    -0.667798645202     1.007825032230
         H            4.046017601454    -0.617244855073    -1.083106945202     1.007825032230
         H            3.994079601454    -2.093122855073    -0.079180945202     1.007825032230
         H            4.034367601454    -0.484117855073     0.682792054798     1.007825032230

  Basis Set: AUG-CC-PVTZ
    Blend: AUG-CC-PVTZ
  Basis Set: (AUG-CC-PVTZ AUX)
    Blend: AUG-CC-PVTZ-JKFIT
	 Reference Energy          =    -797.3087115495061425 [Eh]
	 Singles Energy            =      -0.0000000000000000 [Eh]
	 Same-Spin Energy          =      -0.4878418753198045 [Eh]
	 Opposite-Spin Energy      =      -1.5058229758529316 [Eh]
	 Correlation Energy        =      -1.9936648511727362 [Eh]
	 Total Energy              =    -799.3023764006788952 [Eh]

	 ================> DF-SCS-MP2 Energies <==================
	-----------------------------------------------------------
	 SCS Same-Spin Scale       =       0.3333333333333333 [-]
	 SCS Opposite-Spin Scale   =       1.2000000000000000 [-]
	 SCS Same-Spin Energy      =      -0.1626139584399348 [Eh]
	 SCS Opposite-Spin Energy  =      -1.8069875710235177 [Eh]
	 SCS Correlation Energy    =      -1.9696015294634526 [Eh]
	 SCS Total Energy          =    -799.2783130789696315 [Eh]
	-----------------------------------------------------------

  Dipole Moment: [D]
     X:    -1.4961      Y:    -3.7991      Z:    -1.1822     Total:     4.2508

*** Psi4 exiting successfully. Buy a developer a beer!
