                               Psi4 1.4a3.dev225

  ==> Input File <==

--------------------------------------------------------------------------
#psi4
#
memory 32 gb

molecule  {
0 1
  S       -0.8053760     1.6060500    -0.1399530
  O        2.1274170     1.2742250     0.3873192
  N        2.2049820    -0.9697390    -0.1110850
  C       -2.1414430    -0.6044570     0.0238790
  C        0.0782130     0.1386370     0.0349560
  C       -0.7695060    -0.9522330     0.1212440
  C       -2.2969850     0.7606620    -0.1265510
  C        1.5543500     0.2131940     0.1149440
  C       -3.2736380    -1.5890470     0.0915590
  C        3.6575090    -0.9906510    -0.1565210
  H       -0.4188890    -1.9677560     0.2899290
  H       -3.2284760     1.3059560    -0.2284190
  H       -3.2707310    -2.1282860     1.0440440
  H       -4.2368380    -1.0812090    -0.0045560
  H       -3.2021610    -2.3307440    -0.7101950
  H        1.7010110    -1.6882330    -0.6139760
  H        4.0494680    -0.5484410    -1.0790020
  H        3.9975300    -2.0243190    -0.0750760
  H        4.0378180    -0.4153140     0.6868970
units angstrom
no_reorient  #important for SAPT in psi4, default
symmetry c1  #important for SAPT in psi4, default
}

set PROPERTIES_ORIGIN ["COM"]
properties('MP2/aug-cc-pvtz', properties = ['dipole'])
--------------------------------------------------------------------------

    Molecular point group: c1
  Charge       = 0
  Multiplicity = 1
  Basis Set: AUG-CC-PVTZ
    Blend: AUG-CC-PVTZ
  Basis Set: (AUG-CC-PVTZ AUX)
    Blend: AUG-CC-PVTZ-JKFIT

    Orbital Energies [Eh]
    ---------------------

    Doubly Occupied:

       1A    -91.989762     2A    -20.522365     3A    -15.590547
       4A    -11.361156     5A    -11.274112     6A    -11.268490
       7A    -11.261506     8A    -11.256530     9A    -11.253424
      10A    -11.237920    11A     -8.989506    12A     -6.670372
      13A     -6.669822    14A     -6.669110    15A     -1.376425
      16A     -1.233217    17A     -1.182930    18A     -1.046067
      19A     -1.006880    20A     -0.954238    21A     -0.922573
      22A     -0.828783    23A     -0.769269    24A     -0.749503
      25A     -0.708292    26A     -0.644713    27A     -0.629315
      28A     -0.620707    29A     -0.593617    30A     -0.590543
      31A     -0.567586    32A     -0.552658    33A     -0.549622
      34A     -0.534253    35A     -0.523238    36A     -0.500476
      37A     -0.477745    38A     -0.434630    39A     -0.399817
      40A     -0.347721    41A     -0.327219

  @DF-RHF Final Energy:  -797.31944814427152

   => Energetics <=

    Nuclear Repulsion Energy =            588.0443578461953393
    One-Electron Energy =               -2260.5542958228920725
    Two-Electron Energy =                 875.1904898324251008
    Total Energy =                       -797.3194481442715187
  Basis Set: (AUG-CC-PVTZ AUX)
    Blend: AUG-CC-PVTZ-RI
    Molecular point group: c1

    Geometry (in Angstrom), charge = 0, multiplicity = 1:

       Center              X                  Y                   Z               Mass
    ------------   -----------------  -----------------  -----------------  -----------------
         S           -0.807189090399     1.535743662952    -0.144541367606    31.972071174400
         O            2.125603909601     1.203918662952     0.382730832394    15.994914619570
         N            2.203168909601    -1.040045337048    -0.115673367606    14.003074004430
         C           -2.143256090399    -0.674763337048     0.019290632394    12.000000000000
         C            0.076399909601     0.068330662952     0.030367632394    12.000000000000
         C           -0.771319090399    -1.022539337048     0.116655632394    12.000000000000
         C           -2.298798090399     0.690355662952    -0.131139367606    12.000000000000
         C            1.552536909601     0.142887662952     0.110355632394    12.000000000000
         C           -3.275451090399    -1.659353337048     0.086970632394    12.000000000000
         C            3.655695909601    -1.060957337048    -0.161109367606    12.000000000000
         H           -0.420702090399    -2.038062337048     0.285340632394     1.007825032230
         H           -3.230289090399     1.235649662952    -0.233007367606     1.007825032230
         H           -3.272544090399    -2.198592337048     1.039455632394     1.007825032230
         H           -4.238651090399    -1.151515337048    -0.009144367606     1.007825032230
         H           -3.203974090399    -2.401050337048    -0.714783367606     1.007825032230
         H            1.699197909601    -1.758539337048    -0.618564367606     1.007825032230
         H            4.047654909601    -0.618747337048    -1.083590367606     1.007825032230
         H            3.995716909601    -2.094625337048    -0.079664367606     1.007825032230
         H            4.036004909601    -0.485620337048     0.682308632394     1.007825032230

  Basis Set: AUG-CC-PVTZ
    Blend: AUG-CC-PVTZ
  Basis Set: (AUG-CC-PVTZ AUX)
    Blend: AUG-CC-PVTZ-JKFIT
	 Reference Energy          =    -797.3194481442715187 [Eh]
	 Singles Energy            =      -0.0000000000000000 [Eh]
	 Same-Spin Energy          =      -0.4869881418971871 [Eh]
	 Opposite-Spin Energy      =      -1.5037853569742441 [Eh]
	 Correlation Energy        =      -1.9907734988714312 [Eh]
	 Total Energy              =    -799.3102216431429952 [Eh]

	 ================> DF-SCS-MP2 Energies <==================
	-----------------------------------------------------------
	 SCS Same-Spin Scale       =       0.3333333333333333 [-]
	 SCS Opposite-Spin Scale   =       1.2000000000000000 [-]
	 SCS Same-Spin Energy      =      -0.1623293806323957 [Eh]
	 SCS Opposite-Spin Energy  =      -1.8045424283690927 [Eh]
	 SCS Correlation Energy    =      -1.9668718090014885 [Eh]
	 SCS Total Energy          =    -799.2863199532730505 [Eh]
	-----------------------------------------------------------

  Dipole Moment: [D]
     X:    -1.4111      Y:    -3.7700      Z:    -1.1480     Total:     4.1860

*** Psi4 exiting successfully. Buy a developer a beer!
