                               Psi4 1.4a3.dev225

  ==> Input File <==

--------------------------------------------------------------------------
#psi4
#
memory 32 gb

molecule  {
0 1
  S       -0.8053760     1.6060500    -0.1399530
  O        2.1464270     1.2641370     0.3857660
  N        2.2049820    -0.9697390    -0.1110850
  C       -2.1414430    -0.6044570     0.0238790
  C        0.0782130     0.1386370     0.0349560
  C       -0.7211532    -0.9644901     0.1246755
  C       -2.2969850     0.7606620    -0.1265510
  C        1.5543500     0.2131940     0.1149440
  C       -3.2736380    -1.5890470     0.0915590
  C        3.6575090    -0.9906510    -0.1565210
  H       -0.4188890    -1.9677560     0.2899290
  H       -3.2284760     1.3059560    -0.2284190
  H       -3.2707310    -2.1282860     1.0440440
  H       -4.2368380    -1.0812090    -0.0045560
  H       -3.2021610    -2.3307440    -0.7101950
  H        1.7010110    -1.6882330    -0.6139760
  H        4.0494680    -0.5484410    -1.0790020
  H        3.9975300    -2.0243190    -0.0750760
  H        4.0378180    -0.4153140     0.6868970
units angstrom
no_reorient  #important for SAPT in psi4, default
symmetry c1  #important for SAPT in psi4, default
}

set PROPERTIES_ORIGIN ["COM"]
properties('MP2/aug-cc-pvtz', properties = ['dipole'])
--------------------------------------------------------------------------

    Molecular point group: c1
  Charge       = 0
  Multiplicity = 1
  Basis Set: AUG-CC-PVTZ
    Blend: AUG-CC-PVTZ
  Basis Set: (AUG-CC-PVTZ AUX)
    Blend: AUG-CC-PVTZ-JKFIT

    Orbital Energies [Eh]
    ---------------------

    Doubly Occupied:

       1A    -91.988239     2A    -20.522201     3A    -15.589519
       4A    -11.360236     5A    -11.274997     6A    -11.267994
       7A    -11.260821     8A    -11.258339     9A    -11.257221
      10A    -11.238297    11A     -8.988222    12A     -6.669146
      13A     -6.668538    14A     -6.667774    15A     -1.376572
      16A     -1.232125    17A     -1.179788    18A     -1.045422
      19A     -1.009434    20A     -0.953494    21A     -0.920834
      22A     -0.828754    23A     -0.768052    24A     -0.751202
      25A     -0.711529    26A     -0.644254    27A     -0.628829
      28A     -0.619483    29A     -0.594060    30A     -0.589728
      31A     -0.571050    32A     -0.552088    33A     -0.549928
      34A     -0.528132    35A     -0.526854    36A     -0.499496
      37A     -0.478694    38A     -0.433741    39A     -0.398928
      40A     -0.348076    41A     -0.328870

  @DF-RHF Final Energy:  -797.31855172467340

   => Energetics <=

    Nuclear Repulsion Energy =            587.6888949440002534
    One-Electron Energy =               -2259.8529654360372660
    Two-Electron Energy =                 874.8455187673635010
    Total Energy =                       -797.3185517246733980
  Basis Set: (AUG-CC-PVTZ AUX)
    Blend: AUG-CC-PVTZ-RI
    Molecular point group: c1

    Geometry (in Angstrom), charge = 0, multiplicity = 1:

       Center              X                  Y                   Z               Mass
    ------------   -----------------  -----------------  -----------------  -----------------
         S           -0.812892742103     1.537733091058    -0.144646725239    31.972071174400
         O            2.138910257897     1.195820091058     0.381072274761    15.994914619570
         N            2.197465257897    -1.038055908942    -0.115778725239    14.003074004430
         C           -2.148959742103    -0.672773908942     0.019185274761    12.000000000000
         C            0.070696257897     0.070320091058     0.030262274761    12.000000000000
         C           -0.728669942103    -1.032807008942     0.119981774761    12.000000000000
         C           -2.304501742103     0.692345091058    -0.131244725239    12.000000000000
         C            1.546833257897     0.144877091058     0.110250274761    12.000000000000
         C           -3.281154742103    -1.657363908942     0.086865274761    12.000000000000
         C            3.649992257897    -1.058967908942    -0.161214725239    12.000000000000
         H           -0.426405742103    -2.036072908942     0.285235274761     1.007825032230
         H           -3.235992742103     1.237639091058    -0.233112725239     1.007825032230
         H           -3.278247742103    -2.196602908942     1.039350274761     1.007825032230
         H           -4.244354742103    -1.149525908942    -0.009249725239     1.007825032230
         H           -3.209677742103    -2.399060908942    -0.714888725239     1.007825032230
         H            1.693494257897    -1.756549908942    -0.618669725239     1.007825032230
         H            4.041951257897    -0.616757908942    -1.083695725239     1.007825032230
         H            3.990013257897    -2.092635908942    -0.079769725239     1.007825032230
         H            4.030301257897    -0.483630908942     0.682203274761     1.007825032230

  Basis Set: AUG-CC-PVTZ
    Blend: AUG-CC-PVTZ
  Basis Set: (AUG-CC-PVTZ AUX)
    Blend: AUG-CC-PVTZ-JKFIT
	 Reference Energy          =    -797.3185517246733980 [Eh]
	 Singles Energy            =      -0.0000000000000000 [Eh]
	 Same-Spin Energy          =      -0.4858288005528747 [Eh]
	 Opposite-Spin Energy      =      -1.5028642256598146 [Eh]
	 Correlation Energy        =      -1.9886930262126894 [Eh]
	 Total Energy              =    -799.3072447508860705 [Eh]

	 ================> DF-SCS-MP2 Energies <==================
	-----------------------------------------------------------
	 SCS Same-Spin Scale       =       0.3333333333333333 [-]
	 SCS Opposite-Spin Scale   =       1.2000000000000000 [-]
	 SCS Same-Spin Energy      =      -0.1619429335176249 [Eh]
	 SCS Opposite-Spin Energy  =      -1.8034370707917775 [Eh]
	 SCS Correlation Energy    =      -1.9653800043094023 [Eh]
	 SCS Total Energy          =    -799.2839317289827932 [Eh]
	-----------------------------------------------------------

  Dipole Moment: [D]
     X:    -1.4906      Y:    -3.7814      Z:    -1.1382     Total:     4.2209

*** Psi4 exiting successfully. Buy a developer a beer!
