                               Psi4 1.4a3.dev225

  ==> Input File <==

--------------------------------------------------------------------------
#psi4
#
memory 32 gb

molecule  {
0 1
  S       -0.8053760     1.6060500    -0.1399530
  O        2.1464270     1.2641370     0.3857660
  N        2.2049820    -0.9697390    -0.1110850
  C       -2.1414430    -0.6044570     0.0238790
  C        0.0782130     0.1386370     0.0349560
  C       -0.5760950    -1.0012613     0.1349702
  C       -2.2969850     0.7606620    -0.1265510
  C        1.5543500     0.2131940     0.1149440
  C       -3.2736380    -1.5890470     0.0915590
  C        3.6575090    -0.9906510    -0.1565210
  H       -0.4188890    -1.9677560     0.2899290
  H       -3.2284760     1.3059560    -0.2284190
  H       -3.2707310    -2.1282860     1.0440440
  H       -4.2368380    -1.0812090    -0.0045560
  H       -3.2021610    -2.3307440    -0.7101950
  H        1.7010110    -1.6882330    -0.6139760
  H        4.0494680    -0.5484410    -1.0790020
  H        3.9975300    -2.0243190    -0.0750760
  H        4.0378180    -0.4153140     0.6868970
units angstrom
no_reorient  #important for SAPT in psi4, default
symmetry c1  #important for SAPT in psi4, default
}

set PROPERTIES_ORIGIN ["COM"]
properties('MP2/aug-cc-pvtz', properties = ['dipole'])
--------------------------------------------------------------------------

    Molecular point group: c1
  Charge       = 0
  Multiplicity = 1
  Basis Set: AUG-CC-PVTZ
    Blend: AUG-CC-PVTZ
  Basis Set: (AUG-CC-PVTZ AUX)
    Blend: AUG-CC-PVTZ-JKFIT

    Orbital Energies [Eh]
    ---------------------

    Doubly Occupied:

       1A    -91.984123     2A    -20.522193     3A    -15.589293
       4A    -11.357624     5A    -11.275899     6A    -11.267379
       7A    -11.265399     8A    -11.260953     9A    -11.258669
      10A    -11.238276    11A     -8.984604    12A     -6.665664
      13A     -6.664886    14A     -6.664011    15A     -1.376543
      16A     -1.232933    17A     -1.172113    18A     -1.046556
      19A     -1.013902    20A     -0.952001    21A     -0.916010
      22A     -0.829894    23A     -0.769537    24A     -0.753313
      25A     -0.723257    26A     -0.644471    27A     -0.628382
      28A     -0.616751    29A     -0.596649    30A     -0.587043
      31A     -0.575688    32A     -0.553764    33A     -0.550871
      34A     -0.535413    35A     -0.501133    36A     -0.496018
      37A     -0.478325    38A     -0.427410    39A     -0.398615
      40A     -0.358534    41A     -0.323648

  @DF-RHF Final Energy:  -797.28730151159709

   => Energetics <=

    Nuclear Repulsion Energy =            587.1110720250638906
    One-Electron Energy =               -2258.6812516964587303
    Two-Electron Energy =                 874.2828781597976331
    Total Energy =                       -797.2873015115970929
  Basis Set: (AUG-CC-PVTZ AUX)
    Blend: AUG-CC-PVTZ-RI
    Molecular point group: c1

    Geometry (in Angstrom), charge = 0, multiplicity = 1:

       Center              X                  Y                   Z               Mass
    ------------   -----------------  -----------------  -----------------  -----------------
         S           -0.824120121835     1.540579150265    -0.145443526152    31.972071174400
         O            2.127682878165     1.198666150265     0.380275473848    15.994914619570
         N            2.186237878165    -1.035209849735    -0.116575526152    14.003074004430
         C           -2.160187121835    -0.669927849735     0.018388473848    12.000000000000
         C            0.059468878165     0.073166150265     0.029465473848    12.000000000000
         C           -0.594839121835    -1.066732149735     0.129479673848    12.000000000000
         C           -2.315729121835     0.695191150265    -0.132041526152    12.000000000000
         C            1.535605878165     0.147723150265     0.109453473848    12.000000000000
         C           -3.292382121835    -1.654517849735     0.086068473848    12.000000000000
         C            3.638764878165    -1.056121849735    -0.162011526152    12.000000000000
         H           -0.437633121835    -2.033226849735     0.284438473848     1.007825032230
         H           -3.247220121835     1.240485150265    -0.233909526152     1.007825032230
         H           -3.289475121835    -2.193756849735     1.038553473848     1.007825032230
         H           -4.255582121835    -1.146679849735    -0.010046526152     1.007825032230
         H           -3.220905121835    -2.396214849735    -0.715685526152     1.007825032230
         H            1.682266878165    -1.753703849735    -0.619466526152     1.007825032230
         H            4.030723878165    -0.613911849735    -1.084492526152     1.007825032230
         H            3.978785878165    -2.089789849735    -0.080566526152     1.007825032230
         H            4.019073878165    -0.480784849735     0.681406473848     1.007825032230

  Basis Set: AUG-CC-PVTZ
    Blend: AUG-CC-PVTZ
  Basis Set: (AUG-CC-PVTZ AUX)
    Blend: AUG-CC-PVTZ-JKFIT
	 Reference Energy          =    -797.2873015115970929 [Eh]
	 Singles Energy            =      -0.0000000000000000 [Eh]
	 Same-Spin Energy          =      -0.4835656052480580 [Eh]
	 Opposite-Spin Energy      =      -1.5022913250240335 [Eh]
	 Correlation Energy        =      -1.9858569302720914 [Eh]
	 Total Energy              =    -799.2731584418692137 [Eh]

	 ================> DF-SCS-MP2 Energies <==================
	-----------------------------------------------------------
	 SCS Same-Spin Scale       =       0.3333333333333333 [-]
	 SCS Opposite-Spin Scale   =       1.2000000000000000 [-]
	 SCS Same-Spin Energy      =      -0.1611885350826860 [Eh]
	 SCS Opposite-Spin Energy  =      -1.8027495900288402 [Eh]
	 SCS Correlation Energy    =      -1.9639381251115262 [Eh]
	 SCS Total Energy          =    -799.2512396367086467 [Eh]
	-----------------------------------------------------------

  Dipole Moment: [D]
     X:    -1.5039      Y:    -3.8706      Z:    -1.1186     Total:     4.3005

*** Psi4 exiting successfully. Buy a developer a beer!
