                               Psi4 1.4a3.dev225

  ==> Input File <==

--------------------------------------------------------------------------
#psi4
#
memory 32 gb

molecule  {
0 1
  S       -0.8053760     1.6060500    -0.1399530
  O        2.1464270     1.2641370     0.3857660
  N        2.2050788    -1.0267283    -0.1950094
  C       -2.1414430    -0.6044570     0.0238790
  C        0.0782130     0.1386370     0.0349560
  C       -0.7695060    -0.9522330     0.1212440
  C       -2.2969850     0.7606620    -0.1265510
  C        1.5543500     0.2131940     0.1149440
  C       -3.2736380    -1.5890470     0.0915590
  C        3.6575090    -0.9906510    -0.1565210
  H       -0.4188890    -1.9677560     0.2899290
  H       -3.2284760     1.3059560    -0.2284190
  H       -3.2707310    -2.1282860     1.0440440
  H       -4.2368380    -1.0812090    -0.0045560
  H       -3.2021610    -2.3307440    -0.7101950
  H        1.7010110    -1.6882330    -0.6139760
  H        4.0494680    -0.5484410    -1.0790020
  H        3.9975300    -2.0243190    -0.0750760
  H        4.0378180    -0.4153140     0.6868970
units angstrom
no_reorient  #important for SAPT in psi4, default
symmetry c1  #important for SAPT in psi4, default
}

set PROPERTIES_ORIGIN ["COM"]
properties('MP2/aug-cc-pvtz', properties = ['dipole'])
--------------------------------------------------------------------------

    Molecular point group: c1
  Charge       = 0
  Multiplicity = 1
  Basis Set: AUG-CC-PVTZ
    Blend: AUG-CC-PVTZ
  Basis Set: (AUG-CC-PVTZ AUX)
    Blend: AUG-CC-PVTZ-JKFIT

    Orbital Energies [Eh]
    ---------------------

    Doubly Occupied:

       1A    -91.991404     2A    -20.532296     3A    -15.579845
       4A    -11.369529     5A    -11.275987     6A    -11.270398
       7A    -11.258498     8A    -11.258365     9A    -11.254916
      10A    -11.238886    11A     -8.991192    12A     -6.672063
      13A     -6.671509    14A     -6.670795    15A     -1.377162
      16A     -1.228225    17A     -1.184452    18A     -1.047256
      19A     -1.006830    20A     -0.949614    21A     -0.923058
      22A     -0.839342    23A     -0.767888    24A     -0.751244
      25A     -0.709264    26A     -0.640803    27A     -0.629899
      28A     -0.619159    29A     -0.596496    30A     -0.591612
      31A     -0.574402    32A     -0.553319    33A     -0.549556
      34A     -0.535370    35A     -0.520461    36A     -0.500516
      37A     -0.479643    38A     -0.437203    39A     -0.396403
      40A     -0.349161    41A     -0.328847

  @DF-RHF Final Energy:  -797.30765832422435

   => Energetics <=

    Nuclear Repulsion Energy =            586.7827543090812696
    One-Electron Energy =               -2257.9350889529314372
    Two-Electron Energy =                 873.8446763196259326
    Total Energy =                       -797.3076583242243487
  Basis Set: (AUG-CC-PVTZ AUX)
    Blend: AUG-CC-PVTZ-RI
    Molecular point group: c1

    Geometry (in Angstrom), charge = 0, multiplicity = 1:

       Center              X                  Y                   Z               Mass
    ------------   -----------------  -----------------  -----------------  -----------------
         S           -0.809159019894     1.541931608529    -0.136801177134    31.972071174400
         O            2.142643980106     1.200018608529     0.388917822866    15.994914619570
         N            2.201295780106    -1.090846691471    -0.191857577134    14.003074004430
         C           -2.145226019894    -0.668575391471     0.027030822866    12.000000000000
         C            0.074429980106     0.074518608529     0.038107822866    12.000000000000
         C           -0.773289019894    -1.016351391471     0.124395822866    12.000000000000
         C           -2.300768019894     0.696543608529    -0.123399177134    12.000000000000
         C            1.550566980106     0.149075608529     0.118095822866    12.000000000000
         C           -3.277421019894    -1.653165391471     0.094710822866    12.000000000000
         C            3.653725980106    -1.054769391471    -0.153369177134    12.000000000000
         H           -0.422672019894    -2.031874391471     0.293080822866     1.007825032230
         H           -3.232259019894     1.241837608529    -0.225267177134     1.007825032230
         H           -3.274514019894    -2.192404391471     1.047195822866     1.007825032230
         H           -4.240621019894    -1.145327391471    -0.001404177134     1.007825032230
         H           -3.205944019894    -2.394862391471    -0.707043177134     1.007825032230
         H            1.697227980106    -1.752351391471    -0.610824177134     1.007825032230
         H            4.045684980106    -0.612559391471    -1.075850177134     1.007825032230
         H            3.993746980106    -2.088437391471    -0.071924177134     1.007825032230
         H            4.034034980106    -0.479432391471     0.690048822866     1.007825032230

  Basis Set: AUG-CC-PVTZ
    Blend: AUG-CC-PVTZ
  Basis Set: (AUG-CC-PVTZ AUX)
    Blend: AUG-CC-PVTZ-JKFIT
	 Reference Energy          =    -797.3076583242243487 [Eh]
	 Singles Energy            =      -0.0000000000000000 [Eh]
	 Same-Spin Energy          =      -0.4869731533399462 [Eh]
	 Opposite-Spin Energy      =      -1.5042754454387470 [Eh]
	 Correlation Energy        =      -1.9912485987786932 [Eh]
	 Total Energy              =    -799.2989069230030736 [Eh]

	 ================> DF-SCS-MP2 Energies <==================
	-----------------------------------------------------------
	 SCS Same-Spin Scale       =       0.3333333333333333 [-]
	 SCS Opposite-Spin Scale   =       1.2000000000000000 [-]
	 SCS Same-Spin Energy      =      -0.1623243844466487 [Eh]
	 SCS Opposite-Spin Energy  =      -1.8051305345264963 [Eh]
	 SCS Correlation Energy    =      -1.9674549189731450 [Eh]
	 SCS Total Energy          =    -799.2751132431974384 [Eh]
	-----------------------------------------------------------

  Dipole Moment: [D]
     X:    -1.6411      Y:    -3.4940      Z:    -0.9740     Total:     3.9812

*** Psi4 exiting successfully. Buy a developer a beer!
