                               Psi4 1.4a3.dev225

  ==> Input File <==

--------------------------------------------------------------------------
#psi4
#
memory 32 gb

molecule  {
0 1
  S       -0.8053760     1.6060500    -0.1399530
  O        2.1464270     1.2641370     0.3857660
  N        2.2049820    -0.9697390    -0.1110850
  C       -2.1414430    -0.6044570     0.0238790
  C        0.1295305     0.0534119     0.0451144
  C       -0.7695060    -0.9522330     0.1212440
  C       -2.2969850     0.7606620    -0.1265510
  C        1.5543500     0.2131940     0.1149440
  C       -3.2736380    -1.5890470     0.0915590
  C        3.6575090    -0.9906510    -0.1565210
  H       -0.4188890    -1.9677560     0.2899290
  H       -3.2284760     1.3059560    -0.2284190
  H       -3.2707310    -2.1282860     1.0440440
  H       -4.2368380    -1.0812090    -0.0045560
  H       -3.2021610    -2.3307440    -0.7101950
  H        1.7010110    -1.6882330    -0.6139760
  H        4.0494680    -0.5484410    -1.0790020
  H        3.9975300    -2.0243190    -0.0750760
  H        4.0378180    -0.4153140     0.6868970
units angstrom
no_reorient  #important for SAPT in psi4, default
symmetry c1  #important for SAPT in psi4, default
}

set PROPERTIES_ORIGIN ["COM"]
properties('MP2/aug-cc-pvtz', properties = ['dipole'])
--------------------------------------------------------------------------

    Molecular point group: c1
  Charge       = 0
  Multiplicity = 1
  Basis Set: AUG-CC-PVTZ
    Blend: AUG-CC-PVTZ
  Basis Set: (AUG-CC-PVTZ AUX)
    Blend: AUG-CC-PVTZ-JKFIT

    Orbital Energies [Eh]
    ---------------------

    Doubly Occupied:

       1A    -91.985685     2A    -20.523595     3A    -15.588165
       4A    -11.359845     5A    -11.276088     6A    -11.274536
       7A    -11.261457     8A    -11.259746     9A    -11.254838
      10A    -11.239627    11A     -8.984306    12A     -6.665151
      13A     -6.664436    14A     -6.663859    15A     -1.377869
      16A     -1.233854    17A     -1.179126    18A     -1.047569
      19A     -1.011734    20A     -0.959657    21A     -0.917723
      22A     -0.835773    23A     -0.770174    24A     -0.754934
      25A     -0.712643    26A     -0.644973    27A     -0.630154
      28A     -0.618842    29A     -0.597055    30A     -0.591882
      31A     -0.573062    32A     -0.551114    33A     -0.550505
      34A     -0.539031    35A     -0.510560    36A     -0.497048
      37A     -0.468117    38A     -0.435812    39A     -0.399786
      40A     -0.356210    41A     -0.324998

  @DF-RHF Final Energy:  -797.31062083342317

   => Energetics <=

    Nuclear Repulsion Energy =            587.2988235822102752
    One-Electron Energy =               -2259.0358080388305098
    Two-Electron Energy =                 874.4263636231969485
    Total Energy =                       -797.3106208334231724
  Basis Set: (AUG-CC-PVTZ AUX)
    Blend: AUG-CC-PVTZ-RI
    Molecular point group: c1

    Geometry (in Angstrom), charge = 0, multiplicity = 1:

       Center              X                  Y                   Z               Mass
    ------------   -----------------  -----------------  -----------------  -----------------
         S           -0.813122207329     1.543380751407    -0.145167381505    31.972071174400
         O            2.138680792671     1.201467751407     0.380551618495    15.994914619570
         N            2.197235792671    -1.032408248593    -0.116299381505    14.003074004430
         C           -2.149189207329    -0.667126248593     0.018664618495    12.000000000000
         C            0.121784292671    -0.009257348593     0.039900018495    12.000000000000
         C           -0.777252207329    -1.014902248593     0.116029618495    12.000000000000
         C           -2.304731207329     0.697992751407    -0.131765381505    12.000000000000
         C            1.546603792671     0.150524751407     0.109729618495    12.000000000000
         C           -3.281384207329    -1.651716248593     0.086344618495    12.000000000000
         C            3.649762792671    -1.053320248593    -0.161735381505    12.000000000000
         H           -0.426635207329    -2.030425248593     0.284714618495     1.007825032230
         H           -3.236222207329     1.243286751407    -0.233633381505     1.007825032230
         H           -3.278477207329    -2.190955248593     1.038829618495     1.007825032230
         H           -4.244584207329    -1.143878248593    -0.009770381505     1.007825032230
         H           -3.209907207329    -2.393413248593    -0.715409381505     1.007825032230
         H            1.693264792671    -1.750902248593    -0.619190381505     1.007825032230
         H            4.041721792671    -0.611110248593    -1.084216381505     1.007825032230
         H            3.989783792671    -2.086988248593    -0.080290381505     1.007825032230
         H            4.030071792671    -0.477983248593     0.681682618495     1.007825032230

  Basis Set: AUG-CC-PVTZ
    Blend: AUG-CC-PVTZ
  Basis Set: (AUG-CC-PVTZ AUX)
    Blend: AUG-CC-PVTZ-JKFIT
	 Reference Energy          =    -797.3106208334231724 [Eh]
	 Singles Energy            =      -0.0000000000000000 [Eh]
	 Same-Spin Energy          =      -0.4869351552180901 [Eh]
	 Opposite-Spin Energy      =      -1.5047435515875613 [Eh]
	 Correlation Energy        =      -1.9916787068056514 [Eh]
	 Total Energy              =    -799.3022995402287734 [Eh]

	 ================> DF-SCS-MP2 Energies <==================
	-----------------------------------------------------------
	 SCS Same-Spin Scale       =       0.3333333333333333 [-]
	 SCS Opposite-Spin Scale   =       1.2000000000000000 [-]
	 SCS Same-Spin Energy      =      -0.1623117184060300 [Eh]
	 SCS Opposite-Spin Energy  =      -1.8056922619050735 [Eh]
	 SCS Correlation Energy    =      -1.9680039803111036 [Eh]
	 SCS Total Energy          =    -799.2786248137342682 [Eh]
	-----------------------------------------------------------

  Dipole Moment: [D]
     X:    -1.5389      Y:    -3.9019      Z:    -1.1192     Total:     4.3411

*** Psi4 exiting successfully. Buy a developer a beer!
