                               Psi4 1.4a3.dev225

  ==> Input File <==

--------------------------------------------------------------------------
#psi4
#
memory 32 gb

molecule  {
0 1
  S       -0.8053760     1.6060500    -0.1399530
  O        2.1464270     1.2641370     0.3857660
  N        2.2119618    -0.9128516    -0.0273820
  C       -2.1414430    -0.6044570     0.0238790
  C        0.0782130     0.1386370     0.0349560
  C       -0.7695060    -0.9522330     0.1212440
  C       -2.2969850     0.7606620    -0.1265510
  C        1.5543500     0.2131940     0.1149440
  C       -3.2736380    -1.5890470     0.0915590
  C        3.6575090    -0.9906510    -0.1565210
  H       -0.4188890    -1.9677560     0.2899290
  H       -3.2284760     1.3059560    -0.2284190
  H       -3.2707310    -2.1282860     1.0440440
  H       -4.2368380    -1.0812090    -0.0045560
  H       -3.2021610    -2.3307440    -0.7101950
  H        1.7010110    -1.6882330    -0.6139760
  H        4.0494680    -0.5484410    -1.0790020
  H        3.9975300    -2.0243190    -0.0750760
  H        4.0378180    -0.4153140     0.6868970
units angstrom
no_reorient  #important for SAPT in psi4, default
symmetry c1  #important for SAPT in psi4, default
}

set PROPERTIES_ORIGIN ["COM"]
properties('MP2/aug-cc-pvtz', properties = ['dipole'])
--------------------------------------------------------------------------

    Molecular point group: c1
  Charge       = 0
  Multiplicity = 1
  Basis Set: AUG-CC-PVTZ
    Blend: AUG-CC-PVTZ
  Basis Set: (AUG-CC-PVTZ AUX)
    Blend: AUG-CC-PVTZ-JKFIT

    Orbital Energies [Eh]
    ---------------------

    Doubly Occupied:

       1A    -91.989712     2A    -20.512402     3A    -15.597827
       4A    -11.352635     5A    -11.274426     6A    -11.268232
       7A    -11.263917     8A    -11.256351     9A    -11.253284
      10A    -11.237848    11A     -8.989420    12A     -6.670284
      13A     -6.669738    14A     -6.669027    15A     -1.378669
      16A     -1.235281    17A     -1.182993    18A     -1.046366
      19A     -1.008394    20A     -0.960548    21A     -0.923901
      22A     -0.821007    23A     -0.762922    24A     -0.748772
      25A     -0.708411    26A     -0.649900    27A     -0.631331
      28A     -0.619714    29A     -0.592801    30A     -0.590239
      31A     -0.568761    32A     -0.550054    33A     -0.536784
      34A     -0.534040    35A     -0.525257    36A     -0.501679
      37A     -0.477270    38A     -0.430951    39A     -0.400470
      40A     -0.347547    41A     -0.327246

  @DF-RHF Final Energy:  -797.30789922490987

   => Energetics <=

    Nuclear Repulsion Energy =            588.9695233157215171
    One-Electron Energy =               -2262.4220202581018384
    Two-Electron Energy =                 876.1445977174704467
    Total Energy =                       -797.3078992249098746
  Basis Set: (AUG-CC-PVTZ AUX)
    Blend: AUG-CC-PVTZ-RI
    Molecular point group: c1

    Geometry (in Angstrom), charge = 0, multiplicity = 1:

       Center              X                  Y                   Z               Mass
    ------------   -----------------  -----------------  -----------------  -----------------
         S           -0.809780684347     1.531646399111    -0.151941086469    31.972071174400
         O            2.142022315653     1.189733399111     0.373777913531    15.994914619570
         N            2.207557115653    -0.987255200889    -0.039370086469    14.003074004430
         C           -2.145847684347    -0.678860600889     0.011890913531    12.000000000000
         C            0.073808315653     0.064233399111     0.022967913531    12.000000000000
         C           -0.773910684347    -1.026636600889     0.109255913531    12.000000000000
         C           -2.301389684347     0.686258399111    -0.138539086469    12.000000000000
         C            1.549945315653     0.138790399111     0.102955913531    12.000000000000
         C           -3.278042684347    -1.663450600889     0.079570913531    12.000000000000
         C            3.653104315653    -1.065054600889    -0.168509086469    12.000000000000
         H           -0.423293684347    -2.042159600889     0.277940913531     1.007825032230
         H           -3.232880684347     1.231552399111    -0.240407086469     1.007825032230
         H           -3.275135684347    -2.202689600889     1.032055913531     1.007825032230
         H           -4.241242684347    -1.155612600889    -0.016544086469     1.007825032230
         H           -3.206565684347    -2.405147600889    -0.722183086469     1.007825032230
         H            1.696606315653    -1.762636600889    -0.625964086469     1.007825032230
         H            4.045063315653    -0.622844600889    -1.090990086469     1.007825032230
         H            3.993125315653    -2.098722600889    -0.087064086469     1.007825032230
         H            4.033413315653    -0.489717600889     0.674908913531     1.007825032230

  Basis Set: AUG-CC-PVTZ
    Blend: AUG-CC-PVTZ
  Basis Set: (AUG-CC-PVTZ AUX)
    Blend: AUG-CC-PVTZ-JKFIT
	 Reference Energy          =    -797.3078992249098746 [Eh]
	 Singles Energy            =      -0.0000000000000000 [Eh]
	 Same-Spin Energy          =      -0.4874940593200544 [Eh]
	 Opposite-Spin Energy      =      -1.5046946580385545 [Eh]
	 Correlation Energy        =      -1.9921887173586088 [Eh]
	 Total Energy              =    -799.3000879422685330 [Eh]

	 ================> DF-SCS-MP2 Energies <==================
	-----------------------------------------------------------
	 SCS Same-Spin Scale       =       0.3333333333333333 [-]
	 SCS Opposite-Spin Scale   =       1.2000000000000000 [-]
	 SCS Same-Spin Energy      =      -0.1624980197733514 [Eh]
	 SCS Opposite-Spin Energy  =      -1.8056335896462654 [Eh]
	 SCS Correlation Energy    =      -1.9681316094196168 [Eh]
	 SCS Total Energy          =    -799.2760308343295037 [Eh]
	-----------------------------------------------------------

  Dipole Moment: [D]
     X:    -1.3722      Y:    -3.9419      Z:    -1.2759     Total:     4.3646

*** Psi4 exiting successfully. Buy a developer a beer!
