                               Psi4 1.4a3.dev225

  ==> Input File <==

--------------------------------------------------------------------------
#psi4
#
memory 32 gb

molecule  {
0 1
  S       -0.8053760     1.6060500    -0.1399530
  O        2.1464270     1.2641370     0.3857660
  N        2.2049820    -0.9697390    -0.1110850
  C       -2.1414430    -0.6044570     0.0238790
  C        0.0782130     0.1386370     0.0349560
  C       -0.7695060    -0.9522330     0.1212440
  C       -2.2969850     0.7606620    -0.1265510
  C        1.5543500     0.2131940     0.1149440
  C       -3.2736380    -1.5890470     0.0915590
  C        3.6575090    -0.9906510    -0.1565210
  H       -0.4188890    -1.9677560     0.2899290
  H       -3.2284760     1.3059560    -0.2284190
  H       -3.2707310    -2.1282860     1.0440440
  H       -4.2368380    -1.0812090    -0.0045560
  H       -3.2034671    -2.3171914    -0.6955450
  H        1.7010110    -1.6882330    -0.6139760
  H        4.0494680    -0.5484410    -1.0790020
  H        3.9975300    -2.0243190    -0.0750760
  H        4.0378180    -0.4153140     0.6868970
units angstrom
no_reorient  #important for SAPT in psi4, default
symmetry c1  #important for SAPT in psi4, default
}

set PROPERTIES_ORIGIN ["COM"]
properties('MP2/aug-cc-pvtz', properties = ['dipole'])
--------------------------------------------------------------------------

    Molecular point group: c1
  Charge       = 0
  Multiplicity = 1
  Basis Set: AUG-CC-PVTZ
    Blend: AUG-CC-PVTZ
  Basis Set: (AUG-CC-PVTZ AUX)
    Blend: AUG-CC-PVTZ-JKFIT

    Orbital Energies [Eh]
    ---------------------

    Doubly Occupied:

       1A    -91.990336     2A    -20.521851     3A    -15.589365
       4A    -11.360850     5A    -11.274910     6A    -11.269010
       7A    -11.260641     8A    -11.257213     9A    -11.253837
      10A    -11.235880    11A     -8.990085    12A     -6.670952
      13A     -6.670403    14A     -6.669691    15A     -1.376319
      16A     -1.231744    17A     -1.183499    18A     -1.047190
      19A     -1.007329    20A     -0.954385    21A     -0.923767
      22A     -0.828837    23A     -0.768675    24A     -0.750109
      25A     -0.708718    26A     -0.644057    27A     -0.629120
      28A     -0.620697    29A     -0.595642    30A     -0.591852
      31A     -0.567902    32A     -0.551660    33A     -0.549451
      34A     -0.534608    35A     -0.523907    36A     -0.500945
      37A     -0.478315    38A     -0.434658    39A     -0.398833
      40A     -0.348246    41A     -0.327882

  @DF-RHF Final Energy:  -797.31952226834255

   => Energetics <=

    Nuclear Repulsion Energy =            588.0192348526311434
    One-Electron Energy =               -2260.4907710997922550
    Two-Electron Energy =                 875.1520139788185588
    Total Energy =                       -797.3195222683425527
  Basis Set: (AUG-CC-PVTZ AUX)
    Blend: AUG-CC-PVTZ-RI
    Molecular point group: c1

    Geometry (in Angstrom), charge = 0, multiplicity = 1:

       Center              X                  Y                   Z               Mass
    ------------   -----------------  -----------------  -----------------  -----------------
         S           -0.809141786861     1.536696304767    -0.144476360942    31.972071174400
         O            2.142661213139     1.194783304767     0.381242639058    15.994914619570
         N            2.201216213139    -1.039092695233    -0.115608360942    14.003074004430
         C           -2.145208786861    -0.673810695233     0.019355639058    12.000000000000
         C            0.074447213139     0.069283304767     0.030432639058    12.000000000000
         C           -0.773271786861    -1.021586695233     0.116720639058    12.000000000000
         C           -2.300750786861     0.691308304767    -0.131074360942    12.000000000000
         C            1.550584213139     0.143840304767     0.110420639058    12.000000000000
         C           -3.277403786861    -1.658400695233     0.087035639058    12.000000000000
         C            3.653743213139    -1.060004695233    -0.161044360942    12.000000000000
         H           -0.422654786861    -2.037109695233     0.285405639058     1.007825032230
         H           -3.232241786861     1.236602304767    -0.232942360942     1.007825032230
         H           -3.274496786861    -2.197639695233     1.039520639058     1.007825032230
         H           -4.240603786861    -1.150562695233    -0.009079360942     1.007825032230
         H           -3.207232886861    -2.386545095233    -0.700068360942     1.007825032230
         H            1.697245213139    -1.757586695233    -0.618499360942     1.007825032230
         H            4.045702213139    -0.617794695233    -1.083525360942     1.007825032230
         H            3.993764213139    -2.093672695233    -0.079599360942     1.007825032230
         H            4.034052213139    -0.484667695233     0.682373639058     1.007825032230

  Basis Set: AUG-CC-PVTZ
    Blend: AUG-CC-PVTZ
  Basis Set: (AUG-CC-PVTZ AUX)
    Blend: AUG-CC-PVTZ-JKFIT
	 Reference Energy          =    -797.3195222683425527 [Eh]
	 Singles Energy            =      -0.0000000000000000 [Eh]
	 Same-Spin Energy          =      -0.4870256358770541 [Eh]
	 Opposite-Spin Energy      =      -1.5036950832837142 [Eh]
	 Correlation Energy        =      -1.9907207191607683 [Eh]
	 Total Energy              =    -799.3102429875033295 [Eh]

	 ================> DF-SCS-MP2 Energies <==================
	-----------------------------------------------------------
	 SCS Same-Spin Scale       =       0.3333333333333333 [-]
	 SCS Opposite-Spin Scale   =       1.2000000000000000 [-]
	 SCS Same-Spin Energy      =      -0.1623418786256847 [Eh]
	 SCS Opposite-Spin Energy  =      -1.8044340999404569 [Eh]
	 SCS Correlation Energy    =      -1.9667759785661416 [Eh]
	 SCS Total Energy          =    -799.2862982469087001 [Eh]
	-----------------------------------------------------------

  Dipole Moment: [D]
     X:    -1.4968      Y:    -3.7561      Z:    -1.1499     Total:     4.2037

*** Psi4 exiting successfully. Buy a developer a beer!
