                               Psi4 1.4a3.dev225

  ==> Input File <==

--------------------------------------------------------------------------
#psi4
#
memory 32 gb

molecule  {
0 1
  S       -0.8053760     1.6060500    -0.1399530
  O        2.1464270     1.2641370     0.3857660
  N        2.2049820    -0.9697390    -0.1110850
  C       -2.1414430    -0.6044570     0.0238790
  C        0.0782130     0.1386370     0.0349560
  C       -0.7695060    -0.9522330     0.1212440
  C       -2.2969850     0.7606620    -0.1265510
  C        1.5543500     0.2131940     0.1149440
  C       -3.2585617    -1.5759362     0.0906578
  C        3.6575090    -0.9906510    -0.1565210
  H       -0.4188890    -1.9677560     0.2899290
  H       -3.2284760     1.3059560    -0.2284190
  H       -3.2707310    -2.1282860     1.0440440
  H       -4.2368380    -1.0812090    -0.0045560
  H       -3.2021610    -2.3307440    -0.7101950
  H        1.7010110    -1.6882330    -0.6139760
  H        4.0494680    -0.5484410    -1.0790020
  H        3.9975300    -2.0243190    -0.0750760
  H        4.0378180    -0.4153140     0.6868970
units angstrom
no_reorient  #important for SAPT in psi4, default
symmetry c1  #important for SAPT in psi4, default
}

set PROPERTIES_ORIGIN ["COM"]
properties('MP2/aug-cc-pvtz', properties = ['dipole'])
--------------------------------------------------------------------------

    Molecular point group: c1
  Charge       = 0
  Multiplicity = 1
  Basis Set: AUG-CC-PVTZ
    Blend: AUG-CC-PVTZ
  Basis Set: (AUG-CC-PVTZ AUX)
    Blend: AUG-CC-PVTZ-JKFIT

    Orbital Energies [Eh]
    ---------------------

    Doubly Occupied:

       1A    -91.990493     2A    -20.521999     3A    -15.589478
       4A    -11.360990     5A    -11.275135     6A    -11.269248
       7A    -11.260717     8A    -11.257316     9A    -11.253185
      10A    -11.238867    11A     -8.990245    12A     -6.671113
      13A     -6.670563    14A     -6.669851    15A     -1.376458
      16A     -1.231862    17A     -1.184243    18A     -1.049029
      19A     -1.007572    20A     -0.954081    21A     -0.921916
      22A     -0.828980    23A     -0.768913    24A     -0.750458
      25A     -0.709386    26A     -0.644161    27A     -0.629830
      28A     -0.621450    29A     -0.593364    30A     -0.589251
      31A     -0.569598    32A     -0.551799    33A     -0.549175
      34A     -0.532915    35A     -0.524148    36A     -0.500123
      37A     -0.478541    38A     -0.434925    39A     -0.398935
      40A     -0.348176    41A     -0.327711

  @DF-RHF Final Energy:  -797.31883419941960

   => Energetics <=

    Nuclear Repulsion Energy =            588.2952973309994604
    One-Electron Energy =               -2261.0358552241032157
    Two-Electron Energy =                 875.4217236936842710
    Total Energy =                       -797.3188341994195980
  Basis Set: (AUG-CC-PVTZ AUX)
    Blend: AUG-CC-PVTZ-RI
    Molecular point group: c1

    Geometry (in Angstrom), charge = 0, multiplicity = 1:

       Center              X                  Y                   Z               Mass
    ------------   -----------------  -----------------  -----------------  -----------------
         S           -0.810317169666     1.535769637449    -0.144311377991    31.972071174400
         O            2.141485830334     1.193856637449     0.381407622009    15.994914619570
         N            2.200040830334    -1.040019362551    -0.115443377991    14.003074004430
         C           -2.146384169666    -0.674737362551     0.019520622009    12.000000000000
         C            0.073271830334     0.068356637449     0.030597622009    12.000000000000
         C           -0.774447169666    -1.022513362551     0.116885622009    12.000000000000
         C           -2.301926169666     0.690381637449    -0.130909377991    12.000000000000
         C            1.549408830334     0.142913637449     0.110585622009    12.000000000000
         C           -3.263502869666    -1.646216562551     0.086299422009    12.000000000000
         C            3.652567830334    -1.060931362551    -0.160879377991    12.000000000000
         H           -0.423830169666    -2.038036362551     0.285570622009     1.007825032230
         H           -3.233417169666     1.235675637449    -0.232777377991     1.007825032230
         H           -3.275672169666    -2.198566362551     1.039685622009     1.007825032230
         H           -4.241779169666    -1.151489362551    -0.008914377991     1.007825032230
         H           -3.207102169666    -2.401024362551    -0.714553377991     1.007825032230
         H            1.696069830334    -1.758513362551    -0.618334377991     1.007825032230
         H            4.044526830334    -0.618721362551    -1.083360377991     1.007825032230
         H            3.992588830334    -2.094599362551    -0.079434377991     1.007825032230
         H            4.032876830334    -0.485594362551     0.682538622009     1.007825032230

  Basis Set: AUG-CC-PVTZ
    Blend: AUG-CC-PVTZ
  Basis Set: (AUG-CC-PVTZ AUX)
    Blend: AUG-CC-PVTZ-JKFIT
	 Reference Energy          =    -797.3188341994195980 [Eh]
	 Singles Energy            =      -0.0000000000000000 [Eh]
	 Same-Spin Energy          =      -0.4871837021393967 [Eh]
	 Opposite-Spin Energy      =      -1.5039687004367019 [Eh]
	 Correlation Energy        =      -1.9911524025760987 [Eh]
	 Total Energy              =    -799.3099866019956607 [Eh]

	 ================> DF-SCS-MP2 Energies <==================
	-----------------------------------------------------------
	 SCS Same-Spin Scale       =       0.3333333333333333 [-]
	 SCS Opposite-Spin Scale   =       1.2000000000000000 [-]
	 SCS Same-Spin Energy      =      -0.1623945673797989 [Eh]
	 SCS Opposite-Spin Energy  =      -1.8047624405240423 [Eh]
	 SCS Correlation Energy    =      -1.9671570079038412 [Eh]
	 SCS Total Energy          =    -799.2859912073234909 [Eh]
	-----------------------------------------------------------

  Dipole Moment: [D]
     X:    -1.4866      Y:    -3.7456      Z:    -1.1451     Total:     4.1893

*** Psi4 exiting successfully. Buy a developer a beer!
