                               Psi4 1.4a3.dev225

  ==> Input File <==

--------------------------------------------------------------------------
#psi4
#
memory 32 gb

molecule  {
0 1
  S       -0.8053760     1.6060500    -0.1399530
  O        2.1464270     1.2641370     0.3857660
  N        2.2049820    -0.9697390    -0.1110850
  C       -2.1414430    -0.6044570     0.0238790
  C       -0.0244220     0.3090872     0.0146391
  C       -0.7695060    -0.9522330     0.1212440
  C       -2.2969850     0.7606620    -0.1265510
  C        1.5543500     0.2131940     0.1149440
  C       -3.2736380    -1.5890470     0.0915590
  C        3.6575090    -0.9906510    -0.1565210
  H       -0.4188890    -1.9677560     0.2899290
  H       -3.2284760     1.3059560    -0.2284190
  H       -3.2707310    -2.1282860     1.0440440
  H       -4.2368380    -1.0812090    -0.0045560
  H       -3.2021610    -2.3307440    -0.7101950
  H        1.7010110    -1.6882330    -0.6139760
  H        4.0494680    -0.5484410    -1.0790020
  H        3.9975300    -2.0243190    -0.0750760
  H        4.0378180    -0.4153140     0.6868970
units angstrom
no_reorient  #important for SAPT in psi4, default
symmetry c1  #important for SAPT in psi4, default
}

set PROPERTIES_ORIGIN ["COM"]
properties('MP2/aug-cc-pvtz', properties = ['dipole'])
--------------------------------------------------------------------------

    Molecular point group: c1
  Charge       = 0
  Multiplicity = 1
  Basis Set: AUG-CC-PVTZ
    Blend: AUG-CC-PVTZ
  Basis Set: (AUG-CC-PVTZ AUX)
    Blend: AUG-CC-PVTZ-JKFIT

    Orbital Energies [Eh]
    ---------------------

    Doubly Occupied:

       1A    -91.995483     2A    -20.520327     3A    -15.593790
       4A    -11.366586     5A    -11.275469     6A    -11.263539
       7A    -11.255803     8A    -11.252265     9A    -11.249418
      10A    -11.234927    11A     -9.000632    12A     -6.682268
      13A     -6.680518    14A     -6.679931    15A     -1.374976
      16A     -1.231334    17A     -1.203656    18A     -1.060626
      19A     -0.987332    20A     -0.946560    21A     -0.933232
      22A     -0.814240    23A     -0.765454    24A     -0.745215
      25A     -0.696310    26A     -0.644624    27A     -0.631799
      28A     -0.623709    29A     -0.589887    30A     -0.588095
      31A     -0.563137    32A     -0.554600    33A     -0.550489
      34A     -0.543309    35A     -0.523978    36A     -0.510410
      37A     -0.484468    38A     -0.422811    39A     -0.399038
      40A     -0.351494    41A     -0.314739

  @DF-RHF Final Energy:  -797.27236873448169

   => Energetics <=

    Nuclear Repulsion Energy =            589.6587659823754848
    One-Electron Energy =               -2263.6493112976663724
    Two-Electron Energy =                 876.7181765808093132
    Total Energy =                       -797.2723687344816881
  Basis Set: (AUG-CC-PVTZ AUX)
    Blend: AUG-CC-PVTZ-RI
    Molecular point group: c1

    Geometry (in Angstrom), charge = 0, multiplicity = 1:

       Center              X                  Y                   Z               Mass
    ------------   -----------------  -----------------  -----------------  -----------------
         S           -0.801206416438     1.523591703415    -0.142808619535    31.972071174400
         O            2.150596583562     1.181678703415     0.382910380465    15.994914619570
         N            2.209151583562    -1.052197296585    -0.113940619535    14.003074004430
         C           -2.137273416438    -0.686915296585     0.021023380465    12.000000000000
         C           -0.020252416438     0.226628903415     0.011783480465    12.000000000000
         C           -0.765336416438    -1.034691296585     0.118388380465    12.000000000000
         C           -2.292815416438     0.678203703415    -0.129406619535    12.000000000000
         C            1.558519583562     0.130735703415     0.112088380465    12.000000000000
         C           -3.269468416438    -1.671505296585     0.088703380465    12.000000000000
         C            3.661678583562    -1.073109296585    -0.159376619535    12.000000000000
         H           -0.414719416438    -2.050214296585     0.287073380465     1.007825032230
         H           -3.224306416438     1.223497703415    -0.231274619535     1.007825032230
         H           -3.266561416438    -2.210744296585     1.041188380465     1.007825032230
         H           -4.232668416438    -1.163667296585    -0.007411619535     1.007825032230
         H           -3.197991416438    -2.413202296585    -0.713050619535     1.007825032230
         H            1.705180583562    -1.770691296585    -0.616831619535     1.007825032230
         H            4.053637583562    -0.630899296585    -1.081857619535     1.007825032230
         H            4.001699583562    -2.106777296585    -0.077931619535     1.007825032230
         H            4.041987583562    -0.497772296585     0.684041380465     1.007825032230

  Basis Set: AUG-CC-PVTZ
    Blend: AUG-CC-PVTZ
  Basis Set: (AUG-CC-PVTZ AUX)
    Blend: AUG-CC-PVTZ-JKFIT
	 Reference Energy          =    -797.2723687344816881 [Eh]
	 Singles Energy            =      -0.0000000000000000 [Eh]
	 Same-Spin Energy          =      -0.4895975568815709 [Eh]
	 Opposite-Spin Energy      =      -1.5056632862665951 [Eh]
	 Correlation Energy        =      -1.9952608431481660 [Eh]
	 Total Energy              =    -799.2676295776298048 [Eh]

	 ================> DF-SCS-MP2 Energies <==================
	-----------------------------------------------------------
	 SCS Same-Spin Scale       =       0.3333333333333333 [-]
	 SCS Opposite-Spin Scale   =       1.2000000000000000 [-]
	 SCS Same-Spin Energy      =      -0.1631991856271903 [Eh]
	 SCS Opposite-Spin Energy  =      -1.8067959435199139 [Eh]
	 SCS Correlation Energy    =      -1.9699951291471043 [Eh]
	 SCS Total Energy          =    -799.2423638636288388 [Eh]
	-----------------------------------------------------------

  Dipole Moment: [D]
     X:    -1.2403      Y:    -3.5062      Z:    -1.1859     Total:     3.9037

*** Psi4 exiting successfully. Buy a developer a beer!
