                               Psi4 1.4a3.dev225

  ==> Input File <==

--------------------------------------------------------------------------
#psi4
#
memory 32 gb

molecule  {
0 1
  S       -0.8053760     1.6060500    -0.1399530
  O        2.1464270     1.2641370     0.3857660
  N        2.2049820    -0.9697390    -0.1110850
  C       -2.1414430    -0.6044570     0.0238790
  C        0.0782130     0.1386370     0.0349560
  C       -0.7695060    -0.9522330     0.1212440
  C       -2.2969850     0.7606620    -0.1265510
  C        1.5543500     0.2131940     0.1149440
  C       -3.2736380    -1.5890470     0.0915590
  C        3.6575090    -0.9906510    -0.1565210
  H       -0.4188890    -1.9677560     0.2899290
  H       -3.2284760     1.3059560    -0.2284190
  H       -3.2707310    -2.1282860     1.0440440
  H       -4.2368380    -1.0812090    -0.0045560
  H       -3.2008549    -2.3442966    -0.7248450
  H        1.7010110    -1.6882330    -0.6139760
  H        4.0494680    -0.5484410    -1.0790020
  H        3.9975300    -2.0243190    -0.0750760
  H        4.0378180    -0.4153140     0.6868970
units angstrom
no_reorient  #important for SAPT in psi4, default
symmetry c1  #important for SAPT in psi4, default
}

set PROPERTIES_ORIGIN ["COM"]
properties('MP2/aug-cc-pvtz', properties = ['dipole'])
--------------------------------------------------------------------------

    Molecular point group: c1
  Charge       = 0
  Multiplicity = 1
  Basis Set: AUG-CC-PVTZ
    Blend: AUG-CC-PVTZ
  Basis Set: (AUG-CC-PVTZ AUX)
    Blend: AUG-CC-PVTZ-JKFIT

    Orbital Energies [Eh]
    ---------------------

    Doubly Occupied:

       1A    -91.990493     2A    -20.521943     3A    -15.589428
       4A    -11.360940     5A    -11.275040     6A    -11.269281
       7A    -11.260684     8A    -11.257333     9A    -11.254161
      10A    -11.240705    11A     -8.990241    12A     -6.671109
      13A     -6.670559    14A     -6.669847    15A     -1.376406
      16A     -1.231810    17A     -1.183619    18A     -1.046197
      19A     -1.007282    20A     -0.953834    21A     -0.921888
      22A     -0.828772    23A     -0.768762    24A     -0.749951
      25A     -0.708702    26A     -0.644104    27A     -0.628852
      28A     -0.620452    29A     -0.593565    30A     -0.588911
      31A     -0.567627    32A     -0.551712    33A     -0.549112
      34A     -0.534636    35A     -0.523333    36A     -0.500580
      37A     -0.478289    38A     -0.434756    39A     -0.398895
      40A     -0.348269    41A     -0.327928

  @DF-RHF Final Energy:  -797.31900639731396

   => Energetics <=

    Nuclear Repulsion Energy =            587.8455556765314896
    One-Electron Energy =               -2260.1491029065909970
    Two-Electron Energy =                 874.9845408327454379
    Total Energy =                       -797.3190063973139559
  Basis Set: (AUG-CC-PVTZ AUX)
    Blend: AUG-CC-PVTZ-RI
    Molecular point group: c1

    Geometry (in Angstrom), charge = 0, multiplicity = 1:

       Center              X                  Y                   Z               Mass
    ------------   -----------------  -----------------  -----------------  -----------------
         S           -0.809158767203     1.536872499385    -0.144285899248    31.972071174400
         O            2.142644232797     1.194959499385     0.381433100752    15.994914619570
         N            2.201199232797    -1.038916500615    -0.115417899248    14.003074004430
         C           -2.145225767203    -0.673634500615     0.019546100752    12.000000000000
         C            0.074430232797     0.069459499385     0.030623100752    12.000000000000
         C           -0.773288767203    -1.021410500615     0.116911100752    12.000000000000
         C           -2.300767767203     0.691484499385    -0.130883899248    12.000000000000
         C            1.550567232797     0.144016499385     0.110611100752    12.000000000000
         C           -3.277420767203    -1.658224500615     0.087226100752    12.000000000000
         C            3.653726232797    -1.059828500615    -0.160853899248    12.000000000000
         H           -0.422671767203    -2.036933500615     0.285596100752     1.007825032230
         H           -3.232258767203     1.236778499385    -0.232751899248     1.007825032230
         H           -3.274513767203    -2.197463500615     1.039711100752     1.007825032230
         H           -4.240620767203    -1.150386500615    -0.008888899248     1.007825032230
         H           -3.204637667203    -2.413474100615    -0.729177899248     1.007825032230
         H            1.697228232797    -1.757410500615    -0.618308899248     1.007825032230
         H            4.045685232797    -0.617618500615    -1.083334899248     1.007825032230
         H            3.993747232797    -2.093496500615    -0.079408899248     1.007825032230
         H            4.034035232797    -0.484491500615     0.682564100752     1.007825032230

  Basis Set: AUG-CC-PVTZ
    Blend: AUG-CC-PVTZ
  Basis Set: (AUG-CC-PVTZ AUX)
    Blend: AUG-CC-PVTZ-JKFIT
	 Reference Energy          =    -797.3190063973139559 [Eh]
	 Singles Energy            =      -0.0000000000000000 [Eh]
	 Same-Spin Energy          =      -0.4870053355608035 [Eh]
	 Opposite-Spin Energy      =      -1.5039092019021023 [Eh]
	 Correlation Energy        =      -1.9909145374629058 [Eh]
	 Total Energy              =    -799.3099209347768692 [Eh]

	 ================> DF-SCS-MP2 Energies <==================
	-----------------------------------------------------------
	 SCS Same-Spin Scale       =       0.3333333333333333 [-]
	 SCS Opposite-Spin Scale   =       1.2000000000000000 [-]
	 SCS Same-Spin Energy      =      -0.1623351118536012 [Eh]
	 SCS Opposite-Spin Energy  =      -1.8046910422825226 [Eh]
	 SCS Correlation Energy    =      -1.9670261541361238 [Eh]
	 SCS Total Energy          =    -799.2860325514500346 [Eh]
	-----------------------------------------------------------

  Dipole Moment: [D]
     X:    -1.4860      Y:    -3.7379      Z:    -1.1399     Total:     4.1808

*** Psi4 exiting successfully. Buy a developer a beer!
