                               Psi4 1.4a3.dev225

  ==> Input File <==

--------------------------------------------------------------------------
#psi4
#
memory 32 gb

molecule  {
0 1
  S       -0.8053760     1.6060500    -0.1399530
  O        2.1464270     1.2641370     0.3857660
  N        2.2049820    -0.9697390    -0.1110850
  C       -2.1414430    -0.6044570     0.0238790
  C        0.0970919     0.1239760     0.0384624
  C       -0.7695060    -0.9522330     0.1212440
  C       -2.2969850     0.7606620    -0.1265510
  C        1.5543500     0.2131940     0.1149440
  C       -3.2736380    -1.5890470     0.0915590
  C        3.6575090    -0.9906510    -0.1565210
  H       -0.4188890    -1.9677560     0.2899290
  H       -3.2284760     1.3059560    -0.2284190
  H       -3.2707310    -2.1282860     1.0440440
  H       -4.2368380    -1.0812090    -0.0045560
  H       -3.2021610    -2.3307440    -0.7101950
  H        1.7010110    -1.6882330    -0.6139760
  H        4.0494680    -0.5484410    -1.0790020
  H        3.9975300    -2.0243190    -0.0750760
  H        4.0378180    -0.4153140     0.6868970
units angstrom
no_reorient  #important for SAPT in psi4, default
symmetry c1  #important for SAPT in psi4, default
}

set PROPERTIES_ORIGIN ["COM"]
properties('MP2/aug-cc-pvtz', properties = ['dipole'])
--------------------------------------------------------------------------

    Molecular point group: c1
  Charge       = 0
  Multiplicity = 1
  Basis Set: AUG-CC-PVTZ
    Blend: AUG-CC-PVTZ
  Basis Set: (AUG-CC-PVTZ AUX)
    Blend: AUG-CC-PVTZ-JKFIT

    Orbital Energies [Eh]
    ---------------------

    Doubly Occupied:

       1A    -91.990034     2A    -20.521619     3A    -15.588774
       4A    -11.359690     5A    -11.275322     6A    -11.270997
       7A    -11.260260     8A    -11.259385     9A    -11.254553
      10A    -11.238858    11A     -8.989401    12A     -6.670251
      13A     -6.669689    14A     -6.669012    15A     -1.376511
      16A     -1.231898    17A     -1.181685    18A     -1.046812
      19A     -1.008623    20A     -0.954793    21A     -0.922050
      22A     -0.831638    23A     -0.769000    24A     -0.750838
      25A     -0.709195    26A     -0.644162    27A     -0.628895
      28A     -0.620319    29A     -0.594959    30A     -0.591249
      31A     -0.569305    32A     -0.551364    33A     -0.549533
      34A     -0.535850    35A     -0.520730    36A     -0.499456
      37A     -0.475950    38A     -0.435422    39A     -0.398752
      40A     -0.349156    41A     -0.327596

  @DF-RHF Final Energy:  -797.31858351495373

   => Energetics <=

    Nuclear Repulsion Energy =            587.7647421352124866
    One-Electron Energy =               -2259.9794772475438549
    Two-Electron Energy =                 874.8961515973775249
    Total Energy =                       -797.3185835149537297
  Basis Set: (AUG-CC-PVTZ AUX)
    Blend: AUG-CC-PVTZ-RI
    Molecular point group: c1

    Geometry (in Angstrom), charge = 0, multiplicity = 1:

       Center              X                  Y                   Z               Mass
    ------------   -----------------  -----------------  -----------------  -----------------
         S           -0.810611487631     1.537919150848    -0.144652522435    31.972071174400
         O            2.141191512369     1.196006150848     0.381066477565    15.994914619570
         N            2.199746512369    -1.037869849152    -0.115784522435    14.003074004430
         C           -2.146678487631    -0.672587849152     0.019179477565    12.000000000000
         C            0.091856412369     0.055845150848     0.033762877565    12.000000000000
         C           -0.774741487631    -1.020363849152     0.116544477565    12.000000000000
         C           -2.302220487631     0.692531150848    -0.131250522435    12.000000000000
         C            1.549114512369     0.145063150848     0.110244477565    12.000000000000
         C           -3.278873487631    -1.657177849152     0.086859477565    12.000000000000
         C            3.652273512369    -1.058781849152    -0.161220522435    12.000000000000
         H           -0.424124487631    -2.035886849152     0.285229477565     1.007825032230
         H           -3.233711487631     1.237825150848    -0.233118522435     1.007825032230
         H           -3.275966487631    -2.196416849152     1.039344477565     1.007825032230
         H           -4.242073487631    -1.149339849152    -0.009255522435     1.007825032230
         H           -3.207396487631    -2.398874849152    -0.714894522435     1.007825032230
         H            1.695775512369    -1.756363849152    -0.618675522435     1.007825032230
         H            4.044232512369    -0.616571849152    -1.083701522435     1.007825032230
         H            3.992294512369    -2.092449849152    -0.079775522435     1.007825032230
         H            4.032582512369    -0.483444849152     0.682197477565     1.007825032230

  Basis Set: AUG-CC-PVTZ
    Blend: AUG-CC-PVTZ
  Basis Set: (AUG-CC-PVTZ AUX)
    Blend: AUG-CC-PVTZ-JKFIT
	 Reference Energy          =    -797.3185835149537297 [Eh]
	 Singles Energy            =      -0.0000000000000000 [Eh]
	 Same-Spin Energy          =      -0.4870972491771377 [Eh]
	 Opposite-Spin Energy      =      -1.5041141156131139 [Eh]
	 Correlation Energy        =      -1.9912113647902516 [Eh]
	 Total Energy              =    -799.3097948797440040 [Eh]

	 ================> DF-SCS-MP2 Energies <==================
	-----------------------------------------------------------
	 SCS Same-Spin Scale       =       0.3333333333333333 [-]
	 SCS Opposite-Spin Scale   =       1.2000000000000000 [-]
	 SCS Same-Spin Energy      =      -0.1623657497257125 [Eh]
	 SCS Opposite-Spin Energy  =      -1.8049369387357366 [Eh]
	 SCS Correlation Energy    =      -1.9673026884614491 [Eh]
	 SCS Total Energy          =    -799.2858862034152025 [Eh]
	-----------------------------------------------------------

  Dipole Moment: [D]
     X:    -1.5369      Y:    -3.7774      Z:    -1.1424     Total:     4.2351

*** Psi4 exiting successfully. Buy a developer a beer!
