                               Psi4 1.4a3.dev225

  ==> Input File <==

--------------------------------------------------------------------------
#psi4
#
memory 32 gb

molecule  {
0 1
  S       -0.7256225     1.4466103    -0.1192902
  O        2.1464270     1.2641370     0.3857660
  N        2.2049820    -0.9697390    -0.1110850
  C       -2.1414430    -0.6044570     0.0238790
  C        0.0782130     0.1386370     0.0349560
  C       -0.7695060    -0.9522330     0.1212440
  C       -2.2969850     0.7606620    -0.1265510
  C        1.5543500     0.2131940     0.1149440
  C       -3.2736380    -1.5890470     0.0915590
  C        3.6575090    -0.9906510    -0.1565210
  H       -0.4188890    -1.9677560     0.2899290
  H       -3.2284760     1.3059560    -0.2284190
  H       -3.2707310    -2.1282860     1.0440440
  H       -4.2368380    -1.0812090    -0.0045560
  H       -3.2021610    -2.3307440    -0.7101950
  H        1.7010110    -1.6882330    -0.6139760
  H        4.0494680    -0.5484410    -1.0790020
  H        3.9975300    -2.0243190    -0.0750760
  H        4.0378180    -0.4153140     0.6868970
units angstrom
no_reorient  #important for SAPT in psi4, default
symmetry c1  #important for SAPT in psi4, default
}

set PROPERTIES_ORIGIN ["COM"]
properties('MP2/aug-cc-pvtz', properties = ['dipole'])
--------------------------------------------------------------------------

    Molecular point group: c1
  Charge       = 0
  Multiplicity = 1
  Basis Set: AUG-CC-PVTZ
    Blend: AUG-CC-PVTZ
  Basis Set: (AUG-CC-PVTZ AUX)
    Blend: AUG-CC-PVTZ-JKFIT

    Orbital Energies [Eh]
    ---------------------

    Doubly Occupied:

       1A    -91.983073     2A    -20.525528     3A    -15.591730
       4A    -11.365060     5A    -11.263308     6A    -11.262106
       7A    -11.260404     8A    -11.253398     9A    -11.245751
      10A    -11.236405    11A     -8.988368    12A     -6.669833
      13A     -6.668501    14A     -6.667764    15A     -1.380826
      16A     -1.234728    17A     -1.211404    18A     -1.062792
      19A     -1.000856    20A     -0.952652    21A     -0.935649
      22A     -0.829370    23A     -0.768892    24A     -0.751494
      25A     -0.708817    26A     -0.648814    27A     -0.632809
      28A     -0.629102    29A     -0.592738    30A     -0.590235
      31A     -0.576061    32A     -0.558104    33A     -0.554153
      34A     -0.538057    35A     -0.530942    36A     -0.510105
      37A     -0.464076    38A     -0.438415    39A     -0.400846
      40A     -0.345151    41A     -0.330029

  @DF-RHF Final Energy:  -797.29624527101180

   => Energetics <=

    Nuclear Repulsion Energy =            596.6698730829627948
    One-Electron Energy =               -2277.6155376620176867
    Two-Electron Energy =                 883.6494193080430932
    Total Energy =                       -797.2962452710117986
  Basis Set: (AUG-CC-PVTZ AUX)
    Blend: AUG-CC-PVTZ-RI
    Molecular point group: c1

    Geometry (in Angstrom), charge = 0, multiplicity = 1:

       Center              X                  Y                   Z               Mass
    ------------   -----------------  -----------------  -----------------  -----------------
         S           -0.745843349532     1.410223968634    -0.127979362379    31.972071174400
         O            2.126206150468     1.227750668634     0.377076837621    15.994914619570
         N            2.184761150468    -1.006125331366    -0.119774162379    14.003074004430
         C           -2.161663849532    -0.640843331366     0.015189837621    12.000000000000
         C            0.057992150468     0.102250668634     0.026266837621    12.000000000000
         C           -0.789726849532    -0.988619331366     0.112554837621    12.000000000000
         C           -2.317205849532     0.724275668634    -0.135240162379    12.000000000000
         C            1.534129150468     0.176807668634     0.106254837621    12.000000000000
         C           -3.293858849532    -1.625433331366     0.082869837621    12.000000000000
         C            3.637288150468    -1.027037331366    -0.165210162379    12.000000000000
         H           -0.439109849532    -2.004142331366     0.281239837621     1.007825032230
         H           -3.248696849532     1.269569668634    -0.237108162379     1.007825032230
         H           -3.290951849532    -2.164672331366     1.035354837621     1.007825032230
         H           -4.257058849532    -1.117595331366    -0.013245162379     1.007825032230
         H           -3.222381849532    -2.367130331366    -0.718884162379     1.007825032230
         H            1.680790150468    -1.724619331366    -0.622665162379     1.007825032230
         H            4.029247150468    -0.584827331366    -1.087691162379     1.007825032230
         H            3.977309150468    -2.060705331366    -0.083765162379     1.007825032230
         H            4.017597150468    -0.451700331366     0.678207837621     1.007825032230

  Basis Set: AUG-CC-PVTZ
    Blend: AUG-CC-PVTZ
  Basis Set: (AUG-CC-PVTZ AUX)
    Blend: AUG-CC-PVTZ-JKFIT
	 Reference Energy          =    -797.2962452710117986 [Eh]
	 Singles Energy            =      -0.0000000000000000 [Eh]
	 Same-Spin Energy          =      -0.4893427994397197 [Eh]
	 Opposite-Spin Energy      =      -1.5036330376156319 [Eh]
	 Correlation Energy        =      -1.9929758370553516 [Eh]
	 Total Energy              =    -799.2892211080671814 [Eh]

	 ================> DF-SCS-MP2 Energies <==================
	-----------------------------------------------------------
	 SCS Same-Spin Scale       =       0.3333333333333333 [-]
	 SCS Opposite-Spin Scale   =       1.2000000000000000 [-]
	 SCS Same-Spin Energy      =      -0.1631142664799066 [Eh]
	 SCS Opposite-Spin Energy  =      -1.8043596451387582 [Eh]
	 SCS Correlation Energy    =      -1.9674739116186648 [Eh]
	 SCS Total Energy          =    -799.2637191826304388 [Eh]
	-----------------------------------------------------------

  Dipole Moment: [D]
     X:    -1.3577      Y:    -3.7147      Z:    -1.1467     Total:     4.1180

*** Psi4 exiting successfully. Buy a developer a beer!
