                               Psi4 1.4a3.dev225

  ==> Input File <==

--------------------------------------------------------------------------
#psi4
#
memory 32 gb

molecule  {
0 1
  S       -0.8053760     1.6060500    -0.1399530
  O        2.1464270     1.2641370     0.3857660
  N        2.2049820    -0.9697390    -0.1110850
  C       -2.1414430    -0.6044570     0.0238790
  C        0.0782130     0.1386370     0.0349560
  C       -0.7309099    -0.9806873     0.1271712
  C       -2.2969850     0.7606620    -0.1265510
  C        1.5543500     0.2131940     0.1149440
  C       -3.2736380    -1.5890470     0.0915590
  C        3.6575090    -0.9906510    -0.1565210
  H       -0.4188890    -1.9677560     0.2899290
  H       -3.2284760     1.3059560    -0.2284190
  H       -3.2707310    -2.1282860     1.0440440
  H       -4.2368380    -1.0812090    -0.0045560
  H       -3.2021610    -2.3307440    -0.7101950
  H        1.7010110    -1.6882330    -0.6139760
  H        4.0494680    -0.5484410    -1.0790020
  H        3.9975300    -2.0243190    -0.0750760
  H        4.0378180    -0.4153140     0.6868970
units angstrom
no_reorient  #important for SAPT in psi4, default
symmetry c1  #important for SAPT in psi4, default
}

set PROPERTIES_ORIGIN ["COM"]
properties('MP2/aug-cc-pvtz', properties = ['dipole'])
--------------------------------------------------------------------------

    Molecular point group: c1
  Charge       = 0
  Multiplicity = 1
  Basis Set: AUG-CC-PVTZ
    Blend: AUG-CC-PVTZ
  Basis Set: (AUG-CC-PVTZ AUX)
    Blend: AUG-CC-PVTZ-JKFIT

    Orbital Energies [Eh]
    ---------------------

    Doubly Occupied:

       1A    -91.989655     2A    -20.521918     3A    -15.589370
       4A    -11.360025     5A    -11.277090     6A    -11.268196
       7A    -11.260716     8A    -11.258589     9A    -11.257714
      10A    -11.237829    11A     -8.989504    12A     -6.670418
      13A     -6.669809    14A     -6.669074    15A     -1.376333
      16A     -1.231867    17A     -1.178328    18A     -1.044903
      19A     -1.009033    20A     -0.953124    21A     -0.920935
      22A     -0.829238    23A     -0.768162    24A     -0.752460
      25A     -0.709539    26A     -0.644184    27A     -0.628620
      28A     -0.619632    29A     -0.596020    30A     -0.589597
      31A     -0.570322    32A     -0.551910    33A     -0.549327
      34A     -0.529073    35A     -0.526606    36A     -0.498974
      37A     -0.479313    38A     -0.433580    39A     -0.398810
      40A     -0.346613    41A     -0.328520

  @DF-RHF Final Energy:  -797.31742179993762

   => Energetics <=

    Nuclear Repulsion Energy =            587.3676038670449771
    One-Electron Energy =               -2259.2001892774010230
    Two-Electron Energy =                 874.5151636104183126
    Total Energy =                       -797.3174217999376197
  Basis Set: (AUG-CC-PVTZ AUX)
    Blend: AUG-CC-PVTZ-RI
    Molecular point group: c1

    Geometry (in Angstrom), charge = 0, multiplicity = 1:

       Center              X                  Y                   Z               Mass
    ------------   -----------------  -----------------  -----------------  -----------------
         S           -0.812137581927     1.538986740387    -0.144839890270    31.972071174400
         O            2.139665418073     1.197073740387     0.380879109730    15.994914619570
         N            2.198220418073    -1.036802259613    -0.115971890270    14.003074004430
         C           -2.148204581927    -0.671520259613     0.018992109730    12.000000000000
         C            0.071451418073     0.071573740387     0.030069109730    12.000000000000
         C           -0.737671481927    -1.047750559613     0.122284309730    12.000000000000
         C           -2.303746581927     0.693598740387    -0.131437890270    12.000000000000
         C            1.547588418073     0.146130740387     0.110057109730    12.000000000000
         C           -3.280399581927    -1.656110259613     0.086672109730    12.000000000000
         C            3.650747418073    -1.057714259613    -0.161407890270    12.000000000000
         H           -0.425650581927    -2.034819259613     0.285042109730     1.007825032230
         H           -3.235237581927     1.238892740387    -0.233305890270     1.007825032230
         H           -3.277492581927    -2.195349259613     1.039157109730     1.007825032230
         H           -4.243599581927    -1.148272259613    -0.009442890270     1.007825032230
         H           -3.208922581927    -2.397807259613    -0.715081890270     1.007825032230
         H            1.694249418073    -1.755296259613    -0.618862890270     1.007825032230
         H            4.042706418073    -0.615504259613    -1.083888890270     1.007825032230
         H            3.990768418073    -2.091382259613    -0.079962890270     1.007825032230
         H            4.031056418073    -0.482377259613     0.682010109730     1.007825032230

  Basis Set: AUG-CC-PVTZ
    Blend: AUG-CC-PVTZ
  Basis Set: (AUG-CC-PVTZ AUX)
    Blend: AUG-CC-PVTZ-JKFIT
	 Reference Energy          =    -797.3174217999376197 [Eh]
	 Singles Energy            =      -0.0000000000000000 [Eh]
	 Same-Spin Energy          =      -0.4862215209308063 [Eh]
	 Opposite-Spin Energy      =      -1.5033938436422776 [Eh]
	 Correlation Energy        =      -1.9896153645730839 [Eh]
	 Total Energy              =    -799.3070371645106889 [Eh]

	 ================> DF-SCS-MP2 Energies <==================
	-----------------------------------------------------------
	 SCS Same-Spin Scale       =       0.3333333333333333 [-]
	 SCS Opposite-Spin Scale   =       1.2000000000000000 [-]
	 SCS Same-Spin Energy      =      -0.1620738403102688 [Eh]
	 SCS Opposite-Spin Energy  =      -1.8040726123707329 [Eh]
	 SCS Correlation Energy    =      -1.9661464526810017 [Eh]
	 SCS Total Energy          =    -799.2835682526185792 [Eh]
	-----------------------------------------------------------

  Dipole Moment: [D]
     X:    -1.4950      Y:    -3.7511      Z:    -1.1413     Total:     4.1963

*** Psi4 exiting successfully. Buy a developer a beer!
