                               Psi4 1.4a3.dev225

  ==> Input File <==

--------------------------------------------------------------------------
#psi4
#
memory 32 gb

molecule  {
0 1
  S       -0.8053760     1.6060500    -0.1399530
  O        2.1464270     1.2641370     0.3857660
  N        2.2049820    -0.9697390    -0.1110850
  C       -2.1414430    -0.6044570     0.0238790
  C        0.0782130     0.1386370     0.0349560
  C       -0.6913281    -1.0077779     0.1329860
  C       -2.2969850     0.7606620    -0.1265510
  C        1.5543500     0.2131940     0.1149440
  C       -3.2736380    -1.5890470     0.0915590
  C        3.6575090    -0.9906510    -0.1565210
  H       -0.4188890    -1.9677560     0.2899290
  H       -3.2284760     1.3059560    -0.2284190
  H       -3.2707310    -2.1282860     1.0440440
  H       -4.2368380    -1.0812090    -0.0045560
  H       -3.2021610    -2.3307440    -0.7101950
  H        1.7010110    -1.6882330    -0.6139760
  H        4.0494680    -0.5484410    -1.0790020
  H        3.9975300    -2.0243190    -0.0750760
  H        4.0378180    -0.4153140     0.6868970
units angstrom
no_reorient  #important for SAPT in psi4, default
symmetry c1  #important for SAPT in psi4, default
}

set PROPERTIES_ORIGIN ["COM"]
properties('MP2/aug-cc-pvtz', properties = ['dipole'])
--------------------------------------------------------------------------

    Molecular point group: c1
  Charge       = 0
  Multiplicity = 1
  Basis Set: AUG-CC-PVTZ
    Blend: AUG-CC-PVTZ
  Basis Set: (AUG-CC-PVTZ AUX)
    Blend: AUG-CC-PVTZ-JKFIT

    Orbital Energies [Eh]
    ---------------------

    Doubly Occupied:

       1A    -91.989120     2A    -20.521880     3A    -15.589265
       4A    -11.359137     5A    -11.279415     6A    -11.267522
       7A    -11.262052     8A    -11.260724     9A    -11.259075
      10A    -11.237460    11A     -8.989061    12A     -6.670019
      13A     -6.669353    14A     -6.668594    15A     -1.376263
      16A     -1.231927    17A     -1.173836    18A     -1.043642
      19A     -1.010760    20A     -0.952380    21A     -0.919389
      22A     -0.830097    23A     -0.768636    24A     -0.754999
      25A     -0.710693    26A     -0.644242    27A     -0.628308
      28A     -0.618803    29A     -0.598376    30A     -0.588425
      31A     -0.572089    32A     -0.552147    33A     -0.549429
      34A     -0.530450    35A     -0.520694    36A     -0.497350
      37A     -0.480043    38A     -0.432195    39A     -0.398696
      40A     -0.346313    41A     -0.328298

  @DF-RHF Final Energy:  -797.30952734613152

   => Energetics <=

    Nuclear Repulsion Energy =            586.8518351488193048
    One-Electron Energy =               -2258.1604104677589930
    Two-Electron Energy =                 873.9990479728082846
    Total Energy =                       -797.3095273461315173
  Basis Set: (AUG-CC-PVTZ AUX)
    Blend: AUG-CC-PVTZ-RI
    Molecular point group: c1

    Geometry (in Angstrom), charge = 0, multiplicity = 1:

       Center              X                  Y                   Z               Mass
    ------------   -----------------  -----------------  -----------------  -----------------
         S           -0.815201179153     1.541083529492    -0.145289950781    31.972071174400
         O            2.136601820847     1.199170529492     0.380429049219    15.994914619570
         N            2.195156820847    -1.034705470508    -0.116421950781    14.003074004430
         C           -2.151268179153    -0.669423470508     0.018542049219    12.000000000000
         C            0.068387820847     0.073670529492     0.029619049219    12.000000000000
         C           -0.701153279153    -1.072744370508     0.127649049219    12.000000000000
         C           -2.306810179153     0.695695529492    -0.131887950781    12.000000000000
         C            1.544524820847     0.148227529492     0.109607049219    12.000000000000
         C           -3.283463179153    -1.654013470508     0.086222049219    12.000000000000
         C            3.647683820847    -1.055617470508    -0.161857950781    12.000000000000
         H           -0.428714179153    -2.032722470508     0.284592049219     1.007825032230
         H           -3.238301179153     1.240989529492    -0.233755950781     1.007825032230
         H           -3.280556179153    -2.193252470508     1.038707049219     1.007825032230
         H           -4.246663179153    -1.146175470508    -0.009892950781     1.007825032230
         H           -3.211986179153    -2.395710470508    -0.715531950781     1.007825032230
         H            1.691185820847    -1.753199470508    -0.619312950781     1.007825032230
         H            4.039642820847    -0.613407470508    -1.084338950781     1.007825032230
         H            3.987704820847    -2.089285470508    -0.080412950781     1.007825032230
         H            4.027992820847    -0.480280470508     0.681560049219     1.007825032230

  Basis Set: AUG-CC-PVTZ
    Blend: AUG-CC-PVTZ
  Basis Set: (AUG-CC-PVTZ AUX)
    Blend: AUG-CC-PVTZ-JKFIT
	 Reference Energy          =    -797.3095273461315173 [Eh]
	 Singles Energy            =      -0.0000000000000000 [Eh]
	 Same-Spin Energy          =      -0.4855635578038106 [Eh]
	 Opposite-Spin Energy      =      -1.5033282898651357 [Eh]
	 Correlation Energy        =      -1.9888918476689463 [Eh]
	 Total Energy              =    -799.2984191938004415 [Eh]

	 ================> DF-SCS-MP2 Energies <==================
	-----------------------------------------------------------
	 SCS Same-Spin Scale       =       0.3333333333333333 [-]
	 SCS Opposite-Spin Scale   =       1.2000000000000000 [-]
	 SCS Same-Spin Energy      =      -0.1618545192679369 [Eh]
	 SCS Opposite-Spin Energy  =      -1.8039939478381628 [Eh]
	 SCS Correlation Energy    =      -1.9658484671060996 [Eh]
	 SCS Total Energy          =    -799.2753758132375879 [Eh]
	-----------------------------------------------------------

  Dipole Moment: [D]
     X:    -1.5020      Y:    -3.7492      Z:    -1.1384     Total:     4.1962

*** Psi4 exiting successfully. Buy a developer a beer!
