                               Psi4 1.4a3.dev225

  ==> Input File <==

--------------------------------------------------------------------------
#psi4
#
memory 32 gb

molecule  {
0 1
  S       -0.8053760     1.6060500    -0.1399530
  O        2.1464270     1.2641370     0.3857660
  N        2.2069670    -0.9921659    -0.0656246
  C       -2.1414430    -0.6044570     0.0238790
  C        0.0782130     0.1386370     0.0349560
  C       -0.7695060    -0.9522330     0.1212440
  C       -2.2969850     0.7606620    -0.1265510
  C        1.5543500     0.2131940     0.1149440
  C       -3.2736380    -1.5890470     0.0915590
  C        3.6575090    -0.9906510    -0.1565210
  H       -0.4188890    -1.9677560     0.2899290
  H       -3.2284760     1.3059560    -0.2284190
  H       -3.2707310    -2.1282860     1.0440440
  H       -4.2368380    -1.0812090    -0.0045560
  H       -3.2021610    -2.3307440    -0.7101950
  H        1.7010110    -1.6882330    -0.6139760
  H        4.0494680    -0.5484410    -1.0790020
  H        3.9975300    -2.0243190    -0.0750760
  H        4.0378180    -0.4153140     0.6868970
units angstrom
no_reorient  #important for SAPT in psi4, default
symmetry c1  #important for SAPT in psi4, default
}

set PROPERTIES_ORIGIN ["COM"]
properties('MP2/aug-cc-pvtz', properties = ['dipole'])
--------------------------------------------------------------------------

    Molecular point group: c1
  Charge       = 0
  Multiplicity = 1
  Basis Set: AUG-CC-PVTZ
    Blend: AUG-CC-PVTZ
  Basis Set: (AUG-CC-PVTZ AUX)
    Blend: AUG-CC-PVTZ-JKFIT

    Orbital Energies [Eh]
    ---------------------

    Doubly Occupied:

       1A    -91.990912     2A    -20.525351     3A    -15.589688
       4A    -11.362734     5A    -11.275440     6A    -11.269855
       7A    -11.259386     8A    -11.257864     9A    -11.254412
      10A    -11.238567    11A     -8.990671    12A     -6.671540
      13A     -6.670990    14A     -6.670278    15A     -1.377194
      16A     -1.228927    17A     -1.183998    18A     -1.047018
      19A     -1.007380    20A     -0.952531    21A     -0.922516
      22A     -0.828251    23A     -0.763477    24A     -0.750308
      25A     -0.708951    26A     -0.644672    27A     -0.629749
      28A     -0.617739    29A     -0.594596    30A     -0.591054
      31A     -0.567540    32A     -0.549746    33A     -0.548810
      34A     -0.535064    35A     -0.523985    36A     -0.500963
      37A     -0.478921    38A     -0.436496    39A     -0.400946
      40A     -0.348657    41A     -0.328454

  @DF-RHF Final Energy:  -797.31807481033934

   => Energetics <=

    Nuclear Repulsion Energy =            587.5665629556102658
    One-Electron Energy =               -2259.5780136463913550
    Two-Electron Energy =                 874.6933758804418630
    Total Energy =                       -797.3180748103393398
  Basis Set: (AUG-CC-PVTZ AUX)
    Blend: AUG-CC-PVTZ-RI
    Molecular point group: c1

    Geometry (in Angstrom), charge = 0, multiplicity = 1:

       Center              X                  Y                   Z               Mass
    ------------   -----------------  -----------------  -----------------  -----------------
         S           -0.809329559894     1.538809973270    -0.148487059879    31.972071174400
         O            2.142473440106     1.196896973270     0.377231940121    15.994914619570
         N            2.203013440106    -1.059405926730    -0.074158659879    14.003074004430
         C           -2.145396559894    -0.671697026730     0.015344940121    12.000000000000
         C            0.074259440106     0.071396973270     0.026421940121    12.000000000000
         C           -0.773459559894    -1.019473026730     0.112709940121    12.000000000000
         C           -2.300938559894     0.693421973270    -0.135085059879    12.000000000000
         C            1.550396440106     0.145953973270     0.106409940121    12.000000000000
         C           -3.277591559894    -1.656287026730     0.083024940121    12.000000000000
         C            3.653555440106    -1.057891026730    -0.165055059879    12.000000000000
         H           -0.422842559894    -2.034996026730     0.281394940121     1.007825032230
         H           -3.232429559894     1.238715973270    -0.236953059879     1.007825032230
         H           -3.274684559894    -2.195526026730     1.035509940121     1.007825032230
         H           -4.240791559894    -1.148449026730    -0.013090059879     1.007825032230
         H           -3.206114559894    -2.397984026730    -0.718729059879     1.007825032230
         H            1.697057440106    -1.755473026730    -0.622510059879     1.007825032230
         H            4.045514440106    -0.615681026730    -1.087536059879     1.007825032230
         H            3.993576440106    -2.091559026730    -0.083610059879     1.007825032230
         H            4.033864440106    -0.482554026730     0.678362940121     1.007825032230

  Basis Set: AUG-CC-PVTZ
    Blend: AUG-CC-PVTZ
  Basis Set: (AUG-CC-PVTZ AUX)
    Blend: AUG-CC-PVTZ-JKFIT
	 Reference Energy          =    -797.3180748103393398 [Eh]
	 Singles Energy            =      -0.0000000000000000 [Eh]
	 Same-Spin Energy          =      -0.4870918186331071 [Eh]
	 Opposite-Spin Energy      =      -1.5042599791844549 [Eh]
	 Correlation Energy        =      -1.9913517978175621 [Eh]
	 Total Energy              =    -799.3094266081568549 [Eh]

	 ================> DF-SCS-MP2 Energies <==================
	-----------------------------------------------------------
	 SCS Same-Spin Scale       =       0.3333333333333333 [-]
	 SCS Opposite-Spin Scale   =       1.2000000000000000 [-]
	 SCS Same-Spin Energy      =      -0.1623639395443690 [Eh]
	 SCS Opposite-Spin Energy  =      -1.8051119750213458 [Eh]
	 SCS Correlation Energy    =      -1.9674759145657148 [Eh]
	 SCS Total Energy          =    -799.2855507249050788 [Eh]
	-----------------------------------------------------------

  Dipole Moment: [D]
     X:    -1.5646      Y:    -3.6122      Z:    -1.2008     Total:     4.1156

*** Psi4 exiting successfully. Buy a developer a beer!
