                               Psi4 1.4a3.dev225

  ==> Input File <==

--------------------------------------------------------------------------
#psi4
#
memory 32 gb

molecule  {
0 1
  S       -0.8053760     1.6060500    -0.1399530
  O        2.1464270     1.2641370     0.3857660
  N        2.2180961    -0.8845328     0.0142590
  C       -2.1414430    -0.6044570     0.0238790
  C        0.0782130     0.1386370     0.0349560
  C       -0.7695060    -0.9522330     0.1212440
  C       -2.2969850     0.7606620    -0.1265510
  C        1.5543500     0.2131940     0.1149440
  C       -3.2736380    -1.5890470     0.0915590
  C        3.6575090    -0.9906510    -0.1565210
  H       -0.4188890    -1.9677560     0.2899290
  H       -3.2284760     1.3059560    -0.2284190
  H       -3.2707310    -2.1282860     1.0440440
  H       -4.2368380    -1.0812090    -0.0045560
  H       -3.2021610    -2.3307440    -0.7101950
  H        1.7010110    -1.6882330    -0.6139760
  H        4.0494680    -0.5484410    -1.0790020
  H        3.9975300    -2.0243190    -0.0750760
  H        4.0378180    -0.4153140     0.6868970
units angstrom
no_reorient  #important for SAPT in psi4, default
symmetry c1  #important for SAPT in psi4, default
}

set PROPERTIES_ORIGIN ["COM"]
properties('MP2/aug-cc-pvtz', properties = ['dipole'])
--------------------------------------------------------------------------

    Molecular point group: c1
  Charge       = 0
  Multiplicity = 1
  Basis Set: AUG-CC-PVTZ
    Blend: AUG-CC-PVTZ
  Basis Set: (AUG-CC-PVTZ AUX)
    Blend: AUG-CC-PVTZ-JKFIT

    Orbital Energies [Eh]
    ---------------------

    Doubly Occupied:

       1A    -91.989495     2A    -20.508278     3A    -15.601565
       4A    -11.349011     5A    -11.274340     6A    -11.267947
       7A    -11.265806     8A    -11.256037     9A    -11.253029
      10A    -11.237677    11A     -8.989184    12A     -6.670046
      13A     -6.669502    14A     -6.668791    15A     -1.381181
      16A     -1.236598    17A     -1.182850    18A     -1.046341
      19A     -1.009181    20A     -0.964035    21A     -0.924545
      22A     -0.819045    23A     -0.758185    24A     -0.747933
      25A     -0.708389    26A     -0.653217    27A     -0.633271
      28A     -0.618974    29A     -0.592510    30A     -0.589995
      31A     -0.570404    32A     -0.550666    33A     -0.533834
      34A     -0.528911    35A     -0.523232    36A     -0.502268
      37A     -0.476895    38A     -0.428917    39A     -0.401012
      40A     -0.347286    41A     -0.327050

  @DF-RHF Final Energy:  -797.29448092053576

   => Energetics <=

    Nuclear Repulsion Energy =            589.4338162141251587
    One-Electron Energy =               -2263.3417242211230587
    Two-Electron Energy =                 876.6134270864620248
    Total Energy =                       -797.2944809205357615
  Basis Set: (AUG-CC-PVTZ AUX)
    Blend: AUG-CC-PVTZ-RI
    Molecular point group: c1

    Geometry (in Angstrom), charge = 0, multiplicity = 1:

       Center              X                  Y                   Z               Mass
    ------------   -----------------  -----------------  -----------------  -----------------
         S           -0.810334727098     1.529088678449    -0.155702052543    31.972071174400
         O            2.141468272902     1.187175678449     0.370016947457    15.994914619570
         N            2.213137372902    -0.961494121551    -0.001490052543    14.003074004430
         C           -2.146401727098    -0.681418321551     0.008129947457    12.000000000000
         C            0.073254272902     0.061675678449     0.019206947457    12.000000000000
         C           -0.774464727098    -1.029194321551     0.105494947457    12.000000000000
         C           -2.301943727098     0.683700678449    -0.142300052543    12.000000000000
         C            1.549391272902     0.136232678449     0.099194947457    12.000000000000
         C           -3.278596727098    -1.666008321551     0.075809947457    12.000000000000
         C            3.652550272902    -1.067612321551    -0.172270052543    12.000000000000
         H           -0.423847727098    -2.044717321551     0.274179947457     1.007825032230
         H           -3.233434727098     1.228994678449    -0.244168052543     1.007825032230
         H           -3.275689727098    -2.205247321551     1.028294947457     1.007825032230
         H           -4.241796727098    -1.158170321551    -0.020305052543     1.007825032230
         H           -3.207119727098    -2.407705321551    -0.725944052543     1.007825032230
         H            1.696052272902    -1.765194321551    -0.629725052543     1.007825032230
         H            4.044509272902    -0.625402321551    -1.094751052543     1.007825032230
         H            3.992571272902    -2.101280321551    -0.090825052543     1.007825032230
         H            4.032859272902    -0.492275321551     0.671147947457     1.007825032230

  Basis Set: AUG-CC-PVTZ
    Blend: AUG-CC-PVTZ
  Basis Set: (AUG-CC-PVTZ AUX)
    Blend: AUG-CC-PVTZ-JKFIT
	 Reference Energy          =    -797.2944809205357615 [Eh]
	 Singles Energy            =      -0.0000000000000000 [Eh]
	 Same-Spin Energy          =      -0.4879000461109075 [Eh]
	 Opposite-Spin Energy      =      -1.5056442413671061 [Eh]
	 Correlation Energy        =      -1.9935442874780136 [Eh]
	 Total Energy              =    -799.2880252080137780 [Eh]

	 ================> DF-SCS-MP2 Energies <==================
	-----------------------------------------------------------
	 SCS Same-Spin Scale       =       0.3333333333333333 [-]
	 SCS Opposite-Spin Scale   =       1.2000000000000000 [-]
	 SCS Same-Spin Energy      =      -0.1626333487036358 [Eh]
	 SCS Opposite-Spin Energy  =      -1.8067730896405272 [Eh]
	 SCS Correlation Energy    =      -1.9694064383441630 [Eh]
	 SCS Total Energy          =    -799.2638873588799697 [Eh]
	-----------------------------------------------------------

  Dipole Moment: [D]
     X:    -1.3250      Y:    -4.0094      Z:    -1.3253     Total:     4.4257

*** Psi4 exiting successfully. Buy a developer a beer!
