                               Psi4 1.4a3.dev225

  ==> Input File <==

--------------------------------------------------------------------------
#psi4
#
memory 32 gb

molecule  {
0 1
  S       -0.8053760     1.6060500    -0.1399530
  O        2.1464270     1.2641370     0.3857660
  N        2.2049820    -0.9697390    -0.1110850
  C       -2.1414430    -0.6044570     0.0238790
  C        0.0782130     0.1386370     0.0349560
  C       -0.7695060    -0.9522330     0.1212440
  C       -2.3404830     0.7360090    -0.1261602
  C        1.5543500     0.2131940     0.1149440
  C       -3.2736380    -1.5890470     0.0915590
  C        3.6575090    -0.9906510    -0.1565210
  H       -0.4188890    -1.9677560     0.2899290
  H       -3.2284760     1.3059560    -0.2284190
  H       -3.2707310    -2.1282860     1.0440440
  H       -4.2368380    -1.0812090    -0.0045560
  H       -3.2021610    -2.3307440    -0.7101950
  H        1.7010110    -1.6882330    -0.6139760
  H        4.0494680    -0.5484410    -1.0790020
  H        3.9975300    -2.0243190    -0.0750760
  H        4.0378180    -0.4153140     0.6868970
units angstrom
no_reorient  #important for SAPT in psi4, default
symmetry c1  #important for SAPT in psi4, default
}

set PROPERTIES_ORIGIN ["COM"]
properties('MP2/aug-cc-pvtz', properties = ['dipole'])
--------------------------------------------------------------------------

    Molecular point group: c1
  Charge       = 0
  Multiplicity = 1
  Basis Set: AUG-CC-PVTZ
    Blend: AUG-CC-PVTZ
  Basis Set: (AUG-CC-PVTZ AUX)
    Blend: AUG-CC-PVTZ-JKFIT

    Orbital Energies [Eh]
    ---------------------

    Doubly Occupied:

       1A    -91.987797     2A    -20.523239     3A    -15.590370
       4A    -11.362023     5A    -11.277773     6A    -11.268431
       7A    -11.261265     8A    -11.257759     9A    -11.253977
      10A    -11.237771    11A     -8.986879    12A     -6.667719
      13A     -6.667150    14A     -6.666480    15A     -1.377425
      16A     -1.232673    17A     -1.180911    18A     -1.048976
      19A     -1.001863    20A     -0.954521    21A     -0.924128
      22A     -0.831371    23A     -0.770383    24A     -0.753097
      25A     -0.708697    26A     -0.645196    27A     -0.629685
      28A     -0.620197    29A     -0.599299    30A     -0.591242
      31A     -0.570331    32A     -0.552166    33A     -0.549063
      34A     -0.538027    35A     -0.519125    36A     -0.498569
      37A     -0.470764    38A     -0.435498    39A     -0.399483
      40A     -0.345780    41A     -0.332392

  @DF-RHF Final Energy:  -797.31818335422111

   => Energetics <=

    Nuclear Repulsion Energy =            587.1901387426925112
    One-Electron Energy =               -2258.8376584376651408
    Two-Electron Energy =                 874.3293363407516381
    Total Energy =                       -797.3181833542211052
  Basis Set: (AUG-CC-PVTZ AUX)
    Blend: AUG-CC-PVTZ-RI
    Molecular point group: c1

    Geometry (in Angstrom), charge = 0, multiplicity = 1:

       Center              X                  Y                   Z               Mass
    ------------   -----------------  -----------------  -----------------  -----------------
         S           -0.805783569300     1.538692523041    -0.144411377678    31.972071174400
         O            2.146019430700     1.196779523041     0.381307622322    15.994914619570
         N            2.204574430700    -1.037096476959    -0.115543377678    14.003074004430
         C           -2.141850569300    -0.671814476959     0.019420622322    12.000000000000
         C            0.077805430700     0.071279523041     0.030497622322    12.000000000000
         C           -0.769913569300    -1.019590476959     0.116785622322    12.000000000000
         C           -2.340890569300     0.668651523041    -0.130618577678    12.000000000000
         C            1.553942430700     0.145836523041     0.110485622322    12.000000000000
         C           -3.274045569300    -1.656404476959     0.087100622322    12.000000000000
         C            3.657101430700    -1.058008476959    -0.160979377678    12.000000000000
         H           -0.419296569300    -2.035113476959     0.285470622322     1.007825032230
         H           -3.228883569300     1.238598523041    -0.232877377678     1.007825032230
         H           -3.271138569300    -2.195643476959     1.039585622322     1.007825032230
         H           -4.237245569300    -1.148566476959    -0.009014377678     1.007825032230
         H           -3.202568569300    -2.398101476959    -0.714653377678     1.007825032230
         H            1.700603430700    -1.755590476959    -0.618434377678     1.007825032230
         H            4.049060430700    -0.615798476959    -1.083460377678     1.007825032230
         H            3.997122430700    -2.091676476959    -0.079534377678     1.007825032230
         H            4.037410430700    -0.482671476959     0.682438622322     1.007825032230

  Basis Set: AUG-CC-PVTZ
    Blend: AUG-CC-PVTZ
  Basis Set: (AUG-CC-PVTZ AUX)
    Blend: AUG-CC-PVTZ-JKFIT
	 Reference Energy          =    -797.3181833542211052 [Eh]
	 Singles Energy            =      -0.0000000000000000 [Eh]
	 Same-Spin Energy          =      -0.4863568894179103 [Eh]
	 Opposite-Spin Energy      =      -1.5036820316200532 [Eh]
	 Correlation Energy        =      -1.9900389210379634 [Eh]
	 Total Energy              =    -799.3082222752590269 [Eh]

	 ================> DF-SCS-MP2 Energies <==================
	-----------------------------------------------------------
	 SCS Same-Spin Scale       =       0.3333333333333333 [-]
	 SCS Opposite-Spin Scale   =       1.2000000000000000 [-]
	 SCS Same-Spin Energy      =      -0.1621189631393034 [Eh]
	 SCS Opposite-Spin Energy  =      -1.8044184379440638 [Eh]
	 SCS Correlation Energy    =      -1.9665374010833672 [Eh]
	 SCS Total Energy          =    -799.2847207553044200 [Eh]
	-----------------------------------------------------------

  Dipole Moment: [D]
     X:    -1.4734      Y:    -3.8016      Z:    -1.1393     Total:     4.2333

*** Psi4 exiting successfully. Buy a developer a beer!
