                               Psi4 1.4a3.dev225

  ==> Input File <==

--------------------------------------------------------------------------
#psi4
#
memory 32 gb

molecule  {
0 1
  S       -0.8053760     1.6060500    -0.1399530
  O        2.1464270     1.2641370     0.3857660
  N        2.2049820    -0.9697390    -0.1110850
  C       -2.1531159    -0.6520655     0.0308979
  C        0.0782130     0.1386370     0.0349560
  C       -0.7695060    -0.9522330     0.1212440
  C       -2.2969850     0.7606620    -0.1265510
  C        1.5543500     0.2131940     0.1149440
  C       -3.2736380    -1.5890470     0.0915590
  C        3.6575090    -0.9906510    -0.1565210
  H       -0.4188890    -1.9677560     0.2899290
  H       -3.2284760     1.3059560    -0.2284190
  H       -3.2707310    -2.1282860     1.0440440
  H       -4.2368380    -1.0812090    -0.0045560
  H       -3.2021610    -2.3307440    -0.7101950
  H        1.7010110    -1.6882330    -0.6139760
  H        4.0494680    -0.5484410    -1.0790020
  H        3.9975300    -2.0243190    -0.0750760
  H        4.0378180    -0.4153140     0.6868970
units angstrom
no_reorient  #important for SAPT in psi4, default
symmetry c1  #important for SAPT in psi4, default
}

set PROPERTIES_ORIGIN ["COM"]
properties('MP2/aug-cc-pvtz', properties = ['dipole'])
--------------------------------------------------------------------------

    Molecular point group: c1
  Charge       = 0
  Multiplicity = 1
  Basis Set: AUG-CC-PVTZ
    Blend: AUG-CC-PVTZ
  Basis Set: (AUG-CC-PVTZ AUX)
    Blend: AUG-CC-PVTZ-JKFIT

    Orbital Energies [Eh]
    ---------------------

    Doubly Occupied:

       1A    -91.993209     2A    -20.521090     3A    -15.588672
       4A    -11.360468     5A    -11.274583     6A    -11.273898
       7A    -11.260197     8A    -11.258279     9A    -11.257170
      10A    -11.237244    11A     -8.992622    12A     -6.673474
      13A     -6.672916    14A     -6.672262    15A     -1.375707
      16A     -1.231095    17A     -1.179294    18A     -1.052623
      19A     -1.006202    20A     -0.954921    21A     -0.921051
      22A     -0.825562    23A     -0.767763    24A     -0.749462
      25A     -0.710093    26A     -0.643347    27A     -0.629635
      28A     -0.620566    29A     -0.595148    30A     -0.593646
      31A     -0.568547    32A     -0.551669    33A     -0.549976
      34A     -0.535866    35A     -0.521100    36A     -0.498320
      37A     -0.479240    38A     -0.434763    39A     -0.398385
      40A     -0.349155    41A     -0.320628

  @DF-RHF Final Energy:  -797.31368715540179

   => Energetics <=

    Nuclear Repulsion Energy =            587.3719023889213986
    One-Electron Energy =               -2259.1714895571858506
    Two-Electron Energy =                 874.4859000128626576
    Total Energy =                       -797.3136871554017944
  Basis Set: (AUG-CC-PVTZ AUX)
    Blend: AUG-CC-PVTZ-RI
    Molecular point group: c1

    Geometry (in Angstrom), charge = 0, multiplicity = 1:

       Center              X                  Y                   Z               Mass
    ------------   -----------------  -----------------  -----------------  -----------------
         S           -0.808246804627     1.540469258968    -0.144924386909    31.972071174400
         O            2.143556195373     1.198556258968     0.380794613091    15.994914619570
         N            2.202111195373    -1.035319741032    -0.116056386909    14.003074004430
         C           -2.155986704627    -0.717646241032     0.025926513091    12.000000000000
         C            0.075342195373     0.073056258968     0.029984613091    12.000000000000
         C           -0.772376804627    -1.017813741032     0.116272613091    12.000000000000
         C           -2.299855804627     0.695081258968    -0.131522386909    12.000000000000
         C            1.551479195373     0.147613258968     0.109972613091    12.000000000000
         C           -3.276508804627    -1.654627741032     0.086587613091    12.000000000000
         C            3.654638195373    -1.056231741032    -0.161492386909    12.000000000000
         H           -0.421759804627    -2.033336741032     0.284957613091     1.007825032230
         H           -3.231346804627     1.240375258968    -0.233390386909     1.007825032230
         H           -3.273601804627    -2.193866741032     1.039072613091     1.007825032230
         H           -4.239708804627    -1.146789741032    -0.009527386909     1.007825032230
         H           -3.205031804627    -2.396324741032    -0.715166386909     1.007825032230
         H            1.698140195373    -1.753813741032    -0.618947386909     1.007825032230
         H            4.046597195373    -0.614021741032    -1.083973386909     1.007825032230
         H            3.994659195373    -2.089899741032    -0.080047386909     1.007825032230
         H            4.034947195373    -0.480894741032     0.681925613091     1.007825032230

  Basis Set: AUG-CC-PVTZ
    Blend: AUG-CC-PVTZ
  Basis Set: (AUG-CC-PVTZ AUX)
    Blend: AUG-CC-PVTZ-JKFIT
	 Reference Energy          =    -797.3136871554017944 [Eh]
	 Singles Energy            =      -0.0000000000000000 [Eh]
	 Same-Spin Energy          =      -0.4882491356422594 [Eh]
	 Opposite-Spin Energy      =      -1.5054157595617390 [Eh]
	 Correlation Energy        =      -1.9936648952039984 [Eh]
	 Total Energy              =    -799.3073520506058003 [Eh]

	 ================> DF-SCS-MP2 Energies <==================
	-----------------------------------------------------------
	 SCS Same-Spin Scale       =       0.3333333333333333 [-]
	 SCS Opposite-Spin Scale   =       1.2000000000000000 [-]
	 SCS Same-Spin Energy      =      -0.1627497118807531 [Eh]
	 SCS Opposite-Spin Energy  =      -1.8064989114740868 [Eh]
	 SCS Correlation Energy    =      -1.9692486233548399 [Eh]
	 SCS Total Energy          =    -799.2829357787566096 [Eh]
	-----------------------------------------------------------

  Dipole Moment: [D]
     X:    -1.5486      Y:    -3.7625      Z:    -1.1462     Total:     4.2271

*** Psi4 exiting successfully. Buy a developer a beer!
