                               Psi4 1.4a3.dev225

  ==> Input File <==

--------------------------------------------------------------------------
#psi4
#
memory 32 gb

molecule  {
0 1
  S       -0.8053760     1.6060500    -0.1399530
  O        2.1464270     1.2641370     0.3857660
  N        2.2049820    -0.9697390    -0.1110850
  C       -2.1414430    -0.6044570     0.0238790
  C        0.0782130     0.1386370     0.0349560
  C       -0.7695060    -0.9522330     0.1212440
  C       -2.2969850     0.7606620    -0.1265510
  C        1.5543500     0.2131940     0.1149440
  C       -3.2736380    -1.5890470     0.0915590
  C        3.6575090    -0.9906510    -0.1565210
  H       -0.4188890    -1.9677560     0.2899290
  H       -3.2284760     1.3059560    -0.2284190
  H       -3.2707310    -2.1282860     1.0440440
  H       -4.2368380    -1.0812090    -0.0045560
  H       -3.2021610    -2.3307440    -0.7101950
  H        1.7109759    -1.6740264    -0.6040325
  H        4.0494680    -0.5484410    -1.0790020
  H        3.9975300    -2.0243190    -0.0750760
  H        4.0378180    -0.4153140     0.6868970
units angstrom
no_reorient  #important for SAPT in psi4, default
symmetry c1  #important for SAPT in psi4, default
}

set PROPERTIES_ORIGIN ["COM"]
properties('MP2/aug-cc-pvtz', properties = ['dipole'])
--------------------------------------------------------------------------

    Molecular point group: c1
  Charge       = 0
  Multiplicity = 1
  Basis Set: AUG-CC-PVTZ
    Blend: AUG-CC-PVTZ
  Basis Set: (AUG-CC-PVTZ AUX)
    Blend: AUG-CC-PVTZ-JKFIT

    Orbital Energies [Eh]
    ---------------------

    Doubly Occupied:

       1A    -91.990457     2A    -20.521926     3A    -15.587498
       4A    -11.360932     5A    -11.275022     6A    -11.269213
       7A    -11.260684     8A    -11.257354     9A    -11.254035
      10A    -11.238320    11A     -8.990206    12A     -6.671073
      13A     -6.670523    14A     -6.669811    15A     -1.376562
      16A     -1.234181    17A     -1.183665    18A     -1.046714
      19A     -1.007371    20A     -0.954380    21A     -0.923077
      22A     -0.830593    23A     -0.771839    24A     -0.750158
      25A     -0.708861    26A     -0.644549    27A     -0.629166
      28A     -0.620811    29A     -0.594103    30A     -0.590919
      31A     -0.568064    32A     -0.552602    33A     -0.549398
      34A     -0.534654    35A     -0.523685    36A     -0.500826
      37A     -0.478350    38A     -0.434828    39A     -0.399183
      40A     -0.348316    41A     -0.327977

  @DF-RHF Final Energy:  -797.31995158269262

   => Energetics <=

    Nuclear Repulsion Energy =            588.0415318439066823
    One-Electron Energy =               -2260.5191920492306963
    Two-Electron Energy =                 875.1577086226312758
    Total Energy =                       -797.3199515826926245
  Basis Set: (AUG-CC-PVTZ AUX)
    Blend: AUG-CC-PVTZ-RI
    Molecular point group: c1

    Geometry (in Angstrom), charge = 0, multiplicity = 1:

       Center              X                  Y                   Z               Mass
    ------------   -----------------  -----------------  -----------------  -----------------
         S           -0.809215052859     1.536692053506    -0.144445766814    31.972071174400
         O            2.142587947141     1.194779053506     0.381273233186    15.994914619570
         N            2.201142947141    -1.039096946494    -0.115577766814    14.003074004430
         C           -2.145282052859    -0.673814946494     0.019386233186    12.000000000000
         C            0.074373947141     0.069279053506     0.030463233186    12.000000000000
         C           -0.773345052859    -1.021590946494     0.116751233186    12.000000000000
         C           -2.300824052859     0.691304053506    -0.131043766814    12.000000000000
         C            1.550510947141     0.143836053506     0.110451233186    12.000000000000
         C           -3.277477052859    -1.658404946494     0.087066233186    12.000000000000
         C            3.653669947141    -1.060008946494    -0.161013766814    12.000000000000
         H           -0.422728052859    -2.037113946494     0.285436233186     1.007825032230
         H           -3.232315052859     1.236598053506    -0.232911766814     1.007825032230
         H           -3.274570052859    -2.197643946494     1.039551233186     1.007825032230
         H           -4.240677052859    -1.150566946494    -0.009048766814     1.007825032230
         H           -3.206000052859    -2.400101946494    -0.714687766814     1.007825032230
         H            1.707136847141    -1.743384346494    -0.608525266814     1.007825032230
         H            4.045628947141    -0.617798946494    -1.083494766814     1.007825032230
         H            3.993690947141    -2.093676946494    -0.079568766814     1.007825032230
         H            4.033978947141    -0.484671946494     0.682404233186     1.007825032230

  Basis Set: AUG-CC-PVTZ
    Blend: AUG-CC-PVTZ
  Basis Set: (AUG-CC-PVTZ AUX)
    Blend: AUG-CC-PVTZ-JKFIT
	 Reference Energy          =    -797.3199515826926245 [Eh]
	 Singles Energy            =      -0.0000000000000000 [Eh]
	 Same-Spin Energy          =      -0.4868562483249151 [Eh]
	 Opposite-Spin Energy      =      -1.5034364030771237 [Eh]
	 Correlation Energy        =      -1.9902926514020387 [Eh]
	 Total Energy              =    -799.3102442340946254 [Eh]

	 ================> DF-SCS-MP2 Energies <==================
	-----------------------------------------------------------
	 SCS Same-Spin Scale       =       0.3333333333333333 [-]
	 SCS Opposite-Spin Scale   =       1.2000000000000000 [-]
	 SCS Same-Spin Energy      =      -0.1622854161083050 [Eh]
	 SCS Opposite-Spin Energy  =      -1.8041236836925483 [Eh]
	 SCS Correlation Energy    =      -1.9664090998008532 [Eh]
	 SCS Total Energy          =    -799.2863606824935232 [Eh]
	-----------------------------------------------------------

  Dipole Moment: [D]
     X:    -1.4907      Y:    -3.7362      Z:    -1.1375     Total:     4.1803

*** Psi4 exiting successfully. Buy a developer a beer!
