                               Psi4 1.4a3.dev225

  ==> Input File <==

--------------------------------------------------------------------------
#psi4
#
memory 32 gb

molecule  {
0 1
  S       -0.8053760     1.6060500    -0.1399530
  O        2.1464270     1.2641370     0.3857660
  N        2.2043422    -0.9839876    -0.1320613
  C       -2.1414430    -0.6044570     0.0238790
  C        0.0782130     0.1386370     0.0349560
  C       -0.7695060    -0.9522330     0.1212440
  C       -2.2969850     0.7606620    -0.1265510
  C        1.5543500     0.2131940     0.1149440
  C       -3.2736380    -1.5890470     0.0915590
  C        3.6575090    -0.9906510    -0.1565210
  H       -0.4188890    -1.9677560     0.2899290
  H       -3.2284760     1.3059560    -0.2284190
  H       -3.2707310    -2.1282860     1.0440440
  H       -4.2368380    -1.0812090    -0.0045560
  H       -3.2021610    -2.3307440    -0.7101950
  H        1.7010110    -1.6882330    -0.6139760
  H        4.0494680    -0.5484410    -1.0790020
  H        3.9975300    -2.0243190    -0.0750760
  H        4.0378180    -0.4153140     0.6868970
units angstrom
no_reorient  #important for SAPT in psi4, default
symmetry c1  #important for SAPT in psi4, default
}

set PROPERTIES_ORIGIN ["COM"]
properties('MP2/aug-cc-pvtz', properties = ['dipole'])
--------------------------------------------------------------------------

    Molecular point group: c1
  Charge       = 0
  Multiplicity = 1
  Basis Set: AUG-CC-PVTZ
    Blend: AUG-CC-PVTZ
  Basis Set: (AUG-CC-PVTZ AUX)
    Blend: AUG-CC-PVTZ-JKFIT

    Orbital Energies [Eh]
    ---------------------

    Doubly Occupied:

       1A    -91.990635     2A    -20.524445     3A    -15.587095
       4A    -11.363063     5A    -11.275185     6A    -11.269426
       7A    -11.259986     8A    -11.257552     9A    -11.254208
      10A    -11.238440    11A     -8.990393    12A     -6.671262
      13A     -6.670711    14A     -6.669999    15A     -1.376306
      16A     -1.230837    17A     -1.183748    18A     -1.046785
      19A     -1.007126    20A     -0.952731    21A     -0.922667
      22A     -0.831382    23A     -0.769114    24A     -0.750322
      25A     -0.708825    26A     -0.642969    27A     -0.628802
      28A     -0.620486    29A     -0.594536    30A     -0.591078
      31A     -0.568842    32A     -0.553211    33A     -0.549309
      34A     -0.534795    35A     -0.522985    36A     -0.500643
      37A     -0.478615    38A     -0.435496    39A     -0.398327
      40A     -0.348466    41A     -0.328115

  @DF-RHF Final Energy:  -797.31885669847088

   => Energetics <=

    Nuclear Repulsion Energy =            587.6530888221851683
    One-Electron Energy =               -2259.7460507924115518
    Two-Electron Energy =                 874.7741052717556158
    Total Energy =                       -797.3188566984708814
  Basis Set: (AUG-CC-PVTZ AUX)
    Blend: AUG-CC-PVTZ-RI
    Molecular point group: c1

    Geometry (in Angstrom), charge = 0, multiplicity = 1:

       Center              X                  Y                   Z               Mass
    ------------   -----------------  -----------------  -----------------  -----------------
         S           -0.809092491050     1.538071318846    -0.142486575385    31.972071174400
         O            2.142710508950     1.196158318846     0.383232424615    15.994914619570
         N            2.200625708950    -1.051966281154    -0.134594875385    14.003074004430
         C           -2.145159491050    -0.672435681154     0.021345424615    12.000000000000
         C            0.074496508950     0.070658318846     0.032422424615    12.000000000000
         C           -0.773222491050    -1.020211681154     0.118710424615    12.000000000000
         C           -2.300701491050     0.692683318846    -0.129084575385    12.000000000000
         C            1.550633508950     0.145215318846     0.112410424615    12.000000000000
         C           -3.277354491050    -1.657025681154     0.089025424615    12.000000000000
         C            3.653792508950    -1.058629681154    -0.159054575385    12.000000000000
         H           -0.422605491050    -2.035734681154     0.287395424615     1.007825032230
         H           -3.232192491050     1.237977318846    -0.230952575385     1.007825032230
         H           -3.274447491050    -2.196264681154     1.041510424615     1.007825032230
         H           -4.240554491050    -1.149187681154    -0.007089575385     1.007825032230
         H           -3.205877491050    -2.398722681154    -0.712728575385     1.007825032230
         H            1.697294508950    -1.756211681154    -0.616509575385     1.007825032230
         H            4.045751508950    -0.616419681154    -1.081535575385     1.007825032230
         H            3.993813508950    -2.092297681154    -0.077609575385     1.007825032230
         H            4.034101508950    -0.483292681154     0.684363424615     1.007825032230

  Basis Set: AUG-CC-PVTZ
    Blend: AUG-CC-PVTZ
  Basis Set: (AUG-CC-PVTZ AUX)
    Blend: AUG-CC-PVTZ-JKFIT
	 Reference Energy          =    -797.3188566984708814 [Eh]
	 Singles Energy            =      -0.0000000000000000 [Eh]
	 Same-Spin Energy          =      -0.4869639242430734 [Eh]
	 Opposite-Spin Energy      =      -1.5037880833674695 [Eh]
	 Correlation Energy        =      -1.9907520076105429 [Eh]
	 Total Energy              =    -799.3096087060814625 [Eh]

	 ================> DF-SCS-MP2 Energies <==================
	-----------------------------------------------------------
	 SCS Same-Spin Scale       =       0.3333333333333333 [-]
	 SCS Opposite-Spin Scale   =       1.2000000000000000 [-]
	 SCS Same-Spin Energy      =      -0.1623213080810245 [Eh]
	 SCS Opposite-Spin Energy  =      -1.8045457000409633 [Eh]
	 SCS Correlation Energy    =      -1.9668670081219877 [Eh]
	 SCS Total Energy          =    -799.2857237065928757 [Eh]
	-----------------------------------------------------------

  Dipole Moment: [D]
     X:    -1.5263      Y:    -3.6886      Z:    -1.1061     Total:     4.1423

*** Psi4 exiting successfully. Buy a developer a beer!
