                               Psi4 1.4a3.dev225

  ==> Input File <==

--------------------------------------------------------------------------
#psi4
#
memory 32 gb

molecule  {
0 1
  S       -0.8053760     1.6060500    -0.1399530
  O        2.1464270     1.2641370     0.3857660
  N        2.2049820    -0.9697390    -0.1110850
  C       -2.1414430    -0.6044570     0.0238790
  C        0.0782130     0.1386370     0.0349560
  C       -0.7695060    -0.9522330     0.1212440
  C       -2.2969850     0.7606620    -0.1265510
  C        1.6540768     0.2182310     0.1203479
  C       -3.2736380    -1.5890470     0.0915590
  C        3.6575090    -0.9906510    -0.1565210
  H       -0.4188890    -1.9677560     0.2899290
  H       -3.2284760     1.3059560    -0.2284190
  H       -3.2707310    -2.1282860     1.0440440
  H       -4.2368380    -1.0812090    -0.0045560
  H       -3.2021610    -2.3307440    -0.7101950
  H        1.7010110    -1.6882330    -0.6139760
  H        4.0494680    -0.5484410    -1.0790020
  H        3.9975300    -2.0243190    -0.0750760
  H        4.0378180    -0.4153140     0.6868970
units angstrom
no_reorient  #important for SAPT in psi4, default
symmetry c1  #important for SAPT in psi4, default
}

set PROPERTIES_ORIGIN ["COM"]
properties('MP2/aug-cc-pvtz', properties = ['dipole'])
--------------------------------------------------------------------------

    Molecular point group: c1
  Charge       = 0
  Multiplicity = 1
  Basis Set: AUG-CC-PVTZ
    Blend: AUG-CC-PVTZ
  Basis Set: (AUG-CC-PVTZ AUX)
    Blend: AUG-CC-PVTZ-JKFIT

    Orbital Energies [Eh]
    ---------------------

    Doubly Occupied:

       1A    -91.983089     2A    -20.530963     3A    -15.595658
       4A    -11.362492     5A    -11.271552     6A    -11.265506
       7A    -11.259858     8A    -11.248004     9A    -11.246084
      10A    -11.233704    11A     -8.982954    12A     -6.663862
      13A     -6.663323    14A     -6.662619    15A     -1.412726
      16A     -1.255623    17A     -1.174785    18A     -1.036242
      19A     -0.997414    20A     -0.955993    21A     -0.915474
      22A     -0.820606    23A     -0.778303    24A     -0.741657
      25A     -0.703235    26A     -0.656655    27A     -0.643221
      28A     -0.624705    29A     -0.589717    30A     -0.586228
      31A     -0.565851    32A     -0.560764    33A     -0.555986
      34A     -0.530171    35A     -0.518108    36A     -0.503375
      37A     -0.471912    38A     -0.430579    39A     -0.412206
      40A     -0.341945    41A     -0.320454

  @DF-RHF Final Energy:  -797.31344477669904

   => Energetics <=

    Nuclear Repulsion Energy =            587.6559747718387143
    One-Electron Energy =               -2259.7916380485048649
    Two-Electron Energy =                 874.8222184999669935
    Total Energy =                       -797.3134447766990434
  Basis Set: (AUG-CC-PVTZ AUX)
    Blend: AUG-CC-PVTZ-RI
    Molecular point group: c1

    Geometry (in Angstrom), charge = 0, multiplicity = 1:

       Center              X                  Y                   Z               Mass
    ------------   -----------------  -----------------  -----------------  -----------------
         S           -0.816869045451     1.536394542615    -0.144799387300    31.972071174400
         O            2.134933954549     1.194481542615     0.380919612700    15.994914619570
         N            2.193488954549    -1.039394457385    -0.115931387300    14.003074004430
         C           -2.152936045451    -0.674112457385     0.019032612700    12.000000000000
         C            0.066719954549     0.068981542615     0.030109612700    12.000000000000
         C           -0.780999045451    -1.021888457385     0.116397612700    12.000000000000
         C           -2.308478045451     0.691006542615    -0.131397387300    12.000000000000
         C            1.642583754549     0.148575542615     0.115501512700    12.000000000000
         C           -3.285131045451    -1.658702457385     0.086712612700    12.000000000000
         C            3.646015954549    -1.060306457385    -0.161367387300    12.000000000000
         H           -0.430382045451    -2.037411457385     0.285082612700     1.007825032230
         H           -3.239969045451     1.236300542615    -0.233265387300     1.007825032230
         H           -3.282224045451    -2.197941457385     1.039197612700     1.007825032230
         H           -4.248331045451    -1.150864457385    -0.009402387300     1.007825032230
         H           -3.213654045451    -2.400399457385    -0.715041387300     1.007825032230
         H            1.689517954549    -1.757888457385    -0.618822387300     1.007825032230
         H            4.037974954549    -0.618096457385    -1.083848387300     1.007825032230
         H            3.986036954549    -2.093974457385    -0.079922387300     1.007825032230
         H            4.026324954549    -0.484969457385     0.682050612700     1.007825032230

  Basis Set: AUG-CC-PVTZ
    Blend: AUG-CC-PVTZ
  Basis Set: (AUG-CC-PVTZ AUX)
    Blend: AUG-CC-PVTZ-JKFIT
	 Reference Energy          =    -797.3134447766990434 [Eh]
	 Singles Energy            =      -0.0000000000000000 [Eh]
	 Same-Spin Energy          =      -0.4855441040015844 [Eh]
	 Opposite-Spin Energy      =      -1.5010121936260385 [Eh]
	 Correlation Energy        =      -1.9865562976276230 [Eh]
	 Total Energy              =    -799.3000010743267012 [Eh]

	 ================> DF-SCS-MP2 Energies <==================
	-----------------------------------------------------------
	 SCS Same-Spin Scale       =       0.3333333333333333 [-]
	 SCS Opposite-Spin Scale   =       1.2000000000000000 [-]
	 SCS Same-Spin Energy      =      -0.1618480346671948 [Eh]
	 SCS Opposite-Spin Energy  =      -1.8012146323512461 [Eh]
	 SCS Correlation Energy    =      -1.9630626670184410 [Eh]
	 SCS Total Energy          =    -799.2765074437174917 [Eh]
	-----------------------------------------------------------

  Dipole Moment: [D]
     X:    -0.6233      Y:    -3.7706      Z:    -1.1193     Total:     3.9823

*** Psi4 exiting successfully. Buy a developer a beer!
