                               Psi4 1.4a3.dev225

  ==> Input File <==

--------------------------------------------------------------------------
#psi4
#
memory 32 gb

molecule  {
0 1
  S       -0.8053760     1.6060500    -0.1399530
  O        2.1464270     1.2641370     0.3857660
  N        2.2049820    -0.9697390    -0.1110850
  C       -2.1130990    -0.5105686     0.0102054
  C        0.0782130     0.1386370     0.0349560
  C       -0.7695060    -0.9522330     0.1212440
  C       -2.2969850     0.7606620    -0.1265510
  C        1.5543500     0.2131940     0.1149440
  C       -3.2736380    -1.5890470     0.0915590
  C        3.6575090    -0.9906510    -0.1565210
  H       -0.4188890    -1.9677560     0.2899290
  H       -3.2284760     1.3059560    -0.2284190
  H       -3.2707310    -2.1282860     1.0440440
  H       -4.2368380    -1.0812090    -0.0045560
  H       -3.2021610    -2.3307440    -0.7101950
  H        1.7010110    -1.6882330    -0.6139760
  H        4.0494680    -0.5484410    -1.0790020
  H        3.9975300    -2.0243190    -0.0750760
  H        4.0378180    -0.4153140     0.6868970
units angstrom
no_reorient  #important for SAPT in psi4, default
symmetry c1  #important for SAPT in psi4, default
}

set PROPERTIES_ORIGIN ["COM"]
properties('MP2/aug-cc-pvtz', properties = ['dipole'])
--------------------------------------------------------------------------

    Molecular point group: c1
  Charge       = 0
  Multiplicity = 1
  Basis Set: AUG-CC-PVTZ
    Blend: AUG-CC-PVTZ
  Basis Set: (AUG-CC-PVTZ AUX)
    Blend: AUG-CC-PVTZ-JKFIT

    Orbital Energies [Eh]
    ---------------------

    Doubly Occupied:

       1A    -91.984984     2A    -20.523330     3A    -15.590721
       4A    -11.361584     5A    -11.277053     6A    -11.261513
       7A    -11.257244     8A    -11.256994     9A    -11.246532
      10A    -11.240041    11A     -8.985409    12A     -6.666291
      13A     -6.665778    14A     -6.664939    15A     -1.377519
      16A     -1.233059    17A     -1.194454    18A     -1.041319
      19A     -1.006998    20A     -0.953798    21A     -0.924505
      22A     -0.835149    23A     -0.770779    24A     -0.751367
      25A     -0.704603    26A     -0.645536    27A     -0.628649
      28A     -0.620731    29A     -0.598302    30A     -0.585888
      31A     -0.572524    32A     -0.552358    33A     -0.549750
      34A     -0.537379    35A     -0.512077    36A     -0.504869
      37A     -0.471454    38A     -0.433126    39A     -0.399706
      40A     -0.346847    41A     -0.342539

  @DF-RHF Final Energy:  -797.31058015172107

   => Energetics <=

    Nuclear Repulsion Energy =            589.2188910552340531
    One-Electron Energy =               -2262.9035454702666357
    Two-Electron Energy =                 876.3740742633115133
    Total Energy =                       -797.3105801517210693
  Basis Set: (AUG-CC-PVTZ AUX)
    Blend: AUG-CC-PVTZ-RI
    Molecular point group: c1

    Geometry (in Angstrom), charge = 0, multiplicity = 1:

       Center              X                  Y                   Z               Mass
    ------------   -----------------  -----------------  -----------------  -----------------
         S           -0.811344078218     1.529517520788    -0.143322805233    31.972071174400
         O            2.140458921782     1.187604520788     0.382396194767    15.994914619570
         N            2.199013921782    -1.046271479212    -0.114454805233    14.003074004430
         C           -2.119067078218    -0.587101079212     0.006835594767    12.000000000000
         C            0.072244921782     0.062104520788     0.031586194767    12.000000000000
         C           -0.775474078218    -1.028765479212     0.117874194767    12.000000000000
         C           -2.302953078218     0.684129520788    -0.129920805233    12.000000000000
         C            1.548381921782     0.136661520788     0.111574194767    12.000000000000
         C           -3.279606078218    -1.665579479212     0.088189194767    12.000000000000
         C            3.651540921782    -1.067183479212    -0.159890805233    12.000000000000
         H           -0.424857078218    -2.044288479212     0.286559194767     1.007825032230
         H           -3.234444078218     1.229423520788    -0.231788805233     1.007825032230
         H           -3.276699078218    -2.204818479212     1.040674194767     1.007825032230
         H           -4.242806078218    -1.157741479212    -0.007925805233     1.007825032230
         H           -3.208129078218    -2.407276479212    -0.713564805233     1.007825032230
         H            1.695042921782    -1.764765479212    -0.617345805233     1.007825032230
         H            4.043499921782    -0.624973479212    -1.082371805233     1.007825032230
         H            3.991561921782    -2.100851479212    -0.078445805233     1.007825032230
         H            4.031849921782    -0.491846479212     0.683527194767     1.007825032230

  Basis Set: AUG-CC-PVTZ
    Blend: AUG-CC-PVTZ
  Basis Set: (AUG-CC-PVTZ AUX)
    Blend: AUG-CC-PVTZ-JKFIT
	 Reference Energy          =    -797.3105801517210693 [Eh]
	 Singles Energy            =      -0.0000000000000000 [Eh]
	 Same-Spin Energy          =      -0.4852256373218255 [Eh]
	 Opposite-Spin Energy      =      -1.5016558470412638 [Eh]
	 Correlation Energy        =      -1.9868814843630893 [Eh]
	 Total Energy              =    -799.2974616360841082 [Eh]

	 ================> DF-SCS-MP2 Energies <==================
	-----------------------------------------------------------
	 SCS Same-Spin Scale       =       0.3333333333333333 [-]
	 SCS Opposite-Spin Scale   =       1.2000000000000000 [-]
	 SCS Same-Spin Energy      =      -0.1617418791072752 [Eh]
	 SCS Opposite-Spin Energy  =      -1.8019870164495164 [Eh]
	 SCS Correlation Energy    =      -1.9637288955567915 [Eh]
	 SCS Total Energy          =    -799.2743090472778249 [Eh]
	-----------------------------------------------------------

  Dipole Moment: [D]
     X:    -1.3857      Y:    -3.7354      Z:    -1.1413     Total:     4.1444

*** Psi4 exiting successfully. Buy a developer a beer!
