                               Psi4 1.4a3.dev225

  ==> Input File <==

--------------------------------------------------------------------------
#psi4
#
memory 32 gb

molecule  {
0 1
  S       -0.8053760     1.6060500    -0.1399530
  O        2.1839001     1.2430037     0.3824126
  N        2.2049820    -0.9697390    -0.1110850
  C       -2.1414430    -0.6044570     0.0238790
  C        0.0782130     0.1386370     0.0349560
  C       -0.7695060    -0.9522330     0.1212440
  C       -2.2969850     0.7606620    -0.1265510
  C        1.5543500     0.2131940     0.1149440
  C       -3.2736380    -1.5890470     0.0915590
  C        3.6575090    -0.9906510    -0.1565210
  H       -0.4188890    -1.9677560     0.2899290
  H       -3.2284760     1.3059560    -0.2284190
  H       -3.2707310    -2.1282860     1.0440440
  H       -4.2368380    -1.0812090    -0.0045560
  H       -3.2021610    -2.3307440    -0.7101950
  H        1.7010110    -1.6882330    -0.6139760
  H        4.0494680    -0.5484410    -1.0790020
  H        3.9975300    -2.0243190    -0.0750760
  H        4.0378180    -0.4153140     0.6868970
units angstrom
no_reorient  #important for SAPT in psi4, default
symmetry c1  #important for SAPT in psi4, default
}

set PROPERTIES_ORIGIN ["COM"]
properties('MP2/aug-cc-pvtz', properties = ['dipole'])
--------------------------------------------------------------------------

    Molecular point group: c1
  Charge       = 0
  Multiplicity = 1
  Basis Set: AUG-CC-PVTZ
    Blend: AUG-CC-PVTZ
  Basis Set: (AUG-CC-PVTZ AUX)
    Blend: AUG-CC-PVTZ-JKFIT

    Orbital Energies [Eh]
    ---------------------

    Doubly Occupied:

       1A    -91.991678     2A    -20.520922     3A    -15.587085
       4A    -11.360402     5A    -11.276685     6A    -11.270410
       7A    -11.258950     8A    -11.258718     9A    -11.255110
      10A    -11.239057    11A     -8.991437    12A     -6.672308
      13A     -6.671757    14A     -6.671046    15A     -1.376371
      16A     -1.228843    17A     -1.184758    18A     -1.047828
      19A     -1.008138    20A     -0.953820    21A     -0.923197
      22A     -0.828853    23A     -0.767580    24A     -0.751028
      25A     -0.709518    26A     -0.642814    27A     -0.628362
      28A     -0.620250    29A     -0.594866    30A     -0.591592
      31A     -0.568151    32A     -0.549799    33A     -0.548582
      34A     -0.535343    35A     -0.524354    36A     -0.501319
      37A     -0.479395    38A     -0.434673    39A     -0.396946
      40A     -0.349299    41A     -0.329229

  @DF-RHF Final Energy:  -797.31907919813932

   => Energetics <=

    Nuclear Repulsion Energy =            587.7330898706745756
    One-Electron Energy =               -2259.9033910799544174
    Two-Electron Energy =                 874.8512220111405213
    Total Energy =                       -797.3190791981393204
  Basis Set: (AUG-CC-PVTZ AUX)
    Blend: AUG-CC-PVTZ-RI
    Molecular point group: c1

    Geometry (in Angstrom), charge = 0, multiplicity = 1:

       Center              X                  Y                   Z               Mass
    ------------   -----------------  -----------------  -----------------  -----------------
         S           -0.813016228785     1.538964641186    -0.144035173059    31.972071174400
         O            2.176259871215     1.175918341186     0.378330426941    15.994914619570
         N            2.197341771215    -1.036824358814    -0.115167173059    14.003074004430
         C           -2.149083228785    -0.671542358814     0.019796826941    12.000000000000
         C            0.070572771215     0.071551641186     0.030873826941    12.000000000000
         C           -0.777146228785    -1.019318358814     0.117161826941    12.000000000000
         C           -2.304625228785     0.693576641186    -0.130633173059    12.000000000000
         C            1.546709771215     0.146108641186     0.110861826941    12.000000000000
         C           -3.281278228785    -1.656132358814     0.087476826941    12.000000000000
         C            3.649868771215    -1.057736358814    -0.160603173059    12.000000000000
         H           -0.426529228785    -2.034841358814     0.285846826941     1.007825032230
         H           -3.236116228785     1.238870641186    -0.232501173059     1.007825032230
         H           -3.278371228785    -2.195371358814     1.039961826941     1.007825032230
         H           -4.244478228785    -1.148294358814    -0.008638173059     1.007825032230
         H           -3.209801228785    -2.397829358814    -0.714277173059     1.007825032230
         H            1.693370771215    -1.755318358814    -0.618058173059     1.007825032230
         H            4.041827771215    -0.615526358814    -1.083084173059     1.007825032230
         H            3.989889771215    -2.091404358814    -0.079158173059     1.007825032230
         H            4.030177771215    -0.482399358814     0.682814826941     1.007825032230

  Basis Set: AUG-CC-PVTZ
    Blend: AUG-CC-PVTZ
  Basis Set: (AUG-CC-PVTZ AUX)
    Blend: AUG-CC-PVTZ-JKFIT
	 Reference Energy          =    -797.3190791981393204 [Eh]
	 Singles Energy            =      -0.0000000000000000 [Eh]
	 Same-Spin Energy          =      -0.4870935305216211 [Eh]
	 Opposite-Spin Energy      =      -1.5038678528544267 [Eh]
	 Correlation Energy        =      -1.9909613833760478 [Eh]
	 Total Energy              =    -799.3100405815154090 [Eh]

	 ================> DF-SCS-MP2 Energies <==================
	-----------------------------------------------------------
	 SCS Same-Spin Scale       =       0.3333333333333333 [-]
	 SCS Opposite-Spin Scale   =       1.2000000000000000 [-]
	 SCS Same-Spin Energy      =      -0.1623645101738737 [Eh]
	 SCS Opposite-Spin Energy  =      -1.8046414234253119 [Eh]
	 SCS Correlation Energy    =      -1.9670059335991856 [Eh]
	 SCS Total Energy          =    -799.2860851317385595 [Eh]
	-----------------------------------------------------------

  Dipole Moment: [D]
     X:    -1.6499      Y:    -3.6988      Z:    -1.1385     Total:     4.2071

*** Psi4 exiting successfully. Buy a developer a beer!
