                               Psi4 1.4a3.dev225

  ==> Input File <==

--------------------------------------------------------------------------
#psi4
#
memory 32 gb

molecule  {
0 1
  S       -0.8053760     1.6060500    -0.1399530
  O        2.1464270     1.2641370     0.3857660
  N        2.2049820    -0.9697390    -0.1110850
  C       -2.1414430    -0.6044570     0.0238790
  C        0.0782130     0.1386370     0.0349560
  C       -0.7695060    -0.9522330     0.1212440
  C       -2.2969850     0.7606620    -0.1265510
  C        1.6042134     0.2157125     0.1176460
  C       -3.2736380    -1.5890470     0.0915590
  C        3.6575090    -0.9906510    -0.1565210
  H       -0.4188890    -1.9677560     0.2899290
  H       -3.2284760     1.3059560    -0.2284190
  H       -3.2707310    -2.1282860     1.0440440
  H       -4.2368380    -1.0812090    -0.0045560
  H       -3.2021610    -2.3307440    -0.7101950
  H        1.7010110    -1.6882330    -0.6139760
  H        4.0494680    -0.5484410    -1.0790020
  H        3.9975300    -2.0243190    -0.0750760
  H        4.0378180    -0.4153140     0.6868970
units angstrom
no_reorient  #important for SAPT in psi4, default
symmetry c1  #important for SAPT in psi4, default
}

set PROPERTIES_ORIGIN ["COM"]
properties('MP2/aug-cc-pvtz', properties = ['dipole'])
--------------------------------------------------------------------------

    Molecular point group: c1
  Charge       = 0
  Multiplicity = 1
  Basis Set: AUG-CC-PVTZ
    Blend: AUG-CC-PVTZ
  Basis Set: (AUG-CC-PVTZ AUX)
    Blend: AUG-CC-PVTZ-JKFIT

    Orbital Energies [Eh]
    ---------------------

    Doubly Occupied:

       1A    -91.986790     2A    -20.526258     3A    -15.592432
       4A    -11.361404     5A    -11.273953     6A    -11.264408
       7A    -11.263033     8A    -11.251967     9A    -11.250690
      10A    -11.236009    11A     -8.986594    12A     -6.667481
      13A     -6.666939    14A     -6.666230    15A     -1.394471
      16A     -1.243617    17A     -1.179186    18A     -1.041146
      19A     -1.002131    20A     -0.954889    21A     -0.919368
      22A     -0.822639    23A     -0.775332    24A     -0.745826
      25A     -0.705778    26A     -0.649439    27A     -0.636205
      28A     -0.622950    29A     -0.591781    30A     -0.588595
      31A     -0.566165    32A     -0.556372    33A     -0.551771
      34A     -0.532446    35A     -0.520910    36A     -0.503063
      37A     -0.475238    38A     -0.434175    39A     -0.405599
      40A     -0.345153    41A     -0.324291

  @DF-RHF Final Energy:  -797.31958987880148

   => Energetics <=

    Nuclear Repulsion Energy =            587.7816488621314193
    One-Electron Energy =               -2260.0370343838021654
    Two-Electron Energy =                 874.9357956428691523
    Total Energy =                       -797.3195898788014802
  Basis Set: (AUG-CC-PVTZ AUX)
    Blend: AUG-CC-PVTZ-RI
    Molecular point group: c1

    Geometry (in Angstrom), charge = 0, multiplicity = 1:

       Center              X                  Y                   Z               Mass
    ------------   -----------------  -----------------  -----------------  -----------------
         S           -0.813009661242     1.536589472346    -0.144590262568    31.972071174400
         O            2.138793338758     1.194676472346     0.381128737432    15.994914619570
         N            2.197348338758    -1.039199527654    -0.115722262568    14.003074004430
         C           -2.149076661242    -0.673917527654     0.019241737432    12.000000000000
         C            0.070579338758     0.069176472346     0.030318737432    12.000000000000
         C           -0.777139661242    -1.021693527654     0.116606737432    12.000000000000
         C           -2.304618661242     0.691201472346    -0.131188262568    12.000000000000
         C            1.596579738758     0.146251972346     0.113008737432    12.000000000000
         C           -3.281271661242    -1.658507527654     0.086921737432    12.000000000000
         C            3.649875338758    -1.060111527654    -0.161158262568    12.000000000000
         H           -0.426522661242    -2.037216527654     0.285291737432     1.007825032230
         H           -3.236109661242     1.236495472346    -0.233056262568     1.007825032230
         H           -3.278364661242    -2.197746527654     1.039406737432     1.007825032230
         H           -4.244471661242    -1.150669527654    -0.009193262568     1.007825032230
         H           -3.209794661242    -2.400204527654    -0.714832262568     1.007825032230
         H            1.693377338758    -1.757693527654    -0.618613262568     1.007825032230
         H            4.041834338758    -0.617901527654    -1.083639262568     1.007825032230
         H            3.989896338758    -2.093779527654    -0.079713262568     1.007825032230
         H            4.030184338758    -0.484774527654     0.682259737432     1.007825032230

  Basis Set: AUG-CC-PVTZ
    Blend: AUG-CC-PVTZ
  Basis Set: (AUG-CC-PVTZ AUX)
    Blend: AUG-CC-PVTZ-JKFIT
	 Reference Energy          =    -797.3195898788014802 [Eh]
	 Singles Energy            =      -0.0000000000000000 [Eh]
	 Same-Spin Energy          =      -0.4861196382951338 [Eh]
	 Opposite-Spin Energy      =      -1.5021346941803375 [Eh]
	 Correlation Energy        =      -1.9882543324754713 [Eh]
	 Total Energy              =    -799.3078442112769153 [Eh]

	 ================> DF-SCS-MP2 Energies <==================
	-----------------------------------------------------------
	 SCS Same-Spin Scale       =       0.3333333333333333 [-]
	 SCS Opposite-Spin Scale   =       1.2000000000000000 [-]
	 SCS Same-Spin Energy      =      -0.1620398794317112 [Eh]
	 SCS Opposite-Spin Energy  =      -1.8025616330164049 [Eh]
	 SCS Correlation Energy    =      -1.9646015124481162 [Eh]
	 SCS Total Energy          =    -799.2841913912495784 [Eh]
	-----------------------------------------------------------

  Dipole Moment: [D]
     X:    -1.0658      Y:    -3.7626      Z:    -1.1333     Total:     4.0715

*** Psi4 exiting successfully. Buy a developer a beer!
