                               Psi4 1.4a3.dev225

  ==> Input File <==

--------------------------------------------------------------------------
#psi4
#
memory 32 gb

molecule  {
0 1
  S       -0.8053760     1.6060500    -0.1399530
  O        2.1464270     1.2641370     0.3857660
  N        2.2049820    -0.9697390    -0.1110850
  C       -2.1530365    -0.6523515     0.0287575
  C        0.0782130     0.1386370     0.0349560
  C       -0.7695060    -0.9522330     0.1212440
  C       -2.2969850     0.7606620    -0.1265510
  C        1.5543500     0.2131940     0.1149440
  C       -3.2736380    -1.5890470     0.0915590
  C        3.6575090    -0.9906510    -0.1565210
  H       -0.4188890    -1.9677560     0.2899290
  H       -3.2284760     1.3059560    -0.2284190
  H       -3.2707310    -2.1282860     1.0440440
  H       -4.2368380    -1.0812090    -0.0045560
  H       -3.2021610    -2.3307440    -0.7101950
  H        1.7010110    -1.6882330    -0.6139760
  H        4.0494680    -0.5484410    -1.0790020
  H        3.9975300    -2.0243190    -0.0750760
  H        4.0378180    -0.4153140     0.6868970
units angstrom
no_reorient  #important for SAPT in psi4, default
symmetry c1  #important for SAPT in psi4, default
}

set PROPERTIES_ORIGIN ["COM"]
properties('MP2/aug-cc-pvtz', properties = ['dipole'])
--------------------------------------------------------------------------

    Molecular point group: c1
  Charge       = 0
  Multiplicity = 1
  Basis Set: AUG-CC-PVTZ
    Blend: AUG-CC-PVTZ
  Basis Set: (AUG-CC-PVTZ AUX)
    Blend: AUG-CC-PVTZ-JKFIT

    Orbital Energies [Eh]
    ---------------------

    Doubly Occupied:

       1A    -91.993214     2A    -20.521087     3A    -15.588674
       4A    -11.360465     5A    -11.274591     6A    -11.273893
       7A    -11.260197     8A    -11.258282     9A    -11.257173
      10A    -11.237242    11A     -8.992627    12A     -6.673478
      13A     -6.672920    14A     -6.672267    15A     -1.375705
      16A     -1.231095    17A     -1.179289    18A     -1.052627
      19A     -1.006200    20A     -0.954921    21A     -0.921048
      22A     -0.825558    23A     -0.767762    24A     -0.749462
      25A     -0.710092    26A     -0.643349    27A     -0.629633
      28A     -0.620565    29A     -0.595150    30A     -0.593646
      31A     -0.568535    32A     -0.551682    33A     -0.550004
      34A     -0.535836    35A     -0.521089    36A     -0.498336
      37A     -0.479239    38A     -0.434756    39A     -0.398381
      40A     -0.349158    41A     -0.320620

  @DF-RHF Final Energy:  -797.31367681131587

   => Energetics <=

    Nuclear Repulsion Energy =            587.3712452273164217
    One-Electron Energy =               -2259.1701389612480853
    Two-Electron Energy =                 874.4852169226157912
    Total Energy =                       -797.3136768113158723
  Basis Set: (AUG-CC-PVTZ AUX)
    Blend: AUG-CC-PVTZ-RI
    Molecular point group: c1

    Geometry (in Angstrom), charge = 0, multiplicity = 1:

       Center              X                  Y                   Z               Mass
    ------------   -----------------  -----------------  -----------------  -----------------
         S           -0.808252950118     1.540491395122    -0.144758721793    31.972071174400
         O            2.143550049882     1.198578395122     0.380960278207    15.994914619570
         N            2.202105049882    -1.035297604878    -0.115890721793    14.003074004430
         C           -2.155913450118    -0.717910104878     0.023951778207    12.000000000000
         C            0.075336049882     0.073078395122     0.030150278207    12.000000000000
         C           -0.772382950118    -1.017791604878     0.116438278207    12.000000000000
         C           -2.299861950118     0.695103395122    -0.131356721793    12.000000000000
         C            1.551473049882     0.147635395122     0.110138278207    12.000000000000
         C           -3.276514950118    -1.654605604878     0.086753278207    12.000000000000
         C            3.654632049882    -1.056209604878    -0.161326721793    12.000000000000
         H           -0.421765950118    -2.033314604878     0.285123278207     1.007825032230
         H           -3.231352950118     1.240397395122    -0.233224721793     1.007825032230
         H           -3.273607950118    -2.193844604878     1.039238278207     1.007825032230
         H           -4.239714950118    -1.146767604878    -0.009361721793     1.007825032230
         H           -3.205037950118    -2.396302604878    -0.715000721793     1.007825032230
         H            1.698134049882    -1.753791604878    -0.618781721793     1.007825032230
         H            4.046591049882    -0.613999604878    -1.083807721793     1.007825032230
         H            3.994653049882    -2.089877604878    -0.079881721793     1.007825032230
         H            4.034941049882    -0.480872604878     0.682091278207     1.007825032230

  Basis Set: AUG-CC-PVTZ
    Blend: AUG-CC-PVTZ
  Basis Set: (AUG-CC-PVTZ AUX)
    Blend: AUG-CC-PVTZ-JKFIT
	 Reference Energy          =    -797.3136768113158723 [Eh]
	 Singles Energy            =      -0.0000000000000000 [Eh]
	 Same-Spin Energy          =      -0.4882510955276979 [Eh]
	 Opposite-Spin Energy      =      -1.5054183486851724 [Eh]
	 Correlation Energy        =      -1.9936694442128704 [Eh]
	 Total Energy              =    -799.3073462555287279 [Eh]

	 ================> DF-SCS-MP2 Energies <==================
	-----------------------------------------------------------
	 SCS Same-Spin Scale       =       0.3333333333333333 [-]
	 SCS Opposite-Spin Scale   =       1.2000000000000000 [-]
	 SCS Same-Spin Energy      =      -0.1627503651758993 [Eh]
	 SCS Opposite-Spin Energy  =      -1.8065020184222069 [Eh]
	 SCS Correlation Energy    =      -1.9692523835981062 [Eh]
	 SCS Total Energy          =    -799.2829291949140043 [Eh]
	-----------------------------------------------------------

  Dipole Moment: [D]
     X:    -1.5485      Y:    -3.7624      Z:    -1.1451     Total:     4.2267

*** Psi4 exiting successfully. Buy a developer a beer!
