                               Psi4 1.4a3.dev225

  ==> Input File <==

--------------------------------------------------------------------------
#psi4
#
memory 32 gb

molecule  {
0 1
  S       -0.8053760     1.6060500    -0.1399530
  O        2.1464270     1.2641370     0.3857660
  N        2.2049820    -0.9697390    -0.1110850
  C       -2.1414430    -0.6044570     0.0238790
  C        0.0782130     0.1386370     0.0349560
  C       -0.7398403    -0.8073978     0.1073298
  C       -2.2969850     0.7606620    -0.1265510
  C        1.5543500     0.2131940     0.1149440
  C       -3.2736380    -1.5890470     0.0915590
  C        3.6575090    -0.9906510    -0.1565210
  H       -0.4188890    -1.9677560     0.2899290
  H       -3.2284760     1.3059560    -0.2284190
  H       -3.2707310    -2.1282860     1.0440440
  H       -4.2368380    -1.0812090    -0.0045560
  H       -3.2021610    -2.3307440    -0.7101950
  H        1.7010110    -1.6882330    -0.6139760
  H        4.0494680    -0.5484410    -1.0790020
  H        3.9975300    -2.0243190    -0.0750760
  H        4.0378180    -0.4153140     0.6868970
units angstrom
no_reorient  #important for SAPT in psi4, default
symmetry c1  #important for SAPT in psi4, default
}

set PROPERTIES_ORIGIN ["COM"]
properties('MP2/aug-cc-pvtz', properties = ['dipole'])
--------------------------------------------------------------------------

    Molecular point group: c1
  Charge       = 0
  Multiplicity = 1
  Basis Set: AUG-CC-PVTZ
    Blend: AUG-CC-PVTZ
  Basis Set: (AUG-CC-PVTZ AUX)
    Blend: AUG-CC-PVTZ-JKFIT

    Orbital Energies [Eh]
    ---------------------

    Doubly Occupied:

       1A    -91.981793     2A    -20.524819     3A    -15.590822
       4A    -11.364256     5A    -11.269355     6A    -11.261553
       7A    -11.259170     8A    -11.253132     9A    -11.252084
      10A    -11.242467    11A     -8.982489    12A     -6.663347
      13A     -6.662899    14A     -6.661958    15A     -1.378881
      16A     -1.234182    17A     -1.202349    18A     -1.054817
      19A     -1.008443    20A     -0.958202    21A     -0.925187
      22A     -0.827669    23A     -0.772025    24A     -0.756068
      25A     -0.706025    26A     -0.645006    27A     -0.631371
      28A     -0.622126    29A     -0.594474    30A     -0.587474
      31A     -0.569937    32A     -0.556361    33A     -0.552714
      34A     -0.538285    35A     -0.508673    36A     -0.503807
      37A     -0.469273    38A     -0.435780    39A     -0.399833
      40A     -0.359493    41A     -0.331473

  @DF-RHF Final Energy:  -797.29249312154116

   => Energetics <=

    Nuclear Repulsion Energy =            590.8867232607243523
    One-Electron Energy =               -2266.1582871198447720
    Two-Electron Energy =                 877.9790707375791499
    Total Energy =                       -797.2924931215411561
  Basis Set: (AUG-CC-PVTZ AUX)
    Blend: AUG-CC-PVTZ-RI
    Molecular point group: c1

    Geometry (in Angstrom), charge = 0, multiplicity = 1:

       Center              X                  Y                   Z               Mass
    ------------   -----------------  -----------------  -----------------  -----------------
         S           -0.811446376659     1.525574282352    -0.143304183000    31.972071174400
         O            2.140356623341     1.183661282352     0.382414817000    15.994914619570
         N            2.198911623341    -1.050214717648    -0.114436183000    14.003074004430
         C           -2.147513376659    -0.684932717648     0.020527817000    12.000000000000
         C            0.072142623341     0.058161282352     0.031604817000    12.000000000000
         C           -0.745910676659    -0.887873517648     0.103978617000    12.000000000000
         C           -2.303055376659     0.680186282352    -0.129902183000    12.000000000000
         C            1.548279623341     0.132718282352     0.111592817000    12.000000000000
         C           -3.279708376659    -1.669522717648     0.088207817000    12.000000000000
         C            3.651438623341    -1.071126717648    -0.159872183000    12.000000000000
         H           -0.424959376659    -2.048231717648     0.286577817000     1.007825032230
         H           -3.234546376659     1.225480282352    -0.231770183000     1.007825032230
         H           -3.276801376659    -2.208761717648     1.040692817000     1.007825032230
         H           -4.242908376659    -1.161684717648    -0.007907183000     1.007825032230
         H           -3.208231376659    -2.411219717648    -0.713546183000     1.007825032230
         H            1.694940623341    -1.768708717648    -0.617327183000     1.007825032230
         H            4.043397623341    -0.628916717648    -1.082353183000     1.007825032230
         H            3.991459623341    -2.104794717648    -0.078427183000     1.007825032230
         H            4.031747623341    -0.495789717648     0.683545817000     1.007825032230

  Basis Set: AUG-CC-PVTZ
    Blend: AUG-CC-PVTZ
  Basis Set: (AUG-CC-PVTZ AUX)
    Blend: AUG-CC-PVTZ-JKFIT
	 Reference Energy          =    -797.2924931215411561 [Eh]
	 Singles Energy            =      -0.0000000000000000 [Eh]
	 Same-Spin Energy          =      -0.4857137477761848 [Eh]
	 Opposite-Spin Energy      =      -1.5021788028539564 [Eh]
	 Correlation Energy        =      -1.9878925506301413 [Eh]
	 Total Energy              =    -799.2803856721712918 [Eh]

	 ================> DF-SCS-MP2 Energies <==================
	-----------------------------------------------------------
	 SCS Same-Spin Scale       =       0.3333333333333333 [-]
	 SCS Opposite-Spin Scale   =       1.2000000000000000 [-]
	 SCS Same-Spin Energy      =      -0.1619045825920616 [Eh]
	 SCS Opposite-Spin Energy  =      -1.8026145634247477 [Eh]
	 SCS Correlation Energy    =      -1.9645191460168092 [Eh]
	 SCS Total Energy          =    -799.2570122675579114 [Eh]
	-----------------------------------------------------------

  Dipole Moment: [D]
     X:    -1.4677      Y:    -3.8868      Z:    -1.1418     Total:     4.3087

*** Psi4 exiting successfully. Buy a developer a beer!
