                               Psi4 1.4a3.dev225

  ==> Input File <==

--------------------------------------------------------------------------
#psi4
#
memory 32 gb

molecule  {
0 1
  S       -0.8053760     1.6060500    -0.1399530
  O        2.1464270     1.2641370     0.3857660
  N        2.2049820    -0.9697390    -0.1110850
  C       -2.1132577    -0.5099970     0.0144836
  C        0.0782130     0.1386370     0.0349560
  C       -0.7695060    -0.9522330     0.1212440
  C       -2.2969850     0.7606620    -0.1265510
  C        1.5543500     0.2131940     0.1149440
  C       -3.2736380    -1.5890470     0.0915590
  C        3.6575090    -0.9906510    -0.1565210
  H       -0.4188890    -1.9677560     0.2899290
  H       -3.2284760     1.3059560    -0.2284190
  H       -3.2707310    -2.1282860     1.0440440
  H       -4.2368380    -1.0812090    -0.0045560
  H       -3.2021610    -2.3307440    -0.7101950
  H        1.7010110    -1.6882330    -0.6139760
  H        4.0494680    -0.5484410    -1.0790020
  H        3.9975300    -2.0243190    -0.0750760
  H        4.0378180    -0.4153140     0.6868970
units angstrom
no_reorient  #important for SAPT in psi4, default
symmetry c1  #important for SAPT in psi4, default
}

set PROPERTIES_ORIGIN ["COM"]
properties('MP2/aug-cc-pvtz', properties = ['dipole'])
--------------------------------------------------------------------------

    Molecular point group: c1
  Charge       = 0
  Multiplicity = 1
  Basis Set: AUG-CC-PVTZ
    Blend: AUG-CC-PVTZ
  Basis Set: (AUG-CC-PVTZ AUX)
    Blend: AUG-CC-PVTZ-JKFIT

    Orbital Energies [Eh]
    ---------------------

    Doubly Occupied:

       1A    -91.984973     2A    -20.523336     3A    -15.590717
       4A    -11.361590     5A    -11.277063     6A    -11.261513
       7A    -11.257222     8A    -11.256990     9A    -11.246519
      10A    -11.240042    11A     -8.985400    12A     -6.666282
      13A     -6.665768    14A     -6.664930    15A     -1.377524
      16A     -1.233060    17A     -1.194471    18A     -1.041325
      19A     -1.006996    20A     -0.953800    21A     -0.924509
      22A     -0.835157    23A     -0.770783    24A     -0.751365
      25A     -0.704602    26A     -0.645532    27A     -0.628653
      28A     -0.620736    29A     -0.598304    30A     -0.585894
      31A     -0.572557    32A     -0.552358    33A     -0.549718
      34A     -0.537360    35A     -0.512186    36A     -0.504785
      37A     -0.471438    38A     -0.433138    39A     -0.399712
      40A     -0.346840    41A     -0.342560

  @DF-RHF Final Energy:  -797.31056738306393

   => Energetics <=

    Nuclear Repulsion Energy =            589.2209383161036840
    One-Electron Energy =               -2262.9075925653542072
    Two-Electron Energy =                 876.3760868661865970
    Total Energy =                       -797.3105673830639262
  Basis Set: (AUG-CC-PVTZ AUX)
    Blend: AUG-CC-PVTZ-RI
    Molecular point group: c1

    Geometry (in Angstrom), charge = 0, multiplicity = 1:

       Center              X                  Y                   Z               Mass
    ------------   -----------------  -----------------  -----------------  -----------------
         S           -0.811331794974     1.529473279440    -0.143653934228    31.972071174400
         O            2.140471205026     1.187560279440     0.382065065772    15.994914619570
         N            2.199026205026    -1.046315720560    -0.114785934228    14.003074004430
         C           -2.119213494974    -0.586573720560     0.010782665772    12.000000000000
         C            0.072257205026     0.062060279440     0.031255065772    12.000000000000
         C           -0.775461794974    -1.028809720560     0.117543065772    12.000000000000
         C           -2.302940794974     0.684085279440    -0.130251934228    12.000000000000
         C            1.548394205026     0.136617279440     0.111243065772    12.000000000000
         C           -3.279593794974    -1.665623720560     0.087858065772    12.000000000000
         C            3.651553205026    -1.067227720560    -0.160221934228    12.000000000000
         H           -0.424844794974    -2.044332720560     0.286228065772     1.007825032230
         H           -3.234431794974     1.229379279440    -0.232119934228     1.007825032230
         H           -3.276686794974    -2.204862720560     1.040343065772     1.007825032230
         H           -4.242793794974    -1.157785720560    -0.008256934228     1.007825032230
         H           -3.208116794974    -2.407320720560    -0.713895934228     1.007825032230
         H            1.695055205026    -1.764809720560    -0.617676934228     1.007825032230
         H            4.043512205026    -0.625017720560    -1.082702934228     1.007825032230
         H            3.991574205026    -2.100895720560    -0.078776934228     1.007825032230
         H            4.031862205026    -0.491890720560     0.683196065772     1.007825032230

  Basis Set: AUG-CC-PVTZ
    Blend: AUG-CC-PVTZ
  Basis Set: (AUG-CC-PVTZ AUX)
    Blend: AUG-CC-PVTZ-JKFIT
	 Reference Energy          =    -797.3105673830639262 [Eh]
	 Singles Energy            =      -0.0000000000000000 [Eh]
	 Same-Spin Energy          =      -0.4852222047382347 [Eh]
	 Opposite-Spin Energy      =      -1.5016507955495038 [Eh]
	 Correlation Energy        =      -1.9868730002877384 [Eh]
	 Total Energy              =    -799.2974403833516135 [Eh]

	 ================> DF-SCS-MP2 Energies <==================
	-----------------------------------------------------------
	 SCS Same-Spin Scale       =       0.3333333333333333 [-]
	 SCS Opposite-Spin Scale   =       1.2000000000000000 [-]
	 SCS Same-Spin Energy      =      -0.1617407349127449 [Eh]
	 SCS Opposite-Spin Energy  =      -1.8019809546594043 [Eh]
	 SCS Correlation Energy    =      -1.9637216895721492 [Eh]
	 SCS Total Energy          =    -799.2742890726360656 [Eh]
	-----------------------------------------------------------

  Dipole Moment: [D]
     X:    -1.3859      Y:    -3.7356      Z:    -1.1433     Total:     4.1452

*** Psi4 exiting successfully. Buy a developer a beer!
