                               Psi4 1.4a3.dev225

  ==> Input File <==

--------------------------------------------------------------------------
#psi4
#
memory 32 gb

molecule  {
0 1
  S       -0.8053760     1.6060500    -0.1399530
  O        2.1464270     1.2641370     0.3857660
  N        2.2049820    -0.9697390    -0.1110850
  C       -2.1280986    -0.5572722     0.0169787
  C        0.0782130     0.1386370     0.0349560
  C       -0.7695060    -0.9522330     0.1212440
  C       -2.2969850     0.7606620    -0.1265510
  C        1.5543500     0.2131940     0.1149440
  C       -3.2736380    -1.5890470     0.0915590
  C        3.6575090    -0.9906510    -0.1565210
  H       -0.4188890    -1.9677560     0.2899290
  H       -3.2284760     1.3059560    -0.2284190
  H       -3.2707310    -2.1282860     1.0440440
  H       -4.2368380    -1.0812090    -0.0045560
  H       -3.2021610    -2.3307440    -0.7101950
  H        1.7010110    -1.6882330    -0.6139760
  H        4.0494680    -0.5484410    -1.0790020
  H        3.9975300    -2.0243190    -0.0750760
  H        4.0378180    -0.4153140     0.6868970
units angstrom
no_reorient  #important for SAPT in psi4, default
symmetry c1  #important for SAPT in psi4, default
}

set PROPERTIES_ORIGIN ["COM"]
properties('MP2/aug-cc-pvtz', properties = ['dipole'])
--------------------------------------------------------------------------

    Molecular point group: c1
  Charge       = 0
  Multiplicity = 1
  Basis Set: AUG-CC-PVTZ
    Blend: AUG-CC-PVTZ
  Basis Set: (AUG-CC-PVTZ AUX)
    Blend: AUG-CC-PVTZ-JKFIT

    Orbital Energies [Eh]
    ---------------------

    Doubly Occupied:

       1A    -91.987647     2A    -20.522636     3A    -15.590073
       4A    -11.361259     5A    -11.276014     6A    -11.263304
       7A    -11.261097     8A    -11.257017     9A    -11.250252
      10A    -11.239281    11A     -8.987733    12A     -6.668611
      13A     -6.668076    14A     -6.667302    15A     -1.376959
      16A     -1.232423    17A     -1.188592    18A     -1.042717
      19A     -1.007736    20A     -0.953665    21A     -0.924028
      22A     -0.832017    23A     -0.769737    24A     -0.750640
      25A     -0.706858    26A     -0.644803    27A     -0.628668
      28A     -0.620586    29A     -0.594994    30A     -0.588112
      31A     -0.569964    32A     -0.552006    33A     -0.549252
      34A     -0.535875    35A     -0.518533    36A     -0.503326
      37A     -0.475818    38A     -0.434251    39A     -0.399299
      40A     -0.347413    41A     -0.335288

  @DF-RHF Final Energy:  -797.31867105094375

   => Energetics <=

    Nuclear Repulsion Energy =            588.5461048037649334
    One-Electron Energy =               -2261.5618263815545106
    Two-Electron Energy =                 875.6970505268457146
    Total Energy =                       -797.3186710509437489
  Basis Set: (AUG-CC-PVTZ AUX)
    Blend: AUG-CC-PVTZ-RI
    Molecular point group: c1

    Geometry (in Angstrom), charge = 0, multiplicity = 1:

       Center              X                  Y                   Z               Mass
    ------------   -----------------  -----------------  -----------------  -----------------
         S           -0.810183122098     1.533132339199    -0.143847052819    31.972071174400
         O            2.141619877902     1.191219339199     0.381871947181    15.994914619570
         N            2.200174877902    -1.042656660801    -0.114979052819    14.003074004430
         C           -2.132905722098    -0.630189860801     0.013084647181    12.000000000000
         C            0.073405877902     0.065719339199     0.031061947181    12.000000000000
         C           -0.774313122098    -1.025150660801     0.117349947181    12.000000000000
         C           -2.301792122098     0.687744339199    -0.130445052819    12.000000000000
         C            1.549542877902     0.140276339199     0.111049947181    12.000000000000
         C           -3.278445122098    -1.661964660801     0.087664947181    12.000000000000
         C            3.652701877902    -1.063568660801    -0.160415052819    12.000000000000
         H           -0.423696122098    -2.040673660801     0.286034947181     1.007825032230
         H           -3.233283122098     1.233038339199    -0.232313052819     1.007825032230
         H           -3.275538122098    -2.201203660801     1.040149947181     1.007825032230
         H           -4.241645122098    -1.154126660801    -0.008450052819     1.007825032230
         H           -3.206968122098    -2.403661660801    -0.714089052819     1.007825032230
         H            1.696203877902    -1.761150660801    -0.617870052819     1.007825032230
         H            4.044660877902    -0.621358660801    -1.082896052819     1.007825032230
         H            3.992722877902    -2.097236660801    -0.078970052819     1.007825032230
         H            4.033010877902    -0.488231660801     0.683002947181     1.007825032230

  Basis Set: AUG-CC-PVTZ
    Blend: AUG-CC-PVTZ
  Basis Set: (AUG-CC-PVTZ AUX)
    Blend: AUG-CC-PVTZ-JKFIT
	 Reference Energy          =    -797.3186710509437489 [Eh]
	 Singles Energy            =      -0.0000000000000000 [Eh]
	 Same-Spin Energy          =      -0.4860002961381847 [Eh]
	 Opposite-Spin Energy      =      -1.5025407161463327 [Eh]
	 Correlation Energy        =      -1.9885410122845173 [Eh]
	 Total Energy              =    -799.3072120632282349 [Eh]

	 ================> DF-SCS-MP2 Energies <==================
	-----------------------------------------------------------
	 SCS Same-Spin Scale       =       0.3333333333333333 [-]
	 SCS Opposite-Spin Scale   =       1.2000000000000000 [-]
	 SCS Same-Spin Energy      =      -0.1620000987127282 [Eh]
	 SCS Opposite-Spin Energy  =      -1.8030488593755991 [Eh]
	 SCS Correlation Energy    =      -1.9650489580883272 [Eh]
	 SCS Total Energy          =    -799.2837200090320948 [Eh]
	-----------------------------------------------------------

  Dipole Moment: [D]
     X:    -1.4379      Y:    -3.7395      Z:    -1.1434     Total:     4.1664

*** Psi4 exiting successfully. Buy a developer a beer!
