                               Psi4 1.4a3.dev225

  ==> Input File <==

--------------------------------------------------------------------------
#psi4
#
memory 32 gb

molecule  {
0 1
  S       -0.8053760     1.6060500    -0.1399530
  O        2.0693632     1.3025381     0.3914792
  N        2.2049820    -0.9697390    -0.1110850
  C       -2.1414430    -0.6044570     0.0238790
  C        0.0782130     0.1386370     0.0349560
  C       -0.7695060    -0.9522330     0.1212440
  C       -2.2969850     0.7606620    -0.1265510
  C        1.5543500     0.2131940     0.1149440
  C       -3.2736380    -1.5890470     0.0915590
  C        3.6575090    -0.9906510    -0.1565210
  H       -0.4188890    -1.9677560     0.2899290
  H       -3.2284760     1.3059560    -0.2284190
  H       -3.2707310    -2.1282860     1.0440440
  H       -4.2368380    -1.0812090    -0.0045560
  H       -3.2021610    -2.3307440    -0.7101950
  H        1.7010110    -1.6882330    -0.6139760
  H        4.0494680    -0.5484410    -1.0790020
  H        3.9975300    -2.0243190    -0.0750760
  H        4.0378180    -0.4153140     0.6868970
units angstrom
no_reorient  #important for SAPT in psi4, default
symmetry c1  #important for SAPT in psi4, default
}

set PROPERTIES_ORIGIN ["COM"]
properties('MP2/aug-cc-pvtz', properties = ['dipole'])
--------------------------------------------------------------------------

    Molecular point group: c1
  Charge       = 0
  Multiplicity = 1
  Basis Set: AUG-CC-PVTZ
    Blend: AUG-CC-PVTZ
  Basis Set: (AUG-CC-PVTZ AUX)
    Blend: AUG-CC-PVTZ-JKFIT

    Orbital Energies [Eh]
    ---------------------

    Doubly Occupied:

       1A    -91.987754     2A    -20.523707     3A    -15.593983
       4A    -11.362012     5A    -11.271516     6A    -11.266478
       7A    -11.263989     8A    -11.254247     9A    -11.251656
      10A    -11.236729    11A     -8.987483    12A     -6.668345
      13A     -6.667794    14A     -6.667081    15A     -1.376889
      16A     -1.237437    17A     -1.180972    18A     -1.044233
      19A     -1.005628    20A     -0.954726    21A     -0.921728
      22A     -0.828771    23A     -0.770852    24A     -0.747894
      25A     -0.707039    26A     -0.646624    27A     -0.630546
      28A     -0.621229    29A     -0.592293    30A     -0.589446
      31A     -0.566963    32A     -0.555558    33A     -0.550629
      34A     -0.533124    35A     -0.521881    36A     -0.499472
      37A     -0.476005    38A     -0.434053    39A     -0.402658
      40A     -0.346066    41A     -0.325084

  @DF-RHF Final Energy:  -797.31818523596849

   => Energetics <=

    Nuclear Repulsion Energy =            588.4391202836656021
    One-Electron Energy =               -2261.3734666367072350
    Two-Electron Energy =                 875.6161611170732613
    Total Energy =                       -797.3181852359684854
  Basis Set: (AUG-CC-PVTZ AUX)
    Blend: AUG-CC-PVTZ-RI
    Molecular point group: c1

    Geometry (in Angstrom), charge = 0, multiplicity = 1:

       Center              X                  Y                   Z               Mass
    ------------   -----------------  -----------------  -----------------  -----------------
         S           -0.801199909097     1.532822712228    -0.144970538379    31.972071174400
         O            2.073539290903     1.229310812228     0.386461661621    15.994914619570
         N            2.209158090903    -1.042966287772    -0.116102538379    14.003074004430
         C           -2.137266909097    -0.677684287772     0.018861461621    12.000000000000
         C            0.082389090903     0.065409712228     0.029938461621    12.000000000000
         C           -0.765329909097    -1.025460287772     0.116226461621    12.000000000000
         C           -2.292808909097     0.687434712228    -0.131568538379    12.000000000000
         C            1.558526090903     0.139966712228     0.109926461621    12.000000000000
         C           -3.269461909097    -1.662274287772     0.086541461621    12.000000000000
         C            3.661685090903    -1.063878287772    -0.161538538379    12.000000000000
         H           -0.414712909097    -2.040983287772     0.284911461621     1.007825032230
         H           -3.224299909097     1.232728712228    -0.233436538379     1.007825032230
         H           -3.266554909097    -2.201513287772     1.039026461621     1.007825032230
         H           -4.232661909097    -1.154436287772    -0.009573538379     1.007825032230
         H           -3.197984909097    -2.403971287772    -0.715212538379     1.007825032230
         H            1.705187090903    -1.761460287772    -0.618993538379     1.007825032230
         H            4.053644090903    -0.621668287772    -1.084019538379     1.007825032230
         H            4.001706090903    -2.097546287772    -0.080093538379     1.007825032230
         H            4.041994090903    -0.488541287772     0.681879461621     1.007825032230

  Basis Set: AUG-CC-PVTZ
    Blend: AUG-CC-PVTZ
  Basis Set: (AUG-CC-PVTZ AUX)
    Blend: AUG-CC-PVTZ-JKFIT
	 Reference Energy          =    -797.3181852359684854 [Eh]
	 Singles Energy            =      -0.0000000000000000 [Eh]
	 Same-Spin Energy          =      -0.4869563661770287 [Eh]
	 Opposite-Spin Energy      =      -1.5038354449721856 [Eh]
	 Correlation Energy        =      -1.9907918111492142 [Eh]
	 Total Energy              =    -799.3089770471176507 [Eh]

	 ================> DF-SCS-MP2 Energies <==================
	-----------------------------------------------------------
	 SCS Same-Spin Scale       =       0.3333333333333333 [-]
	 SCS Opposite-Spin Scale   =       1.2000000000000000 [-]
	 SCS Same-Spin Energy      =      -0.1623187887256762 [Eh]
	 SCS Opposite-Spin Energy  =      -1.8046025339666225 [Eh]
	 SCS Correlation Energy    =      -1.9669213226922988 [Eh]
	 SCS Total Energy          =    -799.2851065586608001 [Eh]
	-----------------------------------------------------------

  Dipole Moment: [D]
     X:    -1.1640      Y:    -3.8323      Z:    -1.1546     Total:     4.1683

*** Psi4 exiting successfully. Buy a developer a beer!
