                               Psi4 1.4a3.dev225

  ==> Input File <==

--------------------------------------------------------------------------
#psi4
#
memory 32 gb

molecule  {
0 1
  S       -0.8053760     1.6060500    -0.1399530
  O        2.1464270     1.2641370     0.3857660
  N        2.2049820    -0.9697390    -0.1110850
  C       -2.1414430    -0.6044570     0.0238790
  C        0.0782130     0.1386370     0.0349560
  C       -0.7695060    -0.9522330     0.1212440
  C       -2.2744779     0.5631282    -0.1047837
  C        1.5543500     0.2131940     0.1149440
  C       -3.2736380    -1.5890470     0.0915590
  C        3.6575090    -0.9906510    -0.1565210
  H       -0.4188890    -1.9677560     0.2899290
  H       -3.2284760     1.3059560    -0.2284190
  H       -3.2707310    -2.1282860     1.0440440
  H       -4.2368380    -1.0812090    -0.0045560
  H       -3.2021610    -2.3307440    -0.7101950
  H        1.7010110    -1.6882330    -0.6139760
  H        4.0494680    -0.5484410    -1.0790020
  H        3.9975300    -2.0243190    -0.0750760
  H        4.0378180    -0.4153140     0.6868970
units angstrom
no_reorient  #important for SAPT in psi4, default
symmetry c1  #important for SAPT in psi4, default
}

set PROPERTIES_ORIGIN ["COM"]
properties('MP2/aug-cc-pvtz', properties = ['dipole'])
--------------------------------------------------------------------------

    Molecular point group: c1
  Charge       = 0
  Multiplicity = 1
  Basis Set: AUG-CC-PVTZ
    Blend: AUG-CC-PVTZ
  Basis Set: (AUG-CC-PVTZ AUX)
    Blend: AUG-CC-PVTZ-JKFIT

    Orbital Energies [Eh]
    ---------------------

    Doubly Occupied:

       1A    -91.980167     2A    -20.524187     3A    -15.589796
       4A    -11.361165     5A    -11.277873     6A    -11.260912
       7A    -11.258943     8A    -11.257525     9A    -11.240192
      10A    -11.227347    11A     -8.979691    12A     -6.660581
      13A     -6.659740    14A     -6.659015    15A     -1.377738
      16A     -1.232675    17A     -1.207056    18A     -1.064292
      19A     -0.992969    20A     -0.952200    21A     -0.938790
      22A     -0.839617    23A     -0.771454    24A     -0.728793
      25A     -0.709722    26A     -0.643204    27A     -0.632439
      28A     -0.622365    29A     -0.600833    30A     -0.592572
      31A     -0.573760    32A     -0.551332    33A     -0.549176
      34A     -0.540799    35A     -0.509404    36A     -0.498892
      37A     -0.458902    38A     -0.436494    39A     -0.399161
      40A     -0.367807    41A     -0.335788

  @DF-RHF Final Energy:  -797.26303662765076

   => Energetics <=

    Nuclear Repulsion Energy =            590.3104815806974557
    One-Electron Energy =               -2265.0163018376733817
    Two-Electron Energy =                 877.4427836293252767
    Total Energy =                       -797.2630366276507630
  Basis Set: (AUG-CC-PVTZ AUX)
    Blend: AUG-CC-PVTZ-RI
    Molecular point group: c1

    Geometry (in Angstrom), charge = 0, multiplicity = 1:

       Center              X                  Y                   Z               Mass
    ------------   -----------------  -----------------  -----------------  -----------------
         S           -0.810892307185     1.552073348048    -0.146065900366    31.972071174400
         O            2.140910692815     1.210160348048     0.379653099634    15.994914619570
         N            2.199465692815    -1.023715651952    -0.117197900366    14.003074004430
         C           -2.146959307185    -0.658433651952     0.017766099634    12.000000000000
         C            0.072696692815     0.084660348048     0.028843099634    12.000000000000
         C           -0.775022307185    -1.006209651952     0.115131099634    12.000000000000
         C           -2.279994207185     0.509151548048    -0.110896600366    12.000000000000
         C            1.548833692815     0.159217348048     0.108831099634    12.000000000000
         C           -3.279154307185    -1.643023651952     0.085446099634    12.000000000000
         C            3.651992692815    -1.044627651952    -0.162633900366    12.000000000000
         H           -0.424405307185    -2.021732651952     0.283816099634     1.007825032230
         H           -3.233992307185     1.251979348048    -0.234531900366     1.007825032230
         H           -3.276247307185    -2.182262651952     1.037931099634     1.007825032230
         H           -4.242354307185    -1.135185651952    -0.010668900366     1.007825032230
         H           -3.207677307185    -2.384720651952    -0.716307900366     1.007825032230
         H            1.695494692815    -1.742209651952    -0.620088900366     1.007825032230
         H            4.043951692815    -0.602417651952    -1.085114900366     1.007825032230
         H            3.992013692815    -2.078295651952    -0.081188900366     1.007825032230
         H            4.032301692815    -0.469290651952     0.680784099634     1.007825032230

  Basis Set: AUG-CC-PVTZ
    Blend: AUG-CC-PVTZ
  Basis Set: (AUG-CC-PVTZ AUX)
    Blend: AUG-CC-PVTZ-JKFIT
	 Reference Energy          =    -797.2630366276507630 [Eh]
	 Singles Energy            =      -0.0000000000000000 [Eh]
	 Same-Spin Energy          =      -0.4844602439845637 [Eh]
	 Opposite-Spin Energy      =      -1.5022884793631408 [Eh]
	 Correlation Energy        =      -1.9867487233477046 [Eh]
	 Total Energy              =    -799.2497853509984225 [Eh]

	 ================> DF-SCS-MP2 Energies <==================
	-----------------------------------------------------------
	 SCS Same-Spin Scale       =       0.3333333333333333 [-]
	 SCS Opposite-Spin Scale   =       1.2000000000000000 [-]
	 SCS Same-Spin Energy      =      -0.1614867479948546 [Eh]
	 SCS Opposite-Spin Energy  =      -1.8027461752357690 [Eh]
	 SCS Correlation Energy    =      -1.9642329232306235 [Eh]
	 SCS Total Energy          =    -799.2272695508813740 [Eh]
	-----------------------------------------------------------

  Dipole Moment: [D]
     X:    -1.4778      Y:    -3.9252      Z:    -1.1256     Total:     4.3426

*** Psi4 exiting successfully. Buy a developer a beer!
