                               Psi4 1.4a3.dev225

  ==> Input File <==

--------------------------------------------------------------------------
#psi4
#
memory 32 gb

molecule  {
0 1
  S       -0.8053760     1.6060500    -0.1399530
  O        2.0298664     1.3197592     0.3938320
  N        2.2049820    -0.9697390    -0.1110850
  C       -2.1414430    -0.6044570     0.0238790
  C        0.0782130     0.1386370     0.0349560
  C       -0.7695060    -0.9522330     0.1212440
  C       -2.2969850     0.7606620    -0.1265510
  C        1.5543500     0.2131940     0.1149440
  C       -3.2736380    -1.5890470     0.0915590
  C        3.6575090    -0.9906510    -0.1565210
  H       -0.4188890    -1.9677560     0.2899290
  H       -3.2284760     1.3059560    -0.2284190
  H       -3.2707310    -2.1282860     1.0440440
  H       -4.2368380    -1.0812090    -0.0045560
  H       -3.2021610    -2.3307440    -0.7101950
  H        1.7010110    -1.6882330    -0.6139760
  H        4.0494680    -0.5484410    -1.0790020
  H        3.9975300    -2.0243190    -0.0750760
  H        4.0378180    -0.4153140     0.6868970
units angstrom
no_reorient  #important for SAPT in psi4, default
symmetry c1  #important for SAPT in psi4, default
}

set PROPERTIES_ORIGIN ["COM"]
properties('MP2/aug-cc-pvtz', properties = ['dipole'])
--------------------------------------------------------------------------

    Molecular point group: c1
  Charge       = 0
  Multiplicity = 1
  Basis Set: AUG-CC-PVTZ
    Blend: AUG-CC-PVTZ
  Basis Set: (AUG-CC-PVTZ AUX)
    Blend: AUG-CC-PVTZ-JKFIT

    Orbital Energies [Eh]
    ---------------------

    Doubly Occupied:

       1A    -91.986361     2A    -20.524551     3A    -15.596260
       4A    -11.362640     5A    -11.269778     6A    -11.265604
       7A    -11.265082     8A    -11.252672     9A    -11.250428
      10A    -11.235904    11A     -8.986084    12A     -6.666943
      13A     -6.666389    14A     -6.665676    15A     -1.377428
      16A     -1.240166    17A     -1.179600    18A     -1.042968
      19A     -1.004801    20A     -0.955071    21A     -0.921048
      22A     -0.828808    23A     -0.771843    24A     -0.746779
      25A     -0.706185    26A     -0.647900    27A     -0.631491
      28A     -0.621641    29A     -0.591363    30A     -0.588689
      31A     -0.566534    32A     -0.557434    33A     -0.551330
      34A     -0.532351    35A     -0.520869    36A     -0.498718
      37A     -0.474789    38A     -0.433374    39A     -0.404535
      40A     -0.344922    41A     -0.323588

  @DF-RHF Final Energy:  -797.31643994612250

   => Energetics <=

    Nuclear Repulsion Energy =            588.7490282134191375
    One-Electron Energy =               -2262.0137405252194185
    Two-Electron Energy =                 875.9482723656778944
    Total Energy =                       -797.3164399461225003
  Basis Set: (AUG-CC-PVTZ AUX)
    Blend: AUG-CC-PVTZ-RI
    Molecular point group: c1

    Geometry (in Angstrom), charge = 0, multiplicity = 1:

       Center              X                  Y                   Z               Mass
    ------------   -----------------  -----------------  -----------------  -----------------
         S           -0.797125180207     1.531046079344    -0.145213267464    31.972071174400
         O            2.038117219793     1.244755279344     0.388571732536    15.994914619570
         N            2.213232819793    -1.044742920656    -0.116345267464    14.003074004430
         C           -2.133192180207    -0.679460920656     0.018618732536    12.000000000000
         C            0.086463819793     0.063633079344     0.029695732536    12.000000000000
         C           -0.761255180207    -1.027236920656     0.115983732536    12.000000000000
         C           -2.288734180207     0.685658079344    -0.131811267464    12.000000000000
         C            1.562600819793     0.138190079344     0.109683732536    12.000000000000
         C           -3.265387180207    -1.664050920656     0.086298732536    12.000000000000
         C            3.665759819793    -1.065654920656    -0.161781267464    12.000000000000
         H           -0.410638180207    -2.042759920656     0.284668732536     1.007825032230
         H           -3.220225180207     1.230952079344    -0.233679267464     1.007825032230
         H           -3.262480180207    -2.203289920656     1.038783732536     1.007825032230
         H           -4.228587180207    -1.156212920656    -0.009816267464     1.007825032230
         H           -3.193910180207    -2.405747920656    -0.715455267464     1.007825032230
         H            1.709261819793    -1.763236920656    -0.619236267464     1.007825032230
         H            4.057718819793    -0.623444920656    -1.084262267464     1.007825032230
         H            4.005780819793    -2.099322920656    -0.080336267464     1.007825032230
         H            4.046068819793    -0.490317920656     0.681636732536     1.007825032230

  Basis Set: AUG-CC-PVTZ
    Blend: AUG-CC-PVTZ
  Basis Set: (AUG-CC-PVTZ AUX)
    Blend: AUG-CC-PVTZ-JKFIT
	 Reference Energy          =    -797.3164399461225003 [Eh]
	 Singles Energy            =      -0.0000000000000000 [Eh]
	 Same-Spin Energy          =      -0.4869758049188353 [Eh]
	 Opposite-Spin Energy      =      -1.5039402935634973 [Eh]
	 Correlation Energy        =      -1.9909160984823326 [Eh]
	 Total Energy              =    -799.3073560446048305 [Eh]

	 ================> DF-SCS-MP2 Energies <==================
	-----------------------------------------------------------
	 SCS Same-Spin Scale       =       0.3333333333333333 [-]
	 SCS Opposite-Spin Scale   =       1.2000000000000000 [-]
	 SCS Same-Spin Energy      =      -0.1623252683062784 [Eh]
	 SCS Opposite-Spin Energy  =      -1.8047283522761968 [Eh]
	 SCS Correlation Energy    =      -1.9670536205824751 [Eh]
	 SCS Total Energy          =    -799.2834935667049194 [Eh]
	-----------------------------------------------------------

  Dipole Moment: [D]
     X:    -0.9947      Y:    -3.8688      Z:    -1.1575     Total:     4.1590

*** Psi4 exiting successfully. Buy a developer a beer!
