                               Psi4 1.4a3.dev225

  ==> Input File <==

--------------------------------------------------------------------------
#psi4
#
memory 32 gb

molecule  {
0 1
  S       -0.8053760     1.6060500    -0.1399530
  O        2.1464270     1.2641370     0.3857660
  N        2.2049820    -0.9697390    -0.1110850
  C       -2.1414430    -0.6044570     0.0238790
  C        0.0782130     0.1386370     0.0349560
  C       -0.7695060    -0.9522330     0.1212440
  C       -2.2969850     0.7606620    -0.1265510
  C        1.5543500     0.2131940     0.1149440
  C       -3.2736380    -1.5890470     0.0915590
  C        3.6575090    -0.9906510    -0.1565210
  H       -0.4188890    -1.9677560     0.2899290
  H       -3.2284760     1.3059560    -0.2284190
  H       -3.2707310    -2.1282860     1.0440440
  H       -4.2368380    -1.0812090    -0.0045560
  H       -3.2021610    -2.3307440    -0.7101950
  H        1.6013621    -1.8302989    -0.7134113
  H        4.0494680    -0.5484410    -1.0790020
  H        3.9975300    -2.0243190    -0.0750760
  H        4.0378180    -0.4153140     0.6868970
units angstrom
no_reorient  #important for SAPT in psi4, default
symmetry c1  #important for SAPT in psi4, default
}

set PROPERTIES_ORIGIN ["COM"]
properties('MP2/aug-cc-pvtz', properties = ['dipole'])
--------------------------------------------------------------------------

    Molecular point group: c1
  Charge       = 0
  Multiplicity = 1
  Basis Set: AUG-CC-PVTZ
    Blend: AUG-CC-PVTZ
  Basis Set: (AUG-CC-PVTZ AUX)
    Blend: AUG-CC-PVTZ-JKFIT

    Orbital Energies [Eh]
    ---------------------

    Doubly Occupied:

       1A    -91.989963     2A    -20.522033     3A    -15.604826
       4A    -11.360829     5A    -11.274470     6A    -11.268432
       7A    -11.260630     8A    -11.256387     9A    -11.253572
      10A    -11.238148    11A     -8.989711    12A     -6.670579
      13A     -6.670029    14A     -6.669320    15A     -1.375274
      16A     -1.214876    17A     -1.182403    18A     -1.046168
      19A     -1.006572    20A     -0.952096    21A     -0.920938
      22A     -0.819258    23A     -0.750905    24A     -0.736199
      25A     -0.705994    26A     -0.639625    27A     -0.626850
      28A     -0.617561    29A     -0.593372    30A     -0.590684
      31A     -0.565712    32A     -0.549088    33A     -0.537992
      34A     -0.533926    35A     -0.523212    36A     -0.500338
      37A     -0.477862    38A     -0.433540    39A     -0.396350
      40A     -0.347594    41A     -0.327149

  @DF-RHF Final Energy:  -797.28894136840995

   => Energetics <=

    Nuclear Repulsion Energy =            586.9717458294381913
    One-Electron Energy =               -2258.5204444711198448
    Two-Electron Energy =                 874.2597572732718163
    Total Energy =                       -797.2889413684099509
  Basis Set: (AUG-CC-PVTZ AUX)
    Blend: AUG-CC-PVTZ-RI
    Molecular point group: c1

    Geometry (in Angstrom), charge = 0, multiplicity = 1:

       Center              X                  Y                   Z               Mass
    ------------   -----------------  -----------------  -----------------  -----------------
         S           -0.808502519411     1.537707887127    -0.143734760959    31.972071174400
         O            2.143300480589     1.195794887127     0.381984239041    15.994914619570
         N            2.201855480589    -1.038081112873    -0.114866760959    14.003074004430
         C           -2.144569519411    -0.672799112873     0.020097239041    12.000000000000
         C            0.075086480589     0.070294887127     0.031174239041    12.000000000000
         C           -0.772632519411    -1.020575112873     0.117462239041    12.000000000000
         C           -2.300111519411     0.692319887127    -0.130332760959    12.000000000000
         C            1.551223480589     0.144851887127     0.111162239041    12.000000000000
         C           -3.276764519411    -1.657389112873     0.087777239041    12.000000000000
         C            3.654382480589    -1.058993112873    -0.160302760959    12.000000000000
         H           -0.422015519411    -2.036098112873     0.286147239041     1.007825032230
         H           -3.231602519411     1.237613887127    -0.232200760959     1.007825032230
         H           -3.273857519411    -2.196628112873     1.040262239041     1.007825032230
         H           -4.239964519411    -1.149551112873    -0.008337760959     1.007825032230
         H           -3.205287519411    -2.399086112873    -0.713976760959     1.007825032230
         H            1.598235580589    -1.898641012873    -0.717193060959     1.007825032230
         H            4.046341480589    -0.616783112873    -1.082783760959     1.007825032230
         H            3.994403480589    -2.092661112873    -0.078857760959     1.007825032230
         H            4.034691480589    -0.483656112873     0.683115239041     1.007825032230

  Basis Set: AUG-CC-PVTZ
    Blend: AUG-CC-PVTZ
  Basis Set: (AUG-CC-PVTZ AUX)
    Blend: AUG-CC-PVTZ-JKFIT
	 Reference Energy          =    -797.2889413684099509 [Eh]
	 Singles Energy            =      -0.0000000000000000 [Eh]
	 Same-Spin Energy          =      -0.4887009189460746 [Eh]
	 Opposite-Spin Energy      =      -1.5081665157949271 [Eh]
	 Correlation Energy        =      -1.9968674347410018 [Eh]
	 Total Energy              =    -799.2858088031509851 [Eh]

	 ================> DF-SCS-MP2 Energies <==================
	-----------------------------------------------------------
	 SCS Same-Spin Scale       =       0.3333333333333333 [-]
	 SCS Opposite-Spin Scale   =       1.2000000000000000 [-]
	 SCS Same-Spin Energy      =      -0.1629003063153582 [Eh]
	 SCS Opposite-Spin Energy  =      -1.8097998189539124 [Eh]
	 SCS Correlation Energy    =      -1.9727001252692706 [Eh]
	 SCS Total Energy          =    -799.2616414936792353 [Eh]
	-----------------------------------------------------------

  Dipole Moment: [D]
     X:    -1.5006      Y:    -3.8432      Z:    -1.2165     Total:     4.3014

*** Psi4 exiting successfully. Buy a developer a beer!
