                               Psi4 1.4a3.dev225

  ==> Input File <==

--------------------------------------------------------------------------
#psi4
#
memory 32 gb

molecule  {
0 1
  S       -0.8053760     1.6060500    -0.1399530
  O        2.1464270     1.2641370     0.3857660
  N        2.2049820    -0.9697390    -0.1110850
  C       -2.1414430    -0.6044570     0.0238790
  C        0.0268955     0.2238621     0.0247976
  C       -0.7695060    -0.9522330     0.1212440
  C       -2.2969850     0.7606620    -0.1265510
  C        1.5543500     0.2131940     0.1149440
  C       -3.2736380    -1.5890470     0.0915590
  C        3.6575090    -0.9906510    -0.1565210
  H       -0.4188890    -1.9677560     0.2899290
  H       -3.2284760     1.3059560    -0.2284190
  H       -3.2707310    -2.1282860     1.0440440
  H       -4.2368380    -1.0812090    -0.0045560
  H       -3.2021610    -2.3307440    -0.7101950
  H        1.7010110    -1.6882330    -0.6139760
  H        4.0494680    -0.5484410    -1.0790020
  H        3.9975300    -2.0243190    -0.0750760
  H        4.0378180    -0.4153140     0.6868970
units angstrom
no_reorient  #important for SAPT in psi4, default
symmetry c1  #important for SAPT in psi4, default
}

set PROPERTIES_ORIGIN ["COM"]
properties('MP2/aug-cc-pvtz', properties = ['dipole'])
--------------------------------------------------------------------------

    Molecular point group: c1
  Charge       = 0
  Multiplicity = 1
  Basis Set: AUG-CC-PVTZ
    Blend: AUG-CC-PVTZ
  Basis Set: (AUG-CC-PVTZ AUX)
    Blend: AUG-CC-PVTZ-JKFIT

    Orbital Energies [Eh]
    ---------------------

    Doubly Occupied:

       1A    -91.993650     2A    -20.520753     3A    -15.591344
       4A    -11.363214     5A    -11.275164     6A    -11.262914
       7A    -11.261966     8A    -11.253840     9A    -11.252744
      10A    -11.236723    11A     -8.995459    12A     -6.676549
      13A     -6.675747    14A     -6.675013    15A     -1.375381
      16A     -1.231048    17A     -1.191087    18A     -1.051834
      19A     -0.998335    20A     -0.949949    21A     -0.928283
      22A     -0.821486    23A     -0.767444    24A     -0.747047
      25A     -0.702656    26A     -0.644038    27A     -0.629440
      28A     -0.622357    29A     -0.591460    30A     -0.589756
      31A     -0.562285    32A     -0.553414    33A     -0.549266
      34A     -0.537587    35A     -0.528955    36A     -0.505307
      37A     -0.483044    38A     -0.430273    39A     -0.398718
      40A     -0.346229    41A     -0.324730

  @DF-RHF Final Energy:  -797.30857311186514

   => Energetics <=

    Nuclear Repulsion Energy =            588.6980718048506560
    One-Electron Energy =               -2261.8203102309198584
    Two-Electron Energy =                 875.8136653142039449
    Total Energy =                       -797.3085731118651438
  Basis Set: (AUG-CC-PVTZ AUX)
    Blend: AUG-CC-PVTZ-RI
    Molecular point group: c1

    Geometry (in Angstrom), charge = 0, multiplicity = 1:

       Center              X                  Y                   Z               Mass
    ------------   -----------------  -----------------  -----------------  -----------------
         S           -0.805178346735     1.530188052746    -0.143594878685    31.972071174400
         O            2.146624653265     1.188275052746     0.382124121315    15.994914619570
         N            2.205179653265    -1.045600947254    -0.114726878685    14.003074004430
         C           -2.141245346735    -0.680318947254     0.020237121315    12.000000000000
         C            0.027093153265     0.148000152746     0.021155721315    12.000000000000
         C           -0.769308346735    -1.028094947254     0.117602121315    12.000000000000
         C           -2.296787346735     0.684800052746    -0.130192878685    12.000000000000
         C            1.554547653265     0.137332052746     0.111302121315    12.000000000000
         C           -3.273440346735    -1.664908947254     0.087917121315    12.000000000000
         C            3.657706653265    -1.066512947254    -0.160162878685    12.000000000000
         H           -0.418691346735    -2.043617947254     0.286287121315     1.007825032230
         H           -3.228278346735     1.230094052746    -0.232060878685     1.007825032230
         H           -3.270533346735    -2.204147947254     1.040402121315     1.007825032230
         H           -4.236640346735    -1.157070947254    -0.008197878685     1.007825032230
         H           -3.201963346735    -2.406605947254    -0.713836878685     1.007825032230
         H            1.701208653265    -1.764094947254    -0.617617878685     1.007825032230
         H            4.049665653265    -0.624302947254    -1.082643878685     1.007825032230
         H            3.997727653265    -2.100180947254    -0.078717878685     1.007825032230
         H            4.038015653265    -0.491175947254     0.683255121315     1.007825032230

  Basis Set: AUG-CC-PVTZ
    Blend: AUG-CC-PVTZ
  Basis Set: (AUG-CC-PVTZ AUX)
    Blend: AUG-CC-PVTZ-JKFIT
	 Reference Energy          =    -797.3085731118651438 [Eh]
	 Singles Energy            =      -0.0000000000000000 [Eh]
	 Same-Spin Energy          =      -0.4879614474636252 [Eh]
	 Opposite-Spin Energy      =      -1.5041234583640699 [Eh]
	 Correlation Energy        =      -1.9920849058276953 [Eh]
	 Total Energy              =    -799.3006580176928537 [Eh]

	 ================> DF-SCS-MP2 Energies <==================
	-----------------------------------------------------------
	 SCS Same-Spin Scale       =       0.3333333333333333 [-]
	 SCS Opposite-Spin Scale   =       1.2000000000000000 [-]
	 SCS Same-Spin Energy      =      -0.1626538158212084 [Eh]
	 SCS Opposite-Spin Energy  =      -1.8049481500368838 [Eh]
	 SCS Correlation Energy    =      -1.9676019658580921 [Eh]
	 SCS Total Energy          =    -799.2761750777232237 [Eh]
	-----------------------------------------------------------

  Dipole Moment: [D]
     X:    -1.3916      Y:    -3.6139      Z:    -1.1680     Total:     4.0448

*** Psi4 exiting successfully. Buy a developer a beer!
