                               Psi4 1.4a3.dev225

  ==> Input File <==

--------------------------------------------------------------------------
#psi4
#
memory 32 gb

molecule  {
0 1
  S       -0.8053760     1.6060500    -0.1399530
  O        2.1464270     1.2641370     0.3857660
  N        2.2049820    -0.9697390    -0.1110850
  C       -2.1414430    -0.6044570     0.0238790
  C        0.0782130     0.1386370     0.0349560
  C       -0.7695060    -0.9522330     0.1212440
  C       -2.2969850     0.7606620    -0.1265510
  C        1.5543500     0.2131940     0.1149440
  C       -3.2736380    -1.5890470     0.0915590
  C        3.6575090    -0.9906510    -0.1565210
  H       -0.4188890    -1.9677560     0.2899290
  H       -3.2284760     1.3059560    -0.2284190
  H       -3.2707310    -2.1282860     1.0440440
  H       -4.2368380    -1.0812090    -0.0045560
  H       -3.2021610    -2.3307440    -0.7101950
  H        1.7010110    -1.6882330    -0.6139760
  H        3.9916803    -0.6298292    -1.1354438
  H        3.9975300    -2.0243190    -0.0750760
  H        4.0378180    -0.4153140     0.6868970
units angstrom
no_reorient  #important for SAPT in psi4, default
symmetry c1  #important for SAPT in psi4, default
}

set PROPERTIES_ORIGIN ["COM"]
properties('MP2/aug-cc-pvtz', properties = ['dipole'])
--------------------------------------------------------------------------

    Molecular point group: c1
  Charge       = 0
  Multiplicity = 1
  Basis Set: AUG-CC-PVTZ
    Blend: AUG-CC-PVTZ
  Basis Set: (AUG-CC-PVTZ AUX)
    Blend: AUG-CC-PVTZ-JKFIT

    Orbital Energies [Eh]
    ---------------------

    Doubly Occupied:

       1A    -91.990207     2A    -20.521209     3A    -15.588352
       4A    -11.360439     5A    -11.274742     6A    -11.268946
       7A    -11.261280     8A    -11.257038     9A    -11.253821
      10A    -11.238195    11A     -8.989957    12A     -6.670825
      13A     -6.670275    14A     -6.669563    15A     -1.375878
      16A     -1.231718    17A     -1.183373    18A     -1.046526
      19A     -1.007247    20A     -0.954192    21A     -0.922682
      22A     -0.827879    23A     -0.768366    24A     -0.749764
      25A     -0.708581    26A     -0.641458    27A     -0.631968
      28A     -0.620821    29A     -0.593847    30A     -0.590922
      31A     -0.567615    32A     -0.555988    33A     -0.545324
      34A     -0.534351    35A     -0.523708    36A     -0.500937
      37A     -0.478105    38A     -0.434055    39A     -0.397802
      40A     -0.348074    41A     -0.327718

  @DF-RHF Final Energy:  -797.31826280280870

   => Energetics <=

    Nuclear Repulsion Energy =            587.9715436813693259
    One-Electron Energy =               -2260.4121201380835373
    Two-Electron Energy =                 875.1223136539053939
    Total Energy =                       -797.3182628028087038
  Basis Set: (AUG-CC-PVTZ AUX)
    Blend: AUG-CC-PVTZ-RI
    Molecular point group: c1

    Geometry (in Angstrom), charge = 0, multiplicity = 1:

       Center              X                  Y                   Z               Mass
    ------------   -----------------  -----------------  -----------------  -----------------
         S           -0.808774633918     1.537313457860    -0.144014235868    31.972071174400
         O            2.143028366082     1.195400457860     0.381704764132    15.994914619570
         N            2.201583366082    -1.038475542140    -0.115146235868    14.003074004430
         C           -2.144841633918    -0.673193542140     0.019817764132    12.000000000000
         C            0.074814366082     0.069900457860     0.030894764132    12.000000000000
         C           -0.772904633918    -1.020969542140     0.117182764132    12.000000000000
         C           -2.300383633918     0.691925457860    -0.130612235868    12.000000000000
         C            1.550951366082     0.144457457860     0.110882764132    12.000000000000
         C           -3.277036633918    -1.657783542140     0.087497764132    12.000000000000
         C            3.654110366082    -1.059387542140    -0.160582235868    12.000000000000
         H           -0.422287633918    -2.036492542140     0.285867764132     1.007825032230
         H           -3.231874633918     1.237219457860    -0.232480235868     1.007825032230
         H           -3.274129633918    -2.197022542140     1.039982764132     1.007825032230
         H           -4.240236633918    -1.149945542140    -0.008617235868     1.007825032230
         H           -3.205559633918    -2.399480542140    -0.714256235868     1.007825032230
         H            1.697612366082    -1.756969542140    -0.618037235868     1.007825032230
         H            3.988281666082    -0.698565742140    -1.139505035868     1.007825032230
         H            3.994131366082    -2.093055542140    -0.079137235868     1.007825032230
         H            4.034419366082    -0.484050542140     0.682835764132     1.007825032230

  Basis Set: AUG-CC-PVTZ
    Blend: AUG-CC-PVTZ
  Basis Set: (AUG-CC-PVTZ AUX)
    Blend: AUG-CC-PVTZ-JKFIT
	 Reference Energy          =    -797.3182628028087038 [Eh]
	 Singles Energy            =      -0.0000000000000000 [Eh]
	 Same-Spin Energy          =      -0.4870253498077179 [Eh]
	 Opposite-Spin Energy      =      -1.5038537656363971 [Eh]
	 Correlation Energy        =      -1.9908791154441150 [Eh]
	 Total Energy              =    -799.3091419182528625 [Eh]

	 ================> DF-SCS-MP2 Energies <==================
	-----------------------------------------------------------
	 SCS Same-Spin Scale       =       0.3333333333333333 [-]
	 SCS Opposite-Spin Scale   =       1.2000000000000000 [-]
	 SCS Same-Spin Energy      =      -0.1623417832692393 [Eh]
	 SCS Opposite-Spin Energy  =      -1.8046245187636765 [Eh]
	 SCS Correlation Energy    =      -1.9669663020329158 [Eh]
	 SCS Total Energy          =    -799.2852291048416191 [Eh]
	-----------------------------------------------------------

  Dipole Moment: [D]
     X:    -1.4719      Y:    -3.7935      Z:    -1.1581     Total:     4.2307

*** Psi4 exiting successfully. Buy a developer a beer!
