                               Psi4 1.4a3.dev225

  ==> Input File <==

--------------------------------------------------------------------------
#psi4
#
memory 32 gb

molecule  {
0 1
  S       -0.8053760     1.6060500    -0.1399530
  O        2.1464270     1.2641370     0.3857660
  N        2.2049820    -0.9697390    -0.1110850
  C       -2.1414430    -0.6044570     0.0238790
  C        0.0782130     0.1386370     0.0349560
  C       -0.7888471    -0.9473302     0.1198714
  C       -2.2969850     0.7606620    -0.1265510
  C        1.5543500     0.2131940     0.1149440
  C       -3.2736380    -1.5890470     0.0915590
  C        3.6575090    -0.9906510    -0.1565210
  H       -0.4188890    -1.9677560     0.2899290
  H       -3.2284760     1.3059560    -0.2284190
  H       -3.2707310    -2.1282860     1.0440440
  H       -4.2368380    -1.0812090    -0.0045560
  H       -3.2021610    -2.3307440    -0.7101950
  H        1.7010110    -1.6882330    -0.6139760
  H        4.0494680    -0.5484410    -1.0790020
  H        3.9975300    -2.0243190    -0.0750760
  H        4.0378180    -0.4153140     0.6868970
units angstrom
no_reorient  #important for SAPT in psi4, default
symmetry c1  #important for SAPT in psi4, default
}

set PROPERTIES_ORIGIN ["COM"]
properties('MP2/aug-cc-pvtz', properties = ['dipole'])
--------------------------------------------------------------------------

    Molecular point group: c1
  Charge       = 0
  Multiplicity = 1
  Basis Set: AUG-CC-PVTZ
    Blend: AUG-CC-PVTZ
  Basis Set: (AUG-CC-PVTZ AUX)
    Blend: AUG-CC-PVTZ-JKFIT

    Orbital Energies [Eh]
    ---------------------

    Doubly Occupied:

       1A    -91.991402     2A    -20.521717     3A    -15.589306
       4A    -11.361109     5A    -11.274962     6A    -11.269671
       7A    -11.260574     8A    -11.257125     9A    -11.252230
      10A    -11.238320    11A     -8.991046    12A     -6.671890
      13A     -6.671362    14A     -6.670674    15A     -1.376232
      16A     -1.231611    17A     -1.185282    18A     -1.047412
      19A     -1.006378    20A     -0.954374    21A     -0.923594
      22A     -0.828855    23A     -0.769066    24A     -0.749465
      25A     -0.707846    26A     -0.643986    27A     -0.629021
      28A     -0.620978    29A     -0.594157    30A     -0.591416
      31A     -0.566322    32A     -0.551525    33A     -0.549004
      34A     -0.537072    35A     -0.521922    36A     -0.501316
      37A     -0.478040    38A     -0.434966    39A     -0.398809
      40A     -0.349179    41A     -0.326861

  @DF-RHF Final Energy:  -797.31825847498135

   => Energetics <=

    Nuclear Repulsion Energy =            588.0374966519995041
    One-Electron Energy =               -2260.5193521195974427
    Two-Electron Energy =                 875.1635969926167036
    Total Energy =                       -797.3182584749813486
  Basis Set: (AUG-CC-PVTZ AUX)
    Blend: AUG-CC-PVTZ-RI
    Molecular point group: c1

    Geometry (in Angstrom), charge = 0, multiplicity = 1:

       Center              X                  Y                   Z               Mass
    ------------   -----------------  -----------------  -----------------  -----------------
         S           -0.807653292552     1.536404929579    -0.144274892037    31.972071174400
         O            2.144149707448     1.194491929579     0.381444107963    15.994914619570
         N            2.202704707448    -1.039384070421    -0.115406892037    14.003074004430
         C           -2.143720292552    -0.674102070421     0.019557107963    12.000000000000
         C            0.075935707448     0.068991929579     0.030634107963    12.000000000000
         C           -0.791124392552    -1.016975270421     0.115549507963    12.000000000000
         C           -2.299262292552     0.691016929579    -0.130872892037    12.000000000000
         C            1.552072707448     0.143548929579     0.110622107963    12.000000000000
         C           -3.275915292552    -1.658692070421     0.087237107963    12.000000000000
         C            3.655231707448    -1.060296070421    -0.160842892037    12.000000000000
         H           -0.421166292552    -2.037401070421     0.285607107963     1.007825032230
         H           -3.230753292552     1.236310929579    -0.232740892037     1.007825032230
         H           -3.273008292552    -2.197931070421     1.039722107963     1.007825032230
         H           -4.239115292552    -1.150854070421    -0.008877892037     1.007825032230
         H           -3.204438292552    -2.400389070421    -0.714516892037     1.007825032230
         H            1.698733707448    -1.757878070421    -0.618297892037     1.007825032230
         H            4.047190707448    -0.618086070421    -1.083323892037     1.007825032230
         H            3.995252707448    -2.093964070421    -0.079397892037     1.007825032230
         H            4.035540707448    -0.484959070421     0.682575107963     1.007825032230

  Basis Set: AUG-CC-PVTZ
    Blend: AUG-CC-PVTZ
  Basis Set: (AUG-CC-PVTZ AUX)
    Blend: AUG-CC-PVTZ-JKFIT
	 Reference Energy          =    -797.3182584749813486 [Eh]
	 Singles Energy            =      -0.0000000000000000 [Eh]
	 Same-Spin Energy          =      -0.4875331035907470 [Eh]
	 Opposite-Spin Energy      =      -1.5042675062527233 [Eh]
	 Correlation Energy        =      -1.9918006098434704 [Eh]
	 Total Energy              =    -799.3100590848248430 [Eh]

	 ================> DF-SCS-MP2 Energies <==================
	-----------------------------------------------------------
	 SCS Same-Spin Scale       =       0.3333333333333333 [-]
	 SCS Opposite-Spin Scale   =       1.2000000000000000 [-]
	 SCS Same-Spin Energy      =      -0.1625110345302490 [Eh]
	 SCS Opposite-Spin Energy  =      -1.8051210075032680 [Eh]
	 SCS Correlation Energy    =      -1.9676320420335169 [Eh]
	 SCS Total Energy          =    -799.2858905170148773 [Eh]
	-----------------------------------------------------------

  Dipole Moment: [D]
     X:    -1.4923      Y:    -3.7335      Z:    -1.1480     Total:     4.1814

*** Psi4 exiting successfully. Buy a developer a beer!
