                               Psi4 1.4a3.dev225

  ==> Input File <==

--------------------------------------------------------------------------
#psi4
#
memory 32 gb

molecule  {
0 1
  S       -0.8053760     1.6060500    -0.1399530
  O        2.1464270     1.2641370     0.3857660
  N        2.2049820    -0.9697390    -0.1110850
  C       -2.1414430    -0.6044570     0.0238790
  C        0.0884765     0.1215920     0.0369877
  C       -0.7695060    -0.9522330     0.1212440
  C       -2.2969850     0.7606620    -0.1265510
  C        1.5543500     0.2131940     0.1149440
  C       -3.2736380    -1.5890470     0.0915590
  C        3.6575090    -0.9906510    -0.1565210
  H       -0.4188890    -1.9677560     0.2899290
  H       -3.2284760     1.3059560    -0.2284190
  H       -3.2707310    -2.1282860     1.0440440
  H       -4.2368380    -1.0812090    -0.0045560
  H       -3.2021610    -2.3307440    -0.7101950
  H        1.7010110    -1.6882330    -0.6139760
  H        4.0494680    -0.5484410    -1.0790020
  H        3.9975300    -2.0243190    -0.0750760
  H        4.0378180    -0.4153140     0.6868970
units angstrom
no_reorient  #important for SAPT in psi4, default
symmetry c1  #important for SAPT in psi4, default
}

set PROPERTIES_ORIGIN ["COM"]
properties('MP2/aug-cc-pvtz', properties = ['dipole'])
--------------------------------------------------------------------------

    Molecular point group: c1
  Charge       = 0
  Multiplicity = 1
  Basis Set: AUG-CC-PVTZ
    Blend: AUG-CC-PVTZ
  Basis Set: (AUG-CC-PVTZ AUX)
    Blend: AUG-CC-PVTZ-JKFIT

    Orbital Energies [Eh]
    ---------------------

    Doubly Occupied:

       1A    -91.989595     2A    -20.522195     3A    -15.589084
       4A    -11.360575     5A    -11.275055     6A    -11.270281
       7A    -11.260443     8A    -11.258044     9A    -11.254180
      10A    -11.238591    11A     -8.989051    12A     -6.669908
      13A     -6.669339    14A     -6.668653    15A     -1.376621
      16A     -1.232071    17A     -1.182472    18A     -1.046319
      19A     -1.008603    20A     -0.955070    21A     -0.921737
      22A     -0.830229    23A     -0.768962    24A     -0.750849
      25A     -0.709703    26A     -0.644183    27A     -0.629084
      28A     -0.620181    29A     -0.594614    30A     -0.591106
      31A     -0.568935    32A     -0.551500    33A     -0.549437
      34A     -0.535544    35A     -0.520785    36A     -0.499965
      37A     -0.476753    38A     -0.435244    39A     -0.398976
      40A     -0.349621    41A     -0.327582

  @DF-RHF Final Energy:  -797.31916529097623

   => Energetics <=

    Nuclear Repulsion Energy =            587.7959027153175384
    One-Electron Energy =               -2260.0478544796865208
    Two-Electron Energy =                 874.9327864733928664
    Total Energy =                       -797.3191652909762297
  Basis Set: (AUG-CC-PVTZ AUX)
    Blend: AUG-CC-PVTZ-RI
    Molecular point group: c1

    Geometry (in Angstrom), charge = 0, multiplicity = 1:

       Center              X                  Y                   Z               Mass
    ------------   -----------------  -----------------  -----------------  -----------------
         S           -0.809944663091     1.538103670394    -0.144538381925    31.972071174400
         O            2.141858336909     1.196190670394     0.381180618075    15.994914619570
         N            2.200413336909    -1.037685329606    -0.115670381925    14.003074004430
         C           -2.146011663091    -0.672403329606     0.019293618075    12.000000000000
         C            0.083907836909     0.053645670394     0.032402318075    12.000000000000
         C           -0.774074663091    -1.020179329606     0.116658618075    12.000000000000
         C           -2.301553663091     0.692715670394    -0.131136381925    12.000000000000
         C            1.549781336909     0.145247670394     0.110358618075    12.000000000000
         C           -3.278206663091    -1.656993329606     0.086973618075    12.000000000000
         C            3.652940336909    -1.058597329606    -0.161106381925    12.000000000000
         H           -0.423457663091    -2.035702329606     0.285343618075     1.007825032230
         H           -3.233044663091     1.238009670394    -0.233004381925     1.007825032230
         H           -3.275299663091    -2.196232329606     1.039458618075     1.007825032230
         H           -4.241406663091    -1.149155329606    -0.009141381925     1.007825032230
         H           -3.206729663091    -2.398690329606    -0.714780381925     1.007825032230
         H            1.696442336909    -1.756179329606    -0.618561381925     1.007825032230
         H            4.044899336909    -0.616387329606    -1.083587381925     1.007825032230
         H            3.992961336909    -2.092265329606    -0.079661381925     1.007825032230
         H            4.033249336909    -0.483260329606     0.682311618075     1.007825032230

  Basis Set: AUG-CC-PVTZ
    Blend: AUG-CC-PVTZ
  Basis Set: (AUG-CC-PVTZ AUX)
    Blend: AUG-CC-PVTZ-JKFIT
	 Reference Energy          =    -797.3191652909762297 [Eh]
	 Singles Energy            =      -0.0000000000000000 [Eh]
	 Same-Spin Energy          =      -0.4869268412986749 [Eh]
	 Opposite-Spin Energy      =      -1.5038867607791420 [Eh]
	 Correlation Energy        =      -1.9908136020778169 [Eh]
	 Total Energy              =    -799.3099788930539944 [Eh]

	 ================> DF-SCS-MP2 Energies <==================
	-----------------------------------------------------------
	 SCS Same-Spin Scale       =       0.3333333333333333 [-]
	 SCS Opposite-Spin Scale   =       1.2000000000000000 [-]
	 SCS Same-Spin Energy      =      -0.1623089470995583 [Eh]
	 SCS Opposite-Spin Energy  =      -1.8046641129349703 [Eh]
	 SCS Correlation Energy    =      -1.9669730600345285 [Eh]
	 SCS Total Energy          =    -799.2861383510107771 [Eh]
	-----------------------------------------------------------

  Dipole Moment: [D]
     X:    -1.5055      Y:    -3.7766      Z:    -1.1402     Total:     4.2225

*** Psi4 exiting successfully. Buy a developer a beer!
