                               Psi4 1.4a3.dev225

  ==> Input File <==

--------------------------------------------------------------------------
#psi4
#
memory 32 gb

molecule  {
0 1
  S       -0.7001960     1.6641224    -0.1428008
  O        2.1464270     1.2641370     0.3857660
  N        2.2049820    -0.9697390    -0.1110850
  C       -2.1414430    -0.6044570     0.0238790
  C        0.0782130     0.1386370     0.0349560
  C       -0.7695060    -0.9522330     0.1212440
  C       -2.2969850     0.7606620    -0.1265510
  C        1.5543500     0.2131940     0.1149440
  C       -3.2736380    -1.5890470     0.0915590
  C        3.6575090    -0.9906510    -0.1565210
  H       -0.4188890    -1.9677560     0.2899290
  H       -3.2284760     1.3059560    -0.2284190
  H       -3.2707310    -2.1282860     1.0440440
  H       -4.2368380    -1.0812090    -0.0045560
  H       -3.2021610    -2.3307440    -0.7101950
  H        1.7010110    -1.6882330    -0.6139760
  H        4.0494680    -0.5484410    -1.0790020
  H        3.9975300    -2.0243190    -0.0750760
  H        4.0378180    -0.4153140     0.6868970
units angstrom
no_reorient  #important for SAPT in psi4, default
symmetry c1  #important for SAPT in psi4, default
}

set PROPERTIES_ORIGIN ["COM"]
properties('MP2/aug-cc-pvtz', properties = ['dipole'])
--------------------------------------------------------------------------

    Molecular point group: c1
  Charge       = 0
  Multiplicity = 1
  Basis Set: AUG-CC-PVTZ
    Blend: AUG-CC-PVTZ
  Basis Set: (AUG-CC-PVTZ AUX)
    Blend: AUG-CC-PVTZ-JKFIT

    Orbital Energies [Eh]
    ---------------------

    Doubly Occupied:

       1A    -91.992078     2A    -20.523198     3A    -15.589434
       4A    -11.360151     5A    -11.277861     6A    -11.276492
       7A    -11.260653     8A    -11.258948     9A    -11.257895
      10A    -11.240834    11A     -8.989688    12A     -6.670486
      13A     -6.669701    14A     -6.669137    15A     -1.377762
      16A     -1.231949    17A     -1.172049    18A     -1.049620
      19A     -0.991777    20A     -0.953757    21A     -0.926158
      22A     -0.829381    23A     -0.769039    24A     -0.745254
      25A     -0.708111    26A     -0.644148    27A     -0.629351
      28A     -0.617068    29A     -0.595508    30A     -0.591694
      31A     -0.565483    32A     -0.551561    33A     -0.549134
      34A     -0.535405    35A     -0.515115    36A     -0.493422
      37A     -0.476136    38A     -0.435039    39A     -0.399387
      40A     -0.348787    41A     -0.326593

  @DF-RHF Final Energy:  -797.31031837386729

   => Energetics <=

    Nuclear Repulsion Energy =            585.6022694891299807
    One-Electron Energy =               -2255.6946872713597259
    Two-Electron Energy =                 872.7820994083625692
    Total Energy =                       -797.3103183738672897
  Basis Set: (AUG-CC-PVTZ AUX)
    Blend: AUG-CC-PVTZ-RI
    Molecular point group: c1

    Geometry (in Angstrom), charge = 0, multiplicity = 1:

       Center              X                  Y                   Z               Mass
    ------------   -----------------  -----------------  -----------------  -----------------
         S           -0.725660240426     1.582881253206    -0.146641663716    31.972071174400
         O            2.120962759574     1.182895853206     0.381925136284    15.994914619570
         N            2.179517759574    -1.050980146794    -0.114925863716    14.003074004430
         C           -2.166907240426    -0.685698146794     0.020038136284    12.000000000000
         C            0.052748759574     0.057395853206     0.031115136284    12.000000000000
         C           -0.794970240426    -1.033474146794     0.117403136284    12.000000000000
         C           -2.322449240426     0.679420853206    -0.130391863716    12.000000000000
         C            1.528885759574     0.131952853206     0.111103136284    12.000000000000
         C           -3.299102240426    -1.670288146794     0.087718136284    12.000000000000
         C            3.632044759574    -1.071892146794    -0.160361863716    12.000000000000
         H           -0.444353240426    -2.048997146794     0.286088136284     1.007825032230
         H           -3.253940240426     1.224714853206    -0.232259863716     1.007825032230
         H           -3.296195240426    -2.209527146794     1.040203136284     1.007825032230
         H           -4.262302240426    -1.162450146794    -0.008396863716     1.007825032230
         H           -3.227625240426    -2.411985146794    -0.714035863716     1.007825032230
         H            1.675546759574    -1.769474146794    -0.617816863716     1.007825032230
         H            4.024003759574    -0.629682146794    -1.082842863716     1.007825032230
         H            3.972065759574    -2.105560146794    -0.078916863716     1.007825032230
         H            4.012353759574    -0.496555146794     0.683056136284     1.007825032230

  Basis Set: AUG-CC-PVTZ
    Blend: AUG-CC-PVTZ
  Basis Set: (AUG-CC-PVTZ AUX)
    Blend: AUG-CC-PVTZ-JKFIT
	 Reference Energy          =    -797.3103183738672897 [Eh]
	 Singles Energy            =      -0.0000000000000000 [Eh]
	 Same-Spin Energy          =      -0.4864406062366141 [Eh]
	 Opposite-Spin Energy      =      -1.5056354924190676 [Eh]
	 Correlation Energy        =      -1.9920760986556818 [Eh]
	 Total Energy              =    -799.3023944725230194 [Eh]

	 ================> DF-SCS-MP2 Energies <==================
	-----------------------------------------------------------
	 SCS Same-Spin Scale       =       0.3333333333333333 [-]
	 SCS Opposite-Spin Scale   =       1.2000000000000000 [-]
	 SCS Same-Spin Energy      =      -0.1621468687455380 [Eh]
	 SCS Opposite-Spin Energy  =      -1.8067625909028810 [Eh]
	 SCS Correlation Energy    =      -1.9689094596484191 [Eh]
	 SCS Total Energy          =    -799.2792278335157334 [Eh]
	-----------------------------------------------------------

  Dipole Moment: [D]
     X:    -1.4466      Y:    -3.8332      Z:    -1.1272     Total:     4.2493

*** Psi4 exiting successfully. Buy a developer a beer!
