                               Psi4 1.4a3.dev225

  ==> Input File <==

--------------------------------------------------------------------------
#psi4
#
memory 32 gb

molecule  {
0 1
  S       -0.8053760     1.6060500    -0.1399530
  O        2.1464270     1.2641370     0.3857660
  N        2.2107193    -1.0145909    -0.0202749
  C       -2.1414430    -0.6044570     0.0238790
  C        0.0782130     0.1386370     0.0349560
  C       -0.7695060    -0.9522330     0.1212440
  C       -2.2969850     0.7606620    -0.1265510
  C        1.5543500     0.2131940     0.1149440
  C       -3.2736380    -1.5890470     0.0915590
  C        3.6575090    -0.9906510    -0.1565210
  H       -0.4188890    -1.9677560     0.2899290
  H       -3.2284760     1.3059560    -0.2284190
  H       -3.2707310    -2.1282860     1.0440440
  H       -4.2368380    -1.0812090    -0.0045560
  H       -3.2021610    -2.3307440    -0.7101950
  H        1.7010110    -1.6882330    -0.6139760
  H        4.0494680    -0.5484410    -1.0790020
  H        3.9975300    -2.0243190    -0.0750760
  H        4.0378180    -0.4153140     0.6868970
units angstrom
no_reorient  #important for SAPT in psi4, default
symmetry c1  #important for SAPT in psi4, default
}

set PROPERTIES_ORIGIN ["COM"]
properties('MP2/aug-cc-pvtz', properties = ['dipole'])
--------------------------------------------------------------------------

    Molecular point group: c1
  Charge       = 0
  Multiplicity = 1
  Basis Set: AUG-CC-PVTZ
    Blend: AUG-CC-PVTZ
  Basis Set: (AUG-CC-PVTZ AUX)
    Blend: AUG-CC-PVTZ-JKFIT

    Orbital Energies [Eh]
    ---------------------

    Doubly Occupied:

       1A    -91.991513     2A    -20.529117     3A    -15.590401
       4A    -11.364726     5A    -11.276045     6A    -11.270696
       7A    -11.258591     8A    -11.257917     9A    -11.254915
      10A    -11.238886    11A     -8.991284    12A     -6.672154
      13A     -6.671604    14A     -6.670891    15A     -1.378209
      16A     -1.225403    17A     -1.184520    18A     -1.047456
      19A     -1.007532    20A     -0.950841    21A     -0.922032
      22A     -0.827743    23A     -0.757540    24A     -0.750332
      25A     -0.709159    26A     -0.645242    27A     -0.630838
      28A     -0.614604    29A     -0.595172    30A     -0.591209
      31A     -0.567386    32A     -0.548889    33A     -0.546553
      34A     -0.535564    35A     -0.524160    36A     -0.501144
      37A     -0.479645    38A     -0.438424    39A     -0.403198
      40A     -0.349162    41A     -0.329118

  @DF-RHF Final Energy:  -797.31534977147101

   => Energetics <=

    Nuclear Repulsion Energy =            587.1308092421379570
    One-Electron Energy =               -2258.6926844333047484
    Two-Electron Energy =                 874.2465254196957858
    Total Energy =                       -797.3153497714710056
  Basis Set: (AUG-CC-PVTZ AUX)
    Blend: AUG-CC-PVTZ-RI
    Molecular point group: c1

    Geometry (in Angstrom), charge = 0, multiplicity = 1:

       Center              X                  Y                   Z               Mass
    ------------   -----------------  -----------------  -----------------  -----------------
         S           -0.809668463211     1.540835372857    -0.152582991370    31.972071174400
         O            2.142134536789     1.198922372857     0.373136008630    15.994914619570
         N            2.206426836789    -1.079805527143    -0.032904891370    14.003074004430
         C           -2.145735463211    -0.669671627143     0.011249008630    12.000000000000
         C            0.073920536789     0.073422372857     0.022326008630    12.000000000000
         C           -0.773798463211    -1.017447627143     0.108614008630    12.000000000000
         C           -2.301277463211     0.695447372857    -0.139180991370    12.000000000000
         C            1.550057536789     0.147979372857     0.102314008630    12.000000000000
         C           -3.277930463211    -1.654261627143     0.078929008630    12.000000000000
         C            3.653216536789    -1.055865627143    -0.169150991370    12.000000000000
         H           -0.423181463211    -2.032970627143     0.277299008630     1.007825032230
         H           -3.232768463211     1.240741372857    -0.241048991370     1.007825032230
         H           -3.275023463211    -2.193500627143     1.031414008630     1.007825032230
         H           -4.241130463211    -1.146423627143    -0.017185991370     1.007825032230
         H           -3.206453463211    -2.395958627143    -0.722824991370     1.007825032230
         H            1.696718536789    -1.753447627143    -0.626605991370     1.007825032230
         H            4.045175536789    -0.613655627143    -1.091631991370     1.007825032230
         H            3.993237536789    -2.089533627143    -0.087705991370     1.007825032230
         H            4.033525536789    -0.480528627143     0.674267008630     1.007825032230

  Basis Set: AUG-CC-PVTZ
    Blend: AUG-CC-PVTZ
  Basis Set: (AUG-CC-PVTZ AUX)
    Blend: AUG-CC-PVTZ-JKFIT
	 Reference Energy          =    -797.3153497714710056 [Eh]
	 Singles Energy            =      -0.0000000000000000 [Eh]
	 Same-Spin Energy          =      -0.4872111700505335 [Eh]
	 Opposite-Spin Energy      =      -1.5048840139899022 [Eh]
	 Correlation Energy        =      -1.9920951840404357 [Eh]
	 Total Energy              =    -799.3074449555114143 [Eh]

	 ================> DF-SCS-MP2 Energies <==================
	-----------------------------------------------------------
	 SCS Same-Spin Scale       =       0.3333333333333333 [-]
	 SCS Opposite-Spin Scale   =       1.2000000000000000 [-]
	 SCS Same-Spin Energy      =      -0.1624037233501778 [Eh]
	 SCS Opposite-Spin Energy  =      -1.8058608167878827 [Eh]
	 SCS Correlation Energy    =      -1.9682645401380605 [Eh]
	 SCS Total Energy          =    -799.2836143116090852 [Eh]
	-----------------------------------------------------------

  Dipole Moment: [D]
     X:    -1.6542      Y:    -3.4624      Z:    -1.2531     Total:     4.0367

*** Psi4 exiting successfully. Buy a developer a beer!
