                               Psi4 1.4a3.dev225

  ==> Input File <==

--------------------------------------------------------------------------
#psi4
#
memory 32 gb

molecule  {
0 1
  S       -0.8053760     1.6060500    -0.1399530
  O        2.1464270     1.2641370     0.3857660
  N        2.2049820    -0.9697390    -0.1110850
  C       -2.1414430    -0.6044570     0.0238790
  C        0.1874147     0.0458463     0.0563510
  C       -0.7695060    -0.9522330     0.1212440
  C       -2.2969850     0.7606620    -0.1265510
  C        1.5543500     0.2131940     0.1149440
  C       -3.2736380    -1.5890470     0.0915590
  C        3.6575090    -0.9906510    -0.1565210
  H       -0.4188890    -1.9677560     0.2899290
  H       -3.2284760     1.3059560    -0.2284190
  H       -3.2707310    -2.1282860     1.0440440
  H       -4.2368380    -1.0812090    -0.0045560
  H       -3.2021610    -2.3307440    -0.7101950
  H        1.7010110    -1.6882330    -0.6139760
  H        4.0494680    -0.5484410    -1.0790020
  H        3.9975300    -2.0243190    -0.0750760
  H        4.0378180    -0.4153140     0.6868970
units angstrom
no_reorient  #important for SAPT in psi4, default
symmetry c1  #important for SAPT in psi4, default
}

set PROPERTIES_ORIGIN ["COM"]
properties('MP2/aug-cc-pvtz', properties = ['dipole'])
--------------------------------------------------------------------------

    Molecular point group: c1
  Charge       = 0
  Multiplicity = 1
  Basis Set: AUG-CC-PVTZ
    Blend: AUG-CC-PVTZ
  Basis Set: (AUG-CC-PVTZ AUX)
    Blend: AUG-CC-PVTZ-JKFIT

    Orbital Energies [Eh]
    ---------------------

    Doubly Occupied:

       1A    -91.986599     2A    -20.520013     3A    -15.585740
       4A    -11.353388     5A    -11.280187     6A    -11.277943
       7A    -11.271194     8A    -11.258256     9A    -11.257343
      10A    -11.241594    11A     -8.984724    12A     -6.665545
      13A     -6.664788    14A     -6.664288    15A     -1.377118
      16A     -1.233433    17A     -1.174930    18A     -1.052344
      19A     -1.012736    20A     -0.960188    21A     -0.918426
      22A     -0.844634    23A     -0.769686    24A     -0.756428
      25A     -0.710789    26A     -0.644890    27A     -0.629555
      28A     -0.619291    29A     -0.599539    30A     -0.593140
      31A     -0.575245    32A     -0.551620    33A     -0.549902
      34A     -0.541636    35A     -0.509496    36A     -0.493889
      37A     -0.458833    38A     -0.435460    39A     -0.398479
      40A     -0.354807    41A     -0.324930

  @DF-RHF Final Energy:  -797.29688869806000

   => Energetics <=

    Nuclear Repulsion Energy =            587.0638412040364074
    One-Electron Energy =               -2258.5154035202931482
    Two-Electron Energy =                 874.1546736181967390
    Total Energy =                       -797.2968886980600018
  Basis Set: (AUG-CC-PVTZ AUX)
    Blend: AUG-CC-PVTZ-RI
    Molecular point group: c1

    Geometry (in Angstrom), charge = 0, multiplicity = 1:

       Center              X                  Y                   Z               Mass
    ------------   -----------------  -----------------  -----------------  -----------------
         S           -0.817602394550     1.543966322330    -0.146037084666    31.972071174400
         O            2.134200605450     1.202053322330     0.379681915334    15.994914619570
         N            2.192755605450    -1.031822677670    -0.117169084666    14.003074004430
         C           -2.153669394550    -0.666540677670     0.017794915334    12.000000000000
         C            0.175188305450    -0.016237377670     0.050266915334    12.000000000000
         C           -0.781732394550    -1.014316677670     0.115159915334    12.000000000000
         C           -2.309211394550     0.698578322330    -0.132635084666    12.000000000000
         C            1.542123605450     0.151110322330     0.108859915334    12.000000000000
         C           -3.285864394550    -1.651130677670     0.085474915334    12.000000000000
         C            3.645282605450    -1.052734677670    -0.162605084666    12.000000000000
         H           -0.431115394550    -2.029839677670     0.283844915334     1.007825032230
         H           -3.240702394550     1.243872322330    -0.234503084666     1.007825032230
         H           -3.282957394550    -2.190369677670     1.037959915334     1.007825032230
         H           -4.249064394550    -1.143292677670    -0.010640084666     1.007825032230
         H           -3.214387394550    -2.392827677670    -0.716279084666     1.007825032230
         H            1.688784605450    -1.750316677670    -0.620060084666     1.007825032230
         H            4.037241605450    -0.610524677670    -1.085086084666     1.007825032230
         H            3.985303605450    -2.086402677670    -0.081160084666     1.007825032230
         H            4.025591605450    -0.477397677670     0.680812915334     1.007825032230

  Basis Set: AUG-CC-PVTZ
    Blend: AUG-CC-PVTZ
  Basis Set: (AUG-CC-PVTZ AUX)
    Blend: AUG-CC-PVTZ-JKFIT
	 Reference Energy          =    -797.2968886980600018 [Eh]
	 Singles Energy            =      -0.0000000000000000 [Eh]
	 Same-Spin Energy          =      -0.4882904036986613 [Eh]
	 Opposite-Spin Energy      =      -1.5068221592714615 [Eh]
	 Correlation Energy        =      -1.9951125629701227 [Eh]
	 Total Energy              =    -799.2920012610301228 [Eh]

	 ================> DF-SCS-MP2 Energies <==================
	-----------------------------------------------------------
	 SCS Same-Spin Scale       =       0.3333333333333333 [-]
	 SCS Opposite-Spin Scale   =       1.2000000000000000 [-]
	 SCS Same-Spin Energy      =      -0.1627634678995538 [Eh]
	 SCS Opposite-Spin Energy  =      -1.8081865911257538 [Eh]
	 SCS Correlation Energy    =      -1.9709500590253075 [Eh]
	 SCS Total Energy          =    -799.2678387570853147 [Eh]
	-----------------------------------------------------------

  Dipole Moment: [D]
     X:    -1.7210      Y:    -3.9333      Z:    -1.1268     Total:     4.4388

*** Psi4 exiting successfully. Buy a developer a beer!
