                               Psi4 1.4a3.dev225

  ==> Input File <==

--------------------------------------------------------------------------
#psi4
#
memory 32 gb

molecule  {
0 1
  S       -0.8053760     1.6060500    -0.1399530
  O        2.1464270     1.2641370     0.3857660
  N        2.2049820    -0.9697390    -0.1110850
  C       -2.0964625    -0.4644031     0.0035674
  C        0.0782130     0.1386370     0.0349560
  C       -0.7695060    -0.9522330     0.1212440
  C       -2.2969850     0.7606620    -0.1265510
  C        1.5543500     0.2131940     0.1149440
  C       -3.2736380    -1.5890470     0.0915590
  C        3.6575090    -0.9906510    -0.1565210
  H       -0.4188890    -1.9677560     0.2899290
  H       -3.2284760     1.3059560    -0.2284190
  H       -3.2707310    -2.1282860     1.0440440
  H       -4.2368380    -1.0812090    -0.0045560
  H       -3.2021610    -2.3307440    -0.7101950
  H        1.7010110    -1.6882330    -0.6139760
  H        4.0494680    -0.5484410    -1.0790020
  H        3.9975300    -2.0243190    -0.0750760
  H        4.0378180    -0.4153140     0.6868970
units angstrom
no_reorient  #important for SAPT in psi4, default
symmetry c1  #important for SAPT in psi4, default
}

set PROPERTIES_ORIGIN ["COM"]
properties('MP2/aug-cc-pvtz', properties = ['dipole'])
--------------------------------------------------------------------------

    Molecular point group: c1
  Charge       = 0
  Multiplicity = 1
  Basis Set: AUG-CC-PVTZ
    Blend: AUG-CC-PVTZ
  Basis Set: (AUG-CC-PVTZ AUX)
    Blend: AUG-CC-PVTZ-JKFIT

    Orbital Energies [Eh]
    ---------------------

    Doubly Occupied:

       1A    -91.982501     2A    -20.523998     3A    -15.591357
       4A    -11.361891     5A    -11.278126     6A    -11.261922
       7A    -11.257234     8A    -11.251152     9A    -11.242919
      10A    -11.240440    11A     -8.983265    12A     -6.664144
      13A     -6.663658    14A     -6.662749    15A     -1.378064
      16A     -1.233717    17A     -1.201169    18A     -1.042531
      19A     -1.004972    20A     -0.954525    21A     -0.924135
      22A     -0.838149    23A     -0.771816    24A     -0.752248
      25A     -0.702003    26A     -0.646305    27A     -0.628892
      28A     -0.621027    29A     -0.604062    30A     -0.584350
      31A     -0.573908    32A     -0.552692    33A     -0.550262
      34A     -0.538423    35A     -0.512126    36A     -0.501268
      37A     -0.465009    38A     -0.430690    39A     -0.400102
      40A     -0.350787    41A     -0.345404

  @DF-RHF Final Energy:  -797.29461745357298

   => Energetics <=

    Nuclear Repulsion Energy =            589.9514555685326513
    One-Electron Energy =               -2264.3441561878566972
    Two-Electron Energy =                 877.0980831657509498
    Total Energy =                       -797.2946174535729824
  Basis Set: (AUG-CC-PVTZ AUX)
    Blend: AUG-CC-PVTZ-RI
    Molecular point group: c1

    Geometry (in Angstrom), charge = 0, multiplicity = 1:

       Center              X                  Y                   Z               Mass
    ------------   -----------------  -----------------  -----------------  -----------------
         S           -0.812631728988     1.525944350853    -0.142809029751    31.972071174400
         O            2.139171271012     1.184031350853     0.382909970249    15.994914619570
         N            2.197726271012    -1.049844649147    -0.113941029751    14.003074004430
         C           -2.103718228988    -0.544508749147     0.000711370249    12.000000000000
         C            0.070957271012     0.058531350853     0.032099970249    12.000000000000
         C           -0.776761728988    -1.032338649147     0.118387970249    12.000000000000
         C           -2.304240728988     0.680556350853    -0.129407029751    12.000000000000
         C            1.547094271012     0.133088350853     0.112087970249    12.000000000000
         C           -3.280893728988    -1.669152649147     0.088702970249    12.000000000000
         C            3.650253271012    -1.070756649147    -0.159377029751    12.000000000000
         H           -0.426144728988    -2.047861649147     0.287072970249     1.007825032230
         H           -3.235731728988     1.225850350853    -0.231275029751     1.007825032230
         H           -3.277986728988    -2.208391649147     1.041187970249     1.007825032230
         H           -4.244093728988    -1.161314649147    -0.007412029751     1.007825032230
         H           -3.209416728988    -2.410849649147    -0.713051029751     1.007825032230
         H            1.693755271012    -1.768338649147    -0.616832029751     1.007825032230
         H            4.042212271012    -0.628546649147    -1.081858029751     1.007825032230
         H            3.990274271012    -2.104424649147    -0.077932029751     1.007825032230
         H            4.030562271012    -0.495419649147     0.684040970249     1.007825032230

  Basis Set: AUG-CC-PVTZ
    Blend: AUG-CC-PVTZ
  Basis Set: (AUG-CC-PVTZ AUX)
    Blend: AUG-CC-PVTZ-JKFIT
	 Reference Energy          =    -797.2946174535729824 [Eh]
	 Singles Energy            =      -0.0000000000000000 [Eh]
	 Same-Spin Energy          =      -0.4847102087819922 [Eh]
	 Opposite-Spin Energy      =      -1.5011549109045506 [Eh]
	 Correlation Energy        =      -1.9858651196865429 [Eh]
	 Total Energy              =    -799.2804825732595191 [Eh]

	 ================> DF-SCS-MP2 Energies <==================
	-----------------------------------------------------------
	 SCS Same-Spin Scale       =       0.3333333333333333 [-]
	 SCS Opposite-Spin Scale   =       1.2000000000000000 [-]
	 SCS Same-Spin Energy      =      -0.1615700695939974 [Eh]
	 SCS Opposite-Spin Energy  =      -1.8013858930854605 [Eh]
	 SCS Correlation Energy    =      -1.9629559626794579 [Eh]
	 SCS Total Energy          =    -799.2575734162523986 [Eh]
	-----------------------------------------------------------

  Dipole Moment: [D]
     X:    -1.3321      Y:    -3.7311      Z:    -1.1393     Total:     4.1224

*** Psi4 exiting successfully. Buy a developer a beer!
