                               Psi4 1.4a3.dev225

  ==> Input File <==

--------------------------------------------------------------------------
#psi4
#
memory 32 gb

molecule  {
0 1
  S       -0.6461511     1.6903878    -0.1439006
  O        2.1464270     1.2641370     0.3857660
  N        2.2049820    -0.9697390    -0.1110850
  C       -2.1414430    -0.6044570     0.0238790
  C        0.0782130     0.1386370     0.0349560
  C       -0.7695060    -0.9522330     0.1212440
  C       -2.2969850     0.7606620    -0.1265510
  C        1.5543500     0.2131940     0.1149440
  C       -3.2736380    -1.5890470     0.0915590
  C        3.6575090    -0.9906510    -0.1565210
  H       -0.4188890    -1.9677560     0.2899290
  H       -3.2284760     1.3059560    -0.2284190
  H       -3.2707310    -2.1282860     1.0440440
  H       -4.2368380    -1.0812090    -0.0045560
  H       -3.2021610    -2.3307440    -0.7101950
  H        1.7010110    -1.6882330    -0.6139760
  H        4.0494680    -0.5484410    -1.0790020
  H        3.9975300    -2.0243190    -0.0750760
  H        4.0378180    -0.4153140     0.6868970
units angstrom
no_reorient  #important for SAPT in psi4, default
symmetry c1  #important for SAPT in psi4, default
}

set PROPERTIES_ORIGIN ["COM"]
properties('MP2/aug-cc-pvtz', properties = ['dipole'])
--------------------------------------------------------------------------

    Molecular point group: c1
  Charge       = 0
  Multiplicity = 1
  Basis Set: AUG-CC-PVTZ
    Blend: AUG-CC-PVTZ
  Basis Set: (AUG-CC-PVTZ AUX)
    Blend: AUG-CC-PVTZ-JKFIT

    Orbital Energies [Eh]
    ---------------------

    Doubly Occupied:

       1A    -91.992519     2A    -20.523824     3A    -15.589444
       4A    -11.359796     5A    -11.279748     6A    -11.279100
       7A    -11.260635     8A    -11.260571     9A    -11.258767
      10A    -11.242040    11A     -8.989395    12A     -6.670154
      13A     -6.669253    14A     -6.668726    15A     -1.378521
      16A     -1.232046    17A     -1.167886    18A     -1.051038
      19A     -0.985429    20A     -0.953786    21A     -0.927337
      22A     -0.829488    23A     -0.769204    24A     -0.743666
      25A     -0.707473    26A     -0.644318    27A     -0.629590
      28A     -0.615787    29A     -0.596341    30A     -0.592240
      31A     -0.565162    32A     -0.551533    33A     -0.549202
      34A     -0.535887    35A     -0.512429    36A     -0.490438
      37A     -0.470822    38A     -0.434946    39A     -0.399677
      40A     -0.350946    41A     -0.324208

  @DF-RHF Final Energy:  -797.30141481329565

   => Energetics <=

    Nuclear Repulsion Energy =            584.6525648071498154
    One-Electron Energy =               -2253.8012143490932431
    Two-Electron Energy =                 871.8472347286478907
    Total Energy =                       -797.3014148132956507
  Basis Set: (AUG-CC-PVTZ AUX)
    Blend: AUG-CC-PVTZ-RI
    Molecular point group: c1

    Geometry (in Angstrom), charge = 0, multiplicity = 1:

       Center              X                  Y                   Z               Mass
    ------------   -----------------  -----------------  -----------------  -----------------
         S           -0.682760348057     1.603730266397    -0.147514665639    31.972071174400
         O            2.109817751943     1.177479466397     0.382151934361    15.994914619570
         N            2.168372751943    -1.056396533603    -0.114699065639    14.003074004430
         C           -2.178052248057    -0.691114533603     0.020264934361    12.000000000000
         C            0.041603751943     0.051979466397     0.031341934361    12.000000000000
         C           -0.806115248057    -1.038890533603     0.117629934361    12.000000000000
         C           -2.333594248057     0.674004466397    -0.130165065639    12.000000000000
         C            1.517740751943     0.126536466397     0.111329934361    12.000000000000
         C           -3.310247248057    -1.675704533603     0.087944934361    12.000000000000
         C            3.620899751943    -1.077308533603    -0.160135065639    12.000000000000
         H           -0.455498248057    -2.054413533603     0.286314934361     1.007825032230
         H           -3.265085248057     1.219298466397    -0.232033065639     1.007825032230
         H           -3.307340248057    -2.214943533603     1.040429934361     1.007825032230
         H           -4.273447248057    -1.167866533603    -0.008170065639     1.007825032230
         H           -3.238770248057    -2.417401533603    -0.713809065639     1.007825032230
         H            1.664401751943    -1.774890533603    -0.617590065639     1.007825032230
         H            4.012858751943    -0.635098533603    -1.082616065639     1.007825032230
         H            3.960920751943    -2.110976533603    -0.078690065639     1.007825032230
         H            4.001208751943    -0.501971533603     0.683282934361     1.007825032230

  Basis Set: AUG-CC-PVTZ
    Blend: AUG-CC-PVTZ
  Basis Set: (AUG-CC-PVTZ AUX)
    Blend: AUG-CC-PVTZ-JKFIT
	 Reference Energy          =    -797.3014148132956507 [Eh]
	 Singles Energy            =      -0.0000000000000000 [Eh]
	 Same-Spin Energy          =      -0.4863695759027022 [Eh]
	 Opposite-Spin Energy      =      -1.5068499098802677 [Eh]
	 Correlation Energy        =      -1.9932194857829699 [Eh]
	 Total Energy              =    -799.2946342990786661 [Eh]

	 ================> DF-SCS-MP2 Energies <==================
	-----------------------------------------------------------
	 SCS Same-Spin Scale       =       0.3333333333333333 [-]
	 SCS Opposite-Spin Scale   =       1.2000000000000000 [-]
	 SCS Same-Spin Energy      =      -0.1621231919675674 [Eh]
	 SCS Opposite-Spin Energy  =      -1.8082198918563210 [Eh]
	 SCS Correlation Energy    =      -1.9703430838238885 [Eh]
	 SCS Total Energy          =    -799.2717578971195280 [Eh]
	-----------------------------------------------------------

  Dipole Moment: [D]
     X:    -1.4287      Y:    -3.8787      Z:    -1.1171     Total:     4.2818

*** Psi4 exiting successfully. Buy a developer a beer!
