                               Psi4 1.4a3.dev225

  ==> Input File <==

--------------------------------------------------------------------------
#psi4
#
memory 32 gb

molecule  {
0 1
  S       -0.8053760     1.6060500    -0.1399530
  O        2.1464270     1.2641370     0.3857660
  N        2.2052816    -1.0202672    -0.1065722
  C       -2.1414430    -0.6044570     0.0238790
  C        0.0782130     0.1386370     0.0349560
  C       -0.7695060    -0.9522330     0.1212440
  C       -2.2969850     0.7606620    -0.1265510
  C        1.5543500     0.2131940     0.1149440
  C       -3.2736380    -1.5890470     0.0915590
  C        3.6575090    -0.9906510    -0.1565210
  H       -0.4188890    -1.9677560     0.2899290
  H       -3.2284760     1.3059560    -0.2284190
  H       -3.2707310    -2.1282860     1.0440440
  H       -4.2368380    -1.0812090    -0.0045560
  H       -3.2021610    -2.3307440    -0.7101950
  H        1.7010110    -1.6882330    -0.6139760
  H        4.0494680    -0.5484410    -1.0790020
  H        3.9975300    -2.0243190    -0.0750760
  H        4.0378180    -0.4153140     0.6868970
units angstrom
no_reorient  #important for SAPT in psi4, default
symmetry c1  #important for SAPT in psi4, default
}

set PROPERTIES_ORIGIN ["COM"]
properties('MP2/aug-cc-pvtz', properties = ['dipole'])
--------------------------------------------------------------------------

    Molecular point group: c1
  Charge       = 0
  Multiplicity = 1
  Basis Set: AUG-CC-PVTZ
    Blend: AUG-CC-PVTZ
  Basis Set: (AUG-CC-PVTZ AUX)
    Blend: AUG-CC-PVTZ-JKFIT

    Orbital Energies [Eh]
    ---------------------

    Doubly Occupied:

       1A    -91.991283     2A    -20.529895     3A    -15.585119
       4A    -11.366604     5A    -11.275782     6A    -11.270345
       7A    -11.258344     8A    -11.258311     9A    -11.254776
      10A    -11.238797    11A     -8.991062    12A     -6.671932
      13A     -6.671380    14A     -6.670667    15A     -1.377300
      16A     -1.227433    17A     -1.184319    18A     -1.047230
      19A     -1.007115    20A     -0.950330    21A     -0.922276
      22A     -0.833117    23A     -0.764609    24A     -0.750899
      25A     -0.709147    26A     -0.642672    27A     -0.630459
      28A     -0.616973    29A     -0.595538    30A     -0.591376
      31A     -0.570004    32A     -0.552222    33A     -0.549203
      34A     -0.535346    35A     -0.522494    36A     -0.500808
      37A     -0.479463    38A     -0.437580    39A     -0.399648
      40A     -0.349010    41A     -0.328814

  @DF-RHF Final Energy:  -797.31598630096232

   => Energetics <=

    Nuclear Repulsion Energy =            587.0621526097301057
    One-Electron Energy =               -2258.5369152995040167
    Two-Electron Energy =                 874.1587763888114750
    Total Energy =                       -797.3159863009623223
  Basis Set: (AUG-CC-PVTZ AUX)
    Blend: AUG-CC-PVTZ-RI
    Molecular point group: c1

    Geometry (in Angstrom), charge = 0, multiplicity = 1:

       Center              X                  Y                   Z               Mass
    ------------   -----------------  -----------------  -----------------  -----------------
         S           -0.809177336551     1.541348049587    -0.144788720876    31.972071174400
         O            2.142625663449     1.199435049587     0.380930279124    15.994914619570
         N            2.201480263449    -1.084969150413    -0.111407920876    14.003074004430
         C           -2.145244336551    -0.669158950413     0.019043279124    12.000000000000
         C            0.074411663449     0.073935049587     0.030120279124    12.000000000000
         C           -0.773307336551    -1.016934950413     0.116408279124    12.000000000000
         C           -2.300786336551     0.695960049587    -0.131386720876    12.000000000000
         C            1.550548663449     0.148492049587     0.110108279124    12.000000000000
         C           -3.277439336551    -1.653748950413     0.086723279124    12.000000000000
         C            3.653707663449    -1.055352950413    -0.161356720876    12.000000000000
         H           -0.422690336551    -2.032457950413     0.285093279124     1.007825032230
         H           -3.232277336551     1.241254049587    -0.233254720876     1.007825032230
         H           -3.274532336551    -2.192987950413     1.039208279124     1.007825032230
         H           -4.240639336551    -1.145910950413    -0.009391720876     1.007825032230
         H           -3.205962336551    -2.395445950413    -0.715030720876     1.007825032230
         H            1.697209663449    -1.752934950413    -0.618811720876     1.007825032230
         H            4.045666663449    -0.613142950413    -1.083837720876     1.007825032230
         H            3.993728663449    -2.089020950413    -0.079911720876     1.007825032230
         H            4.034016663449    -0.480015950413     0.682061279124     1.007825032230

  Basis Set: AUG-CC-PVTZ
    Blend: AUG-CC-PVTZ
  Basis Set: (AUG-CC-PVTZ AUX)
    Blend: AUG-CC-PVTZ-JKFIT
	 Reference Energy          =    -797.3159863009623223 [Eh]
	 Singles Energy            =      -0.0000000000000000 [Eh]
	 Same-Spin Energy          =      -0.4869919707195501 [Eh]
	 Opposite-Spin Energy      =      -1.5042262450659061 [Eh]
	 Correlation Energy        =      -1.9912182157854561 [Eh]
	 Total Energy              =    -799.3072045167477881 [Eh]

	 ================> DF-SCS-MP2 Energies <==================
	-----------------------------------------------------------
	 SCS Same-Spin Scale       =       0.3333333333333333 [-]
	 SCS Opposite-Spin Scale   =       1.2000000000000000 [-]
	 SCS Same-Spin Energy      =      -0.1623306569065167 [Eh]
	 SCS Opposite-Spin Energy  =      -1.8050714940790873 [Eh]
	 SCS Correlation Energy    =      -1.9674021509856039 [Eh]
	 SCS Total Energy          =    -799.2833884519478715 [Eh]
	-----------------------------------------------------------

  Dipole Moment: [D]
     X:    -1.6256      Y:    -3.5049      Z:    -1.1297     Total:     4.0253

*** Psi4 exiting successfully. Buy a developer a beer!
