                               Psi4 1.4a3.dev225

  ==> Input File <==

--------------------------------------------------------------------------
#psi4
#
memory 32 gb

molecule  {
0 1
  S       -0.8053760     1.6060500    -0.1399530
  O        2.1464270     1.2641370     0.3857660
  N        2.2049820    -0.9697390    -0.1110850
  C       -2.1349788    -0.5808080     0.0204135
  C        0.0782130     0.1386370     0.0349560
  C       -0.7695060    -0.9522330     0.1212440
  C       -2.2969850     0.7606620    -0.1265510
  C        1.5543500     0.2131940     0.1149440
  C       -3.2736380    -1.5890470     0.0915590
  C        3.6575090    -0.9906510    -0.1565210
  H       -0.4188890    -1.9677560     0.2899290
  H       -3.2284760     1.3059560    -0.2284190
  H       -3.2707310    -2.1282860     1.0440440
  H       -4.2368380    -1.0812090    -0.0045560
  H       -3.2021610    -2.3307440    -0.7101950
  H        1.7010110    -1.6882330    -0.6139760
  H        4.0494680    -0.5484410    -1.0790020
  H        3.9975300    -2.0243190    -0.0750760
  H        4.0378180    -0.4153140     0.6868970
units angstrom
no_reorient  #important for SAPT in psi4, default
symmetry c1  #important for SAPT in psi4, default
}

set PROPERTIES_ORIGIN ["COM"]
properties('MP2/aug-cc-pvtz', properties = ['dipole'])
--------------------------------------------------------------------------

    Molecular point group: c1
  Charge       = 0
  Multiplicity = 1
  Basis Set: AUG-CC-PVTZ
    Blend: AUG-CC-PVTZ
  Basis Set: (AUG-CC-PVTZ AUX)
    Blend: AUG-CC-PVTZ-JKFIT

    Orbital Energies [Eh]
    ---------------------

    Doubly Occupied:

       1A    -91.989021     2A    -20.522273     3A    -15.589739
       4A    -11.361083     5A    -11.275495     6A    -11.266262
       7A    -11.260883     8A    -11.257111     9A    -11.252129
      10A    -11.238812    11A     -8.988938    12A     -6.669811
      13A     -6.669268    14A     -6.668526    15A     -1.376666
      16A     -1.232102    17A     -1.185973    18A     -1.044399
      19A     -1.007636    20A     -0.953815    21A     -0.923498
      22A     -0.830416    23A     -0.769222    24A     -0.750320
      25A     -0.707835    26A     -0.644441    27A     -0.628777
      28A     -0.620558    29A     -0.594268    30A     -0.589445
      31A     -0.568666    32A     -0.551834    33A     -0.549161
      34A     -0.535052    35A     -0.521763    36A     -0.502058
      37A     -0.477267    38A     -0.434539    39A     -0.399085
      40A     -0.347822    41A     -0.331588

  @DF-RHF Final Energy:  -797.31995815853088

   => Energetics <=

    Nuclear Repulsion Energy =            588.2316219333346226
    One-Electron Energy =               -2260.9280458145362900
    Two-Electron Energy =                 875.3764657226706731
    Total Energy =                       -797.3199581585308806
  Basis Set: (AUG-CC-PVTZ AUX)
    Blend: AUG-CC-PVTZ-RI
    Molecular point group: c1

    Geometry (in Angstrom), charge = 0, multiplicity = 1:

       Center              X                  Y                   Z               Mass
    ------------   -----------------  -----------------  -----------------  -----------------
         S           -0.809650600544     1.534953989847    -0.144112903380    31.972071174400
         O            2.142152399456     1.193040989847     0.381606096620    15.994914619570
         N            2.200707399456    -1.040835010153    -0.115244903380    14.003074004430
         C           -2.139253400544    -0.651904010153     0.016253596620    12.000000000000
         C            0.073938399456     0.067540989847     0.030796096620    12.000000000000
         C           -0.773780600544    -1.023329010153     0.117084096620    12.000000000000
         C           -2.301259600544     0.689565989847    -0.130710903380    12.000000000000
         C            1.550075399456     0.142097989847     0.110784096620    12.000000000000
         C           -3.277912600544    -1.660143010153     0.087399096620    12.000000000000
         C            3.653234399456    -1.061747010153    -0.160680903380    12.000000000000
         H           -0.423163600544    -2.038852010153     0.285769096620     1.007825032230
         H           -3.232750600544     1.234859989847    -0.232578903380     1.007825032230
         H           -3.275005600544    -2.199382010153     1.039884096620     1.007825032230
         H           -4.241112600544    -1.152305010153    -0.008715903380     1.007825032230
         H           -3.206435600544    -2.401840010153    -0.714354903380     1.007825032230
         H            1.696736399456    -1.759329010153    -0.618135903380     1.007825032230
         H            4.045193399456    -0.619537010153    -1.083161903380     1.007825032230
         H            3.993255399456    -2.095415010153    -0.079235903380     1.007825032230
         H            4.033543399456    -0.486410010153     0.682737096620     1.007825032230

  Basis Set: AUG-CC-PVTZ
    Blend: AUG-CC-PVTZ
  Basis Set: (AUG-CC-PVTZ AUX)
    Blend: AUG-CC-PVTZ-JKFIT
	 Reference Energy          =    -797.3199581585308806 [Eh]
	 Singles Energy            =      -0.0000000000000000 [Eh]
	 Same-Spin Energy          =      -0.4864789160554803 [Eh]
	 Opposite-Spin Energy      =      -1.5031234913699261 [Eh]
	 Correlation Energy        =      -1.9896024074254064 [Eh]
	 Total Energy              =    -799.3095605659563034 [Eh]

	 ================> DF-SCS-MP2 Energies <==================
	-----------------------------------------------------------
	 SCS Same-Spin Scale       =       0.3333333333333333 [-]
	 SCS Opposite-Spin Scale   =       1.2000000000000000 [-]
	 SCS Same-Spin Energy      =      -0.1621596386851601 [Eh]
	 SCS Opposite-Spin Energy  =      -1.8037481896439111 [Eh]
	 SCS Correlation Energy    =      -1.9659078283290712 [Eh]
	 SCS Total Energy          =    -799.2858659868599034 [Eh]
	-----------------------------------------------------------

  Dipole Moment: [D]
     X:    -1.4644      Y:    -3.7427      Z:    -1.1443     Total:     4.1787

*** Psi4 exiting successfully. Buy a developer a beer!
