                               Psi4 1.4a3.dev225

  ==> Input File <==

--------------------------------------------------------------------------
#psi4
#
memory 32 gb

molecule  {
0 1
  S       -0.8053760     1.6060500    -0.1399530
  O        2.1464270     1.2641370     0.3857660
  N        2.2049820    -0.9697390    -0.1110850
  C       -2.1414430    -0.6044570     0.0238790
  C        0.0782130     0.1386370     0.0349560
  C       -0.6728005    -0.9767471     0.1281071
  C       -2.2969850     0.7606620    -0.1265510
  C        1.5543500     0.2131940     0.1149440
  C       -3.2736380    -1.5890470     0.0915590
  C        3.6575090    -0.9906510    -0.1565210
  H       -0.4188890    -1.9677560     0.2899290
  H       -3.2284760     1.3059560    -0.2284190
  H       -3.2707310    -2.1282860     1.0440440
  H       -4.2368380    -1.0812090    -0.0045560
  H       -3.2021610    -2.3307440    -0.7101950
  H        1.7010110    -1.6882330    -0.6139760
  H        4.0494680    -0.5484410    -1.0790020
  H        3.9975300    -2.0243190    -0.0750760
  H        4.0378180    -0.4153140     0.6868970
units angstrom
no_reorient  #important for SAPT in psi4, default
symmetry c1  #important for SAPT in psi4, default
}

set PROPERTIES_ORIGIN ["COM"]
properties('MP2/aug-cc-pvtz', properties = ['dipole'])
--------------------------------------------------------------------------

    Molecular point group: c1
  Charge       = 0
  Multiplicity = 1
  Basis Set: AUG-CC-PVTZ
    Blend: AUG-CC-PVTZ
  Basis Set: (AUG-CC-PVTZ AUX)
    Blend: AUG-CC-PVTZ-JKFIT

    Orbital Energies [Eh]
    ---------------------

    Doubly Occupied:

       1A    -91.986489     2A    -20.522327     3A    -15.589522
       4A    -11.359440     5A    -11.275096     6A    -11.267096
       7A    -11.261659     8A    -11.260909     9A    -11.257617
      10A    -11.238306    11A     -8.986670    12A     -6.667645
      13A     -6.666979    14A     -6.666171    15A     -1.376649
      16A     -1.232410    17A     -1.176705    18A     -1.045051
      19A     -1.011270    20A     -0.952987    21A     -0.918985
      22A     -0.828871    23A     -0.767841    24A     -0.752147
      25A     -0.715150    26A     -0.644362    27A     -0.628688
      28A     -0.618471    29A     -0.594566    30A     -0.588720
      31A     -0.573475    32A     -0.552548    33A     -0.550396
      34A     -0.530664    35A     -0.519199    36A     -0.498331
      37A     -0.478830    38A     -0.432279    39A     -0.398903
      40A     -0.350529    41A     -0.327783

  @DF-RHF Final Energy:  -797.31239429894538

   => Energetics <=

    Nuclear Repulsion Energy =            587.4748016931935126
    One-Electron Energy =               -2259.4309161798037167
    Two-Electron Energy =                 874.6437201876648260
    Total Energy =                       -797.3123942989453781
  Basis Set: (AUG-CC-PVTZ AUX)
    Blend: AUG-CC-PVTZ-RI
    Molecular point group: c1

    Geometry (in Angstrom), charge = 0, multiplicity = 1:

       Center              X                  Y                   Z               Mass
    ------------   -----------------  -----------------  -----------------  -----------------
         S           -0.816635199434     1.538681772301    -0.144912328123    31.972071174400
         O            2.135167800566     1.196768772301     0.380806671877    15.994914619570
         N            2.193722800566    -1.037107227699    -0.116044328123    14.003074004430
         C           -2.152702199434    -0.671825227699     0.018919671877    12.000000000000
         C            0.066953800566     0.071268772301     0.029996671877    12.000000000000
         C           -0.684059699434    -1.044115327699     0.123147771877    12.000000000000
         C           -2.308244199434     0.693293772301    -0.131510328123    12.000000000000
         C            1.543090800566     0.145825772301     0.109984671877    12.000000000000
         C           -3.284897199434    -1.656415227699     0.086599671877    12.000000000000
         C            3.646249800566    -1.058019227699    -0.161480328123    12.000000000000
         H           -0.430148199434    -2.035124227699     0.284969671877     1.007825032230
         H           -3.239735199434     1.238587772301    -0.233378328123     1.007825032230
         H           -3.281990199434    -2.195654227699     1.039084671877     1.007825032230
         H           -4.248097199434    -1.148577227699    -0.009515328123     1.007825032230
         H           -3.213420199434    -2.398112227699    -0.715154328123     1.007825032230
         H            1.689751800566    -1.755601227699    -0.618935328123     1.007825032230
         H            4.038208800566    -0.615809227699    -1.083961328123     1.007825032230
         H            3.986270800566    -2.091687227699    -0.080035328123     1.007825032230
         H            4.026558800566    -0.482682227699     0.681937671877     1.007825032230

  Basis Set: AUG-CC-PVTZ
    Blend: AUG-CC-PVTZ
  Basis Set: (AUG-CC-PVTZ AUX)
    Blend: AUG-CC-PVTZ-JKFIT
	 Reference Energy          =    -797.3123942989453781 [Eh]
	 Singles Energy            =      -0.0000000000000000 [Eh]
	 Same-Spin Energy          =      -0.4848362977959193 [Eh]
	 Opposite-Spin Energy      =      -1.5022921453393860 [Eh]
	 Correlation Energy        =      -1.9871284431353053 [Eh]
	 Total Energy              =    -799.2995227420807396 [Eh]

	 ================> DF-SCS-MP2 Energies <==================
	-----------------------------------------------------------
	 SCS Same-Spin Scale       =       0.3333333333333333 [-]
	 SCS Opposite-Spin Scale   =       1.2000000000000000 [-]
	 SCS Same-Spin Energy      =      -0.1616120992653064 [Eh]
	 SCS Opposite-Spin Energy  =      -1.8027505744072632 [Eh]
	 SCS Correlation Energy    =      -1.9643626736725697 [Eh]
	 SCS Total Energy          =    -799.2767569726179318 [Eh]
	-----------------------------------------------------------

  Dipole Moment: [D]
     X:    -1.4919      Y:    -3.8140      Z:    -1.1313     Total:     4.2488

*** Psi4 exiting successfully. Buy a developer a beer!
