                               Psi4 1.4a3.dev225

  ==> Input File <==

--------------------------------------------------------------------------
#psi4
#
memory 32 gb

molecule  {
0 1
  S       -0.8053760     1.6060500    -0.1399530
  O        2.1464270     1.2641370     0.3857660
  N        2.2073505    -1.0707594    -0.1021202
  C       -2.1414430    -0.6044570     0.0238790
  C        0.0782130     0.1386370     0.0349560
  C       -0.7695060    -0.9522330     0.1212440
  C       -2.2969850     0.7606620    -0.1265510
  C        1.5543500     0.2131940     0.1149440
  C       -3.2736380    -1.5890470     0.0915590
  C        3.6575090    -0.9906510    -0.1565210
  H       -0.4188890    -1.9677560     0.2899290
  H       -3.2284760     1.3059560    -0.2284190
  H       -3.2707310    -2.1282860     1.0440440
  H       -4.2368380    -1.0812090    -0.0045560
  H       -3.2021610    -2.3307440    -0.7101950
  H        1.7010110    -1.6882330    -0.6139760
  H        4.0494680    -0.5484410    -1.0790020
  H        3.9975300    -2.0243190    -0.0750760
  H        4.0378180    -0.4153140     0.6868970
units angstrom
no_reorient  #important for SAPT in psi4, default
symmetry c1  #important for SAPT in psi4, default
}

set PROPERTIES_ORIGIN ["COM"]
properties('MP2/aug-cc-pvtz', properties = ['dipole'])
--------------------------------------------------------------------------

    Molecular point group: c1
  Charge       = 0
  Multiplicity = 1
  Basis Set: AUG-CC-PVTZ
    Blend: AUG-CC-PVTZ
  Basis Set: (AUG-CC-PVTZ AUX)
    Blend: AUG-CC-PVTZ-JKFIT

    Orbital Energies [Eh]
    ---------------------

    Doubly Occupied:

       1A    -91.992148     2A    -20.537355     3A    -15.581059
       4A    -11.371655     5A    -11.276628     6A    -11.271563
       7A    -11.259434     8A    -11.256377     9A    -11.255553
      10A    -11.239286    11A     -8.991956    12A     -6.672829
      13A     -6.672275    14A     -6.671561    15A     -1.378966
      16A     -1.223330    17A     -1.185089    18A     -1.047842
      19A     -1.007160    20A     -0.947616    21A     -0.922007
      22A     -0.837038    23A     -0.759524    24A     -0.751721
      25A     -0.709467    26A     -0.641988    27A     -0.633301
      28A     -0.612862    29A     -0.597093    30A     -0.591795
      31A     -0.573215    32A     -0.551334    33A     -0.548949
      34A     -0.536020    35A     -0.520589    36A     -0.501100
      37A     -0.480611    38A     -0.439385    39A     -0.400081
      40A     -0.349770    41A     -0.329755

  @DF-RHF Final Energy:  -797.30718314820547

   => Energetics <=

    Nuclear Repulsion Energy =            586.1942701716540114
    One-Electron Energy =               -2256.7483348399805436
    Two-Electron Energy =                 873.2468815201211783
    Total Energy =                       -797.3071831482054677
  Basis Set: (AUG-CC-PVTZ AUX)
    Blend: AUG-CC-PVTZ-RI
    Molecular point group: c1

    Geometry (in Angstrom), charge = 0, multiplicity = 1:

       Center              X                  Y                   Z               Mass
    ------------   -----------------  -----------------  -----------------  -----------------
         S           -0.809364197162     1.545908445621    -0.145190820272    31.972071174400
         O            2.142438802838     1.203995445621     0.380528179728    15.994914619570
         N            2.203362302838    -1.130900954379    -0.107358020272    14.003074004430
         C           -2.145431197162    -0.664598554379     0.018641179728    12.000000000000
         C            0.074224802838     0.078495445621     0.029718179728    12.000000000000
         C           -0.773494197162    -1.012374554379     0.116006179728    12.000000000000
         C           -2.300973197162     0.700520445621    -0.131788820272    12.000000000000
         C            1.550361802838     0.153052445621     0.109706179728    12.000000000000
         C           -3.277626197162    -1.649188554379     0.086321179728    12.000000000000
         C            3.653520802838    -1.050792554379    -0.161758820272    12.000000000000
         H           -0.422877197162    -2.027897554379     0.284691179728     1.007825032230
         H           -3.232464197162     1.245814445621    -0.233656820272     1.007825032230
         H           -3.274719197162    -2.188427554379     1.038806179728     1.007825032230
         H           -4.240826197162    -1.141350554379    -0.009793820272     1.007825032230
         H           -3.206149197162    -2.390885554379    -0.715432820272     1.007825032230
         H            1.697022802838    -1.748374554379    -0.619213820272     1.007825032230
         H            4.045479802838    -0.608582554379    -1.084239820272     1.007825032230
         H            3.993541802838    -2.084460554379    -0.080313820272     1.007825032230
         H            4.033829802838    -0.475455554379     0.681659179728     1.007825032230

  Basis Set: AUG-CC-PVTZ
    Blend: AUG-CC-PVTZ
  Basis Set: (AUG-CC-PVTZ AUX)
    Blend: AUG-CC-PVTZ-JKFIT
	 Reference Energy          =    -797.3071831482054677 [Eh]
	 Singles Energy            =      -0.0000000000000000 [Eh]
	 Same-Spin Energy          =      -0.4870633375608447 [Eh]
	 Opposite-Spin Energy      =      -1.5049396970551727 [Eh]
	 Correlation Energy        =      -1.9920030346160176 [Eh]
	 Total Energy              =    -799.2991861828214724 [Eh]

	 ================> DF-SCS-MP2 Energies <==================
	-----------------------------------------------------------
	 SCS Same-Spin Scale       =       0.3333333333333333 [-]
	 SCS Opposite-Spin Scale   =       1.2000000000000000 [-]
	 SCS Same-Spin Energy      =      -0.1623544458536149 [Eh]
	 SCS Opposite-Spin Energy  =      -1.8059276364662071 [Eh]
	 SCS Correlation Energy    =      -1.9682820823198219 [Eh]
	 SCS Total Energy          =    -799.2754652305252421 [Eh]
	-----------------------------------------------------------

  Dipole Moment: [D]
     X:    -1.7656      Y:    -3.2578      Z:    -1.1169     Total:     3.8702

*** Psi4 exiting successfully. Buy a developer a beer!
