                               Psi4 1.4a3.dev225

  ==> Input File <==

--------------------------------------------------------------------------
#psi4
#
memory 32 gb

molecule  {
0 1
  S       -0.8053760     1.6060500    -0.1399530
  O        2.1464270     1.2641370     0.3857660
  N        2.2077821    -1.0551743    -0.2369268
  C       -2.1414430    -0.6044570     0.0238790
  C        0.0782130     0.1386370     0.0349560
  C       -0.7695060    -0.9522330     0.1212440
  C       -2.2969850     0.7606620    -0.1265510
  C        1.5543500     0.2131940     0.1149440
  C       -3.2736380    -1.5890470     0.0915590
  C        3.6575090    -0.9906510    -0.1565210
  H       -0.4188890    -1.9677560     0.2899290
  H       -3.2284760     1.3059560    -0.2284190
  H       -3.2707310    -2.1282860     1.0440440
  H       -4.2368380    -1.0812090    -0.0045560
  H       -3.2021610    -2.3307440    -0.7101950
  H        1.7010110    -1.6882330    -0.6139760
  H        4.0494680    -0.5484410    -1.0790020
  H        3.9975300    -2.0243190    -0.0750760
  H        4.0378180    -0.4153140     0.6868970
units angstrom
no_reorient  #important for SAPT in psi4, default
symmetry c1  #important for SAPT in psi4, default
}

set PROPERTIES_ORIGIN ["COM"]
properties('MP2/aug-cc-pvtz', properties = ['dipole'])
--------------------------------------------------------------------------

    Molecular point group: c1
  Charge       = 0
  Multiplicity = 1
  Basis Set: AUG-CC-PVTZ
    Blend: AUG-CC-PVTZ
  Basis Set: (AUG-CC-PVTZ AUX)
    Blend: AUG-CC-PVTZ-JKFIT

    Orbital Energies [Eh]
    ---------------------

    Doubly Occupied:

       1A    -91.991984     2A    -20.537568     3A    -15.574858
       4A    -11.373627     5A    -11.276645     6A    -11.271118
       7A    -11.259197     8A    -11.257666     9A    -11.255433
      10A    -11.239209    11A     -8.991790    12A     -6.672662
      13A     -6.672108    14A     -6.671391    15A     -1.378402
      16A     -1.226837    17A     -1.185015    18A     -1.047643
      19A     -1.006801    20A     -0.948461    21A     -0.924317
      22A     -0.843912    23A     -0.765359    24A     -0.751874
      25A     -0.709572    26A     -0.640269    27A     -0.632118
      28A     -0.617356    29A     -0.598058    30A     -0.591954
      31A     -0.577909    32A     -0.552041    33A     -0.549856
      34A     -0.535784    35A     -0.518322    36A     -0.500645
      37A     -0.480384    38A     -0.437540    39A     -0.394917
      40A     -0.349668    41A     -0.329403

  @DF-RHF Final Energy:  -797.29232913540523

   => Energetics <=

    Nuclear Repulsion Energy =            586.1772400222361057
    One-Electron Energy =               -2256.6597897836309130
    Two-Electron Energy =                 873.1902206259894683
    Total Energy =                       -797.2923291354052253
  Basis Set: (AUG-CC-PVTZ AUX)
    Blend: AUG-CC-PVTZ-RI
    Molecular point group: c1

    Geometry (in Angstrom), charge = 0, multiplicity = 1:

       Center              X                  Y                   Z               Mass
    ------------   -----------------  -----------------  -----------------  -----------------
         S           -0.809403178766     1.544500817745    -0.133015246937    31.972071174400
         O            2.142399821234     1.202587817745     0.392703753063    15.994914619570
         N            2.203754921234    -1.116723482255    -0.229989046937    14.003074004430
         C           -2.145470178766    -0.666006182255     0.030816753063    12.000000000000
         C            0.074185821234     0.077087817745     0.041893753063    12.000000000000
         C           -0.773533178766    -1.013782182255     0.128181753063    12.000000000000
         C           -2.301012178766     0.699112817745    -0.119613246937    12.000000000000
         C            1.550322821234     0.151644817745     0.121881753063    12.000000000000
         C           -3.277665178766    -1.650596182255     0.098496753063    12.000000000000
         C            3.653481821234    -1.052200182255    -0.149583246937    12.000000000000
         H           -0.422916178766    -2.029305182255     0.296866753063     1.007825032230
         H           -3.232503178766     1.244406817745    -0.221481246937     1.007825032230
         H           -3.274758178766    -2.189835182255     1.050981753063     1.007825032230
         H           -4.240865178766    -1.142758182255     0.002381753063     1.007825032230
         H           -3.206188178766    -2.392293182255    -0.703257246937     1.007825032230
         H            1.696983821234    -1.749782182255    -0.607038246937     1.007825032230
         H            4.045440821234    -0.609990182255    -1.072064246937     1.007825032230
         H            3.993502821234    -2.085868182255    -0.068138246937     1.007825032230
         H            4.033790821234    -0.476863182255     0.693834753063     1.007825032230

  Basis Set: AUG-CC-PVTZ
    Blend: AUG-CC-PVTZ
  Basis Set: (AUG-CC-PVTZ AUX)
    Blend: AUG-CC-PVTZ-JKFIT
	 Reference Energy          =    -797.2923291354052253 [Eh]
	 Singles Energy            =      -0.0000000000000000 [Eh]
	 Same-Spin Energy          =      -0.4871117926298961 [Eh]
	 Opposite-Spin Energy      =      -1.5050162060331405 [Eh]
	 Correlation Energy        =      -1.9921279986630367 [Eh]
	 Total Energy              =    -799.2844571340682478 [Eh]

	 ================> DF-SCS-MP2 Energies <==================
	-----------------------------------------------------------
	 SCS Same-Spin Scale       =       0.3333333333333333 [-]
	 SCS Opposite-Spin Scale   =       1.2000000000000000 [-]
	 SCS Same-Spin Energy      =      -0.1623705975432987 [Eh]
	 SCS Opposite-Spin Energy  =      -1.8060194472397684 [Eh]
	 SCS Correlation Energy    =      -1.9683900447830671 [Eh]
	 SCS Total Energy          =    -799.2607191801882891 [Eh]
	-----------------------------------------------------------

  Dipole Moment: [D]
     X:    -1.7266      Y:    -3.3523      Z:    -0.8738     Total:     3.8707

*** Psi4 exiting successfully. Buy a developer a beer!
