                               Psi4 1.4a3.dev225

  ==> Input File <==

--------------------------------------------------------------------------
#psi4
#
memory 32 gb

molecule  {
0 1
  S       -0.8053760     1.6060500    -0.1399530
  O        2.1464270     1.2641370     0.3857660
  N        2.2049820    -0.9697390    -0.1110850
  C       -2.1414430    -0.6044570     0.0238790
  C        0.1157068     0.1089871     0.0419940
  C       -0.7695060    -0.9522330     0.1212440
  C       -2.2969850     0.7606620    -0.1265510
  C        1.5543500     0.2131940     0.1149440
  C       -3.2736380    -1.5890470     0.0915590
  C        3.6575090    -0.9906510    -0.1565210
  H       -0.4188890    -1.9677560     0.2899290
  H       -3.2284760     1.3059560    -0.2284190
  H       -3.2707310    -2.1282860     1.0440440
  H       -4.2368380    -1.0812090    -0.0045560
  H       -3.2021610    -2.3307440    -0.7101950
  H        1.7010110    -1.6882330    -0.6139760
  H        4.0494680    -0.5484410    -1.0790020
  H        3.9975300    -2.0243190    -0.0750760
  H        4.0378180    -0.4153140     0.6868970
units angstrom
no_reorient  #important for SAPT in psi4, default
symmetry c1  #important for SAPT in psi4, default
}

set PROPERTIES_ORIGIN ["COM"]
properties('MP2/aug-cc-pvtz', properties = ['dipole'])
--------------------------------------------------------------------------

    Molecular point group: c1
  Charge       = 0
  Multiplicity = 1
  Basis Set: AUG-CC-PVTZ
    Blend: AUG-CC-PVTZ
  Basis Set: (AUG-CC-PVTZ AUX)
    Blend: AUG-CC-PVTZ-JKFIT

    Orbital Energies [Eh]
    ---------------------

    Doubly Occupied:

       1A    -91.989567     2A    -20.521324     3A    -15.588146
       4A    -11.358450     5A    -11.275717     6A    -11.272854
       7A    -11.261592     8A    -11.259851     9A    -11.255109
      10A    -11.239412    11A     -8.988597    12A     -6.669438
      13A     -6.668848    14A     -6.668209    15A     -1.376647
      16A     -1.232066    17A     -1.180007    18A     -1.047289
      19A     -1.009791    20A     -0.955615    21A     -0.921301
      22A     -0.834426    23A     -0.769206    24A     -0.751764
      25A     -0.709639    26A     -0.644260    27A     -0.628892
      28A     -0.620086    29A     -0.595891    30A     -0.591611
      31A     -0.570721    32A     -0.551052    33A     -0.549835
      34A     -0.537062    35A     -0.518009    36A     -0.498203
      37A     -0.473203    38A     -0.435929    39A     -0.398649
      40A     -0.350171    41A     -0.327184

  @DF-RHF Final Energy:  -797.31646623425024

   => Energetics <=

    Nuclear Repulsion Energy =            587.6076725361335775
    One-Electron Energy =               -2259.6570324600593267
    Two-Electron Energy =                 874.7328936896755067
    Total Energy =                       -797.3164662342502425
  Basis Set: (AUG-CC-PVTZ AUX)
    Blend: AUG-CC-PVTZ-RI
    Molecular point group: c1

    Geometry (in Angstrom), charge = 0, multiplicity = 1:

       Center              X                  Y                   Z               Mass
    ------------   -----------------  -----------------  -----------------  -----------------
         S           -0.812052264856     1.539079278797    -0.144925865233    31.972071174400
         O            2.139750735144     1.197166278797     0.380793134767    15.994914619570
         N            2.198305735144    -1.036709721203    -0.116057865233    14.003074004430
         C           -2.148119264856    -0.671427721203     0.018906134767    12.000000000000
         C            0.109030535144     0.042016378797     0.037021134767    12.000000000000
         C           -0.776182264856    -1.019203721203     0.116271134767    12.000000000000
         C           -2.303661264856     0.693691278797    -0.131523865233    12.000000000000
         C            1.547673735144     0.146223278797     0.109971134767    12.000000000000
         C           -3.280314264856    -1.656017721203     0.086586134767    12.000000000000
         C            3.650832735144    -1.057621721203    -0.161493865233    12.000000000000
         H           -0.425565264856    -2.034726721203     0.284956134767     1.007825032230
         H           -3.235152264856     1.238985278797    -0.233391865233     1.007825032230
         H           -3.277407264856    -2.195256721203     1.039071134767     1.007825032230
         H           -4.243514264856    -1.148179721203    -0.009528865233     1.007825032230
         H           -3.208837264856    -2.397714721203    -0.715167865233     1.007825032230
         H            1.694334735144    -1.755203721203    -0.618948865233     1.007825032230
         H            4.042791735144    -0.615411721203    -1.083974865233     1.007825032230
         H            3.990853735144    -2.091289721203    -0.080048865233     1.007825032230
         H            4.031141735144    -0.482284721203     0.681924134767     1.007825032230

  Basis Set: AUG-CC-PVTZ
    Blend: AUG-CC-PVTZ
  Basis Set: (AUG-CC-PVTZ AUX)
    Blend: AUG-CC-PVTZ-JKFIT
	 Reference Energy          =    -797.3164662342502425 [Eh]
	 Singles Energy            =      -0.0000000000000000 [Eh]
	 Same-Spin Energy          =      -0.4872336022330797 [Eh]
	 Opposite-Spin Energy      =      -1.5045116979922974 [Eh]
	 Correlation Energy        =      -1.9917453002253771 [Eh]
	 Total Energy              =    -799.3082115344756176 [Eh]

	 ================> DF-SCS-MP2 Energies <==================
	-----------------------------------------------------------
	 SCS Same-Spin Scale       =       0.3333333333333333 [-]
	 SCS Opposite-Spin Scale   =       1.2000000000000000 [-]
	 SCS Same-Spin Energy      =      -0.1624112007443599 [Eh]
	 SCS Opposite-Spin Energy  =      -1.8054140375907568 [Eh]
	 SCS Correlation Energy    =      -1.9678252383351167 [Eh]
	 SCS Total Energy          =    -799.2842914725853234 [Eh]
	-----------------------------------------------------------

  Dipole Moment: [D]
     X:    -1.5800      Y:    -3.8078      Z:    -1.1395     Total:     4.2771

*** Psi4 exiting successfully. Buy a developer a beer!
