                               Psi4 1.4a3.dev225

  ==> Input File <==

--------------------------------------------------------------------------
#psi4
#
memory 32 gb

molecule  {
0 1
  S       -0.8676855     1.7073013    -0.1536606
  O        2.1464270     1.2641370     0.3857660
  N        2.2049820    -0.9697390    -0.1110850
  C       -2.1414430    -0.6044570     0.0238790
  C        0.0782130     0.1386370     0.0349560
  C       -0.7695060    -0.9522330     0.1212440
  C       -2.2969850     0.7606620    -0.1265510
  C        1.5543500     0.2131940     0.1149440
  C       -3.2736380    -1.5890470     0.0915590
  C        3.6575090    -0.9906510    -0.1565210
  H       -0.4188890    -1.9677560     0.2899290
  H       -3.2284760     1.3059560    -0.2284190
  H       -3.2707310    -2.1282860     1.0440440
  H       -4.2368380    -1.0812090    -0.0045560
  H       -3.2021610    -2.3307440    -0.7101950
  H        1.7010110    -1.6882330    -0.6139760
  H        4.0494680    -0.5484410    -1.0790020
  H        3.9975300    -2.0243190    -0.0750760
  H        4.0378180    -0.4153140     0.6868970
units angstrom
no_reorient  #important for SAPT in psi4, default
symmetry c1  #important for SAPT in psi4, default
}

set PROPERTIES_ORIGIN ["COM"]
properties('MP2/aug-cc-pvtz', properties = ['dipole'])
--------------------------------------------------------------------------

    Molecular point group: c1
  Charge       = 0
  Multiplicity = 1
  Basis Set: AUG-CC-PVTZ
    Blend: AUG-CC-PVTZ
  Basis Set: (AUG-CC-PVTZ AUX)
    Blend: AUG-CC-PVTZ-JKFIT

    Orbital Energies [Eh]
    ---------------------

    Doubly Occupied:

       1A    -91.993654     2A    -20.520183     3A    -15.588745
       4A    -11.359603     5A    -11.283638     6A    -11.272228
       7A    -11.263967     8A    -11.260251     9A    -11.254514
      10A    -11.239305    11A     -8.991329    12A     -6.672180
      13A     -6.671352    14A     -6.670829    15A     -1.374299
      16A     -1.230899    17A     -1.172467    18A     -1.038415
      19A     -1.011536    20A     -0.955035    21A     -0.915011
      22A     -0.829743    23A     -0.769388    24A     -0.748009
      25A     -0.709031    26A     -0.642481    27A     -0.627925
      28A     -0.616256    29A     -0.595722    30A     -0.591000
      31A     -0.566973    32A     -0.550318    33A     -0.545355
      34A     -0.535608    35A     -0.510035    36A     -0.495697
      37A     -0.480563    38A     -0.433118    39A     -0.398077
      40A     -0.357080    41A     -0.320849

  @DF-RHF Final Energy:  -797.31091080407987

   => Energetics <=

    Nuclear Repulsion Energy =            582.6498354722401700
    One-Electron Energy =               -2249.7961558434531071
    Two-Electron Energy =                 869.8354095671329560
    Total Energy =                       -797.3109108040798674
  Basis Set: (AUG-CC-PVTZ AUX)
    Blend: AUG-CC-PVTZ-RI
    Molecular point group: c1

    Geometry (in Angstrom), charge = 0, multiplicity = 1:

       Center              X                  Y                   Z               Mass
    ------------   -----------------  -----------------  -----------------  -----------------
         S           -0.858610463721     1.617155905627    -0.155261982213    31.972071174400
         O            2.155502036279     1.173991605627     0.384164617787    15.994914619570
         N            2.214057036279    -1.059884394373    -0.112686382213    14.003074004430
         C           -2.132367963721    -0.694602394373     0.022277617787    12.000000000000
         C            0.087288036279     0.048491605627     0.033354617787    12.000000000000
         C           -0.760430963721    -1.042378394373     0.119642617787    12.000000000000
         C           -2.287909963721     0.670516605627    -0.128152382213    12.000000000000
         C            1.563425036279     0.123048605627     0.113342617787    12.000000000000
         C           -3.264562963721    -1.679192394373     0.089957617787    12.000000000000
         C            3.666584036279    -1.080796394373    -0.158122382213    12.000000000000
         H           -0.409813963721    -2.057901394373     0.288327617787     1.007825032230
         H           -3.219400963721     1.215810605627    -0.230020382213     1.007825032230
         H           -3.261655963721    -2.218431394373     1.042442617787     1.007825032230
         H           -4.227762963721    -1.171354394373    -0.006157382213     1.007825032230
         H           -3.193085963721    -2.420889394373    -0.711796382213     1.007825032230
         H            1.710086036279    -1.778378394373    -0.615577382213     1.007825032230
         H            4.058543036279    -0.638586394373    -1.080603382213     1.007825032230
         H            4.006605036279    -2.114464394373    -0.076677382213     1.007825032230
         H            4.046893036279    -0.505459394373     0.685295617787     1.007825032230

  Basis Set: AUG-CC-PVTZ
    Blend: AUG-CC-PVTZ
  Basis Set: (AUG-CC-PVTZ AUX)
    Blend: AUG-CC-PVTZ-JKFIT
	 Reference Energy          =    -797.3109108040798674 [Eh]
	 Singles Energy            =      -0.0000000000000000 [Eh]
	 Same-Spin Energy          =      -0.4860594499451584 [Eh]
	 Opposite-Spin Energy      =      -1.5049621615753006 [Eh]
	 Correlation Energy        =      -1.9910216115204591 [Eh]
	 Total Energy              =    -799.3019324156002767 [Eh]

	 ================> DF-SCS-MP2 Energies <==================
	-----------------------------------------------------------
	 SCS Same-Spin Scale       =       0.3333333333333333 [-]
	 SCS Opposite-Spin Scale   =       1.2000000000000000 [-]
	 SCS Same-Spin Energy      =      -0.1620198166483861 [Eh]
	 SCS Opposite-Spin Energy  =      -1.8059545938903607 [Eh]
	 SCS Correlation Energy    =      -1.9679744105387469 [Eh]
	 SCS Total Energy          =    -799.2788852146186400 [Eh]
	-----------------------------------------------------------

  Dipole Moment: [D]
     X:    -1.5192      Y:    -3.8120      Z:    -1.1385     Total:     4.2586

*** Psi4 exiting successfully. Buy a developer a beer!
