                               Psi4 1.4a3.dev225

  ==> Input File <==

--------------------------------------------------------------------------
#psi4
#
memory 32 gb

molecule  {
0 1
  S       -0.8053760     1.6060500    -0.1399530
  O        2.1464270     1.2641370     0.3857660
  N        2.2049820    -0.9697390    -0.1110850
  C       -2.1414430    -0.6044570     0.0238790
  C        0.0782130     0.1386370     0.0349560
  C       -0.7695060    -0.9522330     0.1212440
  C       -2.2969850     0.7606620    -0.1265510
  C        1.5543500     0.2131940     0.1149440
  C       -3.2359472    -1.5562700     0.0893059
  C        3.6575090    -0.9906510    -0.1565210
  H       -0.4188890    -1.9677560     0.2899290
  H       -3.2284760     1.3059560    -0.2284190
  H       -3.2707310    -2.1282860     1.0440440
  H       -4.2368380    -1.0812090    -0.0045560
  H       -3.2021610    -2.3307440    -0.7101950
  H        1.7010110    -1.6882330    -0.6139760
  H        4.0494680    -0.5484410    -1.0790020
  H        3.9975300    -2.0243190    -0.0750760
  H        4.0378180    -0.4153140     0.6868970
units angstrom
no_reorient  #important for SAPT in psi4, default
symmetry c1  #important for SAPT in psi4, default
}

set PROPERTIES_ORIGIN ["COM"]
properties('MP2/aug-cc-pvtz', properties = ['dipole'])
--------------------------------------------------------------------------

    Molecular point group: c1
  Charge       = 0
  Multiplicity = 1
  Basis Set: AUG-CC-PVTZ
    Blend: AUG-CC-PVTZ
  Basis Set: (AUG-CC-PVTZ AUX)
    Blend: AUG-CC-PVTZ-JKFIT

    Orbital Energies [Eh]
    ---------------------

    Doubly Occupied:

       1A    -91.990619     2A    -20.522160     3A    -15.589605
       4A    -11.361140     5A    -11.275387     6A    -11.269429
       7A    -11.260803     8A    -11.257405     9A    -11.251833
      10A    -11.239912    11A     -8.990377    12A     -6.671247
      13A     -6.670696    14A     -6.669985    15A     -1.376608
      16A     -1.231995    17A     -1.185390    18A     -1.052879
      19A     -1.007985    20A     -0.954117    21A     -0.920568
      22A     -0.829255    23A     -0.769224    24A     -0.751140
      25A     -0.710456    26A     -0.644292    27A     -0.631616
      28A     -0.622640    29A     -0.592691    30A     -0.587124
      31A     -0.572527    32A     -0.552003    33A     -0.548896
      34A     -0.531859    35A     -0.522544    36A     -0.498948
      37A     -0.478609    38A     -0.435225    39A     -0.399045
      40A     -0.348038    41A     -0.327333

  @DF-RHF Final Energy:  -797.31622582867021

   => Energetics <=

    Nuclear Repulsion Energy =            588.8515566482316217
    One-Electron Energy =               -2262.1283542777837283
    Two-Electron Energy =                 875.9605718008820077
    Total Energy =                       -797.3162258286702126
  Basis Set: (AUG-CC-PVTZ AUX)
    Blend: AUG-CC-PVTZ-RI
    Molecular point group: c1

    Geometry (in Angstrom), charge = 0, multiplicity = 1:

       Center              X                  Y                   Z               Mass
    ------------   -----------------  -----------------  -----------------  -----------------
         S           -0.812067512487     1.534247490509    -0.144206742096    31.972071174400
         O            2.139735487513     1.192334490509     0.381512257904    15.994914619570
         N            2.198290487513    -1.041541509491    -0.115338742096    14.003074004430
         C           -2.148134512487    -0.676259509491     0.019625257904    12.000000000000
         C            0.071521487513     0.066834490509     0.030702257904    12.000000000000
         C           -0.776197512487    -1.024035509491     0.116990257904    12.000000000000
         C           -2.303676512487     0.688859490509    -0.130804742096    12.000000000000
         C            1.547658487513     0.141391490509     0.110690257904    12.000000000000
         C           -3.242638712487    -1.628072509491     0.085052157904    12.000000000000
         C            3.650817487513    -1.062453509491    -0.160774742096    12.000000000000
         H           -0.425580512487    -2.039558509491     0.285675257904     1.007825032230
         H           -3.235167512487     1.234153490509    -0.232672742096     1.007825032230
         H           -3.277422512487    -2.200088509491     1.039790257904     1.007825032230
         H           -4.243529512487    -1.153011509491    -0.008809742096     1.007825032230
         H           -3.208852512487    -2.402546509491    -0.714448742096     1.007825032230
         H            1.694319487513    -1.760035509491    -0.618229742096     1.007825032230
         H            4.042776487513    -0.620243509491    -1.083255742096     1.007825032230
         H            3.990838487513    -2.096121509491    -0.079329742096     1.007825032230
         H            4.031126487513    -0.487116509491     0.682643257904     1.007825032230

  Basis Set: AUG-CC-PVTZ
    Blend: AUG-CC-PVTZ
  Basis Set: (AUG-CC-PVTZ AUX)
    Blend: AUG-CC-PVTZ-JKFIT
	 Reference Energy          =    -797.3162258286702126 [Eh]
	 Singles Energy            =      -0.0000000000000000 [Eh]
	 Same-Spin Energy          =      -0.4874999105532738 [Eh]
	 Opposite-Spin Energy      =      -1.5043310455821333 [Eh]
	 Correlation Energy        =      -1.9918309561354071 [Eh]
	 Total Energy              =    -799.3080567848056717 [Eh]

	 ================> DF-SCS-MP2 Energies <==================
	-----------------------------------------------------------
	 SCS Same-Spin Scale       =       0.3333333333333333 [-]
	 SCS Opposite-Spin Scale   =       1.2000000000000000 [-]
	 SCS Same-Spin Energy      =      -0.1624999701844246 [Eh]
	 SCS Opposite-Spin Energy  =      -1.8051972546985597 [Eh]
	 SCS Correlation Energy    =      -1.9676972248829843 [Eh]
	 SCS Total Energy          =    -799.2839230535531669 [Eh]
	-----------------------------------------------------------

  Dipole Moment: [D]
     X:    -1.4778      Y:    -3.7422      Z:    -1.1450     Total:     4.1831

*** Psi4 exiting successfully. Buy a developer a beer!
