                               Psi4 1.4a3.dev225

  ==> Input File <==

--------------------------------------------------------------------------
#psi4
#
memory 32 gb

molecule  {
0 1
  S       -0.8053760     1.6060500    -0.1399530
  O        2.1464270     1.2641370     0.3857660
  N        2.2049820    -0.9697390    -0.1110850
  C       -2.1414430    -0.6044570     0.0238790
  C        0.0782130     0.1386370     0.0349560
  C       -0.7695060    -0.9522330     0.1212440
  C       -2.2969850     0.7606620    -0.1265510
  C        1.5543500     0.2131940     0.1149440
  C       -3.2736380    -1.5890470     0.0915590
  C        3.6575090    -0.9906510    -0.1565210
  H       -0.4188890    -1.9677560     0.2899290
  H       -3.2284760     1.3059560    -0.2284190
  H       -3.2707310    -2.1282860     1.0440440
  H       -4.2368380    -1.0812090    -0.0045560
  H       -3.2021610    -2.3307440    -0.7101950
  H        1.7259232    -1.6527165    -0.5891172
  H        4.0494680    -0.5484410    -1.0790020
  H        3.9975300    -2.0243190    -0.0750760
  H        4.0378180    -0.4153140     0.6868970
units angstrom
no_reorient  #important for SAPT in psi4, default
symmetry c1  #important for SAPT in psi4, default
}

set PROPERTIES_ORIGIN ["COM"]
properties('MP2/aug-cc-pvtz', properties = ['dipole'])
--------------------------------------------------------------------------

    Molecular point group: c1
  Charge       = 0
  Multiplicity = 1
  Basis Set: AUG-CC-PVTZ
    Blend: AUG-CC-PVTZ
  Basis Set: (AUG-CC-PVTZ AUX)
    Blend: AUG-CC-PVTZ-JKFIT

    Orbital Energies [Eh]
    ---------------------

    Doubly Occupied:

       1A    -91.990527     2A    -20.521987     3A    -15.584533
       4A    -11.361001     5A    -11.275095     6A    -11.269322
       7A    -11.260724     8A    -11.257480     9A    -11.254093
      10A    -11.238343    11A     -8.990275    12A     -6.671142
      13A     -6.670592    14A     -6.669880    15A     -1.376905
      16A     -1.238100    17A     -1.183829    18A     -1.046791
      19A     -1.007477    20A     -0.954864    21A     -0.923526
      22A     -0.833729    23A     -0.776338    24A     -0.750319
      25A     -0.709074    26A     -0.645251    27A     -0.629467
      28A     -0.621194    29A     -0.594192    30A     -0.590951
      31A     -0.568518    32A     -0.553890    33A     -0.549518
      34A     -0.534700    35A     -0.523753    36A     -0.500906
      37A     -0.478419    38A     -0.435016    39A     -0.399687
      40A     -0.348404    41A     -0.328088

  @DF-RHF Final Energy:  -797.31916335775281

   => Energetics <=

    Nuclear Repulsion Energy =            588.2128514124507319
    One-Electron Energy =               -2260.8282357238331315
    Two-Electron Energy =                 875.2962209536296996
    Total Energy =                       -797.3191633577528137
  Basis Set: (AUG-CC-PVTZ AUX)
    Blend: AUG-CC-PVTZ-RI
    Molecular point group: c1

    Geometry (in Angstrom), charge = 0, multiplicity = 1:

       Center              X                  Y                   Z               Mass
    ------------   -----------------  -----------------  -----------------  -----------------
         S           -0.809312216275     1.536553530651    -0.144542722217    31.972071174400
         O            2.142490783725     1.194640530651     0.381176277783    15.994914619570
         N            2.201045783725    -1.039235469349    -0.115674722217    14.003074004430
         C           -2.145379216275    -0.673953469349     0.019289277783    12.000000000000
         C            0.074276783725     0.069140530651     0.030366277783    12.000000000000
         C           -0.773442216275    -1.021729469349     0.116654277783    12.000000000000
         C           -2.300921216275     0.691165530651    -0.131140722217    12.000000000000
         C            1.550413783725     0.143697530651     0.110354277783    12.000000000000
         C           -3.277574216275    -1.658543469349     0.086969277783    12.000000000000
         C            3.653572783725    -1.060147469349    -0.161110722217    12.000000000000
         H           -0.422825216275    -2.037252469349     0.285339277783     1.007825032230
         H           -3.232412216275     1.236459530651    -0.233008722217     1.007825032230
         H           -3.274667216275    -2.197782469349     1.039454277783     1.007825032230
         H           -4.240774216275    -1.150705469349    -0.009145722217     1.007825032230
         H           -3.206097216275    -2.400240469349    -0.714784722217     1.007825032230
         H            1.721986983725    -1.722212969349    -0.593706922217     1.007825032230
         H            4.045531783725    -0.617937469349    -1.083591722217     1.007825032230
         H            3.993593783725    -2.093815469349    -0.079665722217     1.007825032230
         H            4.033881783725    -0.484810469349     0.682307277783     1.007825032230

  Basis Set: AUG-CC-PVTZ
    Blend: AUG-CC-PVTZ
  Basis Set: (AUG-CC-PVTZ AUX)
    Blend: AUG-CC-PVTZ-JKFIT
	 Reference Energy          =    -797.3191633577528137 [Eh]
	 Singles Energy            =      -0.0000000000000000 [Eh]
	 Same-Spin Energy          =      -0.4866242922510232 [Eh]
	 Opposite-Spin Energy      =      -1.5029243498086742 [Eh]
	 Correlation Energy        =      -1.9895486420596973 [Eh]
	 Total Energy              =    -799.3087119998125445 [Eh]

	 ================> DF-SCS-MP2 Energies <==================
	-----------------------------------------------------------
	 SCS Same-Spin Scale       =       0.3333333333333333 [-]
	 SCS Opposite-Spin Scale   =       1.2000000000000000 [-]
	 SCS Same-Spin Energy      =      -0.1622080974170077 [Eh]
	 SCS Opposite-Spin Energy  =      -1.8035092197704090 [Eh]
	 SCS Correlation Energy    =      -1.9657173171874167 [Eh]
	 SCS Total Energy          =    -799.2848806749402684 [Eh]
	-----------------------------------------------------------

  Dipole Moment: [D]
     X:    -1.4894      Y:    -3.7191      Z:    -1.1260     Total:     4.1615

*** Psi4 exiting successfully. Buy a developer a beer!
