                               Psi4 1.4a3.dev225

  ==> Input File <==

--------------------------------------------------------------------------
#psi4
#
memory 32 gb

molecule  {
0 1
  S       -0.8053760     1.6060500    -0.1399530
  O        2.1464270     1.2641370     0.3857660
  N        2.2049820    -0.9697390    -0.1110850
  C       -2.1414430    -0.6044570     0.0238790
  C        0.0782130     0.1386370     0.0349560
  C       -0.7695060    -0.9522330     0.1212440
  C       -2.2969850     0.7606620    -0.1265510
  C        1.5543500     0.2131940     0.1149440
  C       -3.2736380    -1.5890470     0.0915590
  C        3.6575090    -0.9906510    -0.1565210
  H       -0.4188890    -1.9677560     0.2899290
  H       -3.2284760     1.3059560    -0.2284190
  H       -3.2707310    -2.1282860     1.0440440
  H       -4.2368380    -1.0812090    -0.0045560
  H       -3.2054261    -2.2968625    -0.6735701
  H        1.7010110    -1.6882330    -0.6139760
  H        4.0494680    -0.5484410    -1.0790020
  H        3.9975300    -2.0243190    -0.0750760
  H        4.0378180    -0.4153140     0.6868970
units angstrom
no_reorient  #important for SAPT in psi4, default
symmetry c1  #important for SAPT in psi4, default
}

set PROPERTIES_ORIGIN ["COM"]
properties('MP2/aug-cc-pvtz', properties = ['dipole'])
--------------------------------------------------------------------------

    Molecular point group: c1
  Charge       = 0
  Multiplicity = 1
  Basis Set: AUG-CC-PVTZ
    Blend: AUG-CC-PVTZ
  Basis Set: (AUG-CC-PVTZ AUX)
    Blend: AUG-CC-PVTZ-JKFIT

    Orbital Energies [Eh]
    ---------------------

    Doubly Occupied:

       1A    -91.990238     2A    -20.521790     3A    -15.589324
       4A    -11.360792     5A    -11.274825     6A    -11.268837
       7A    -11.260613     8A    -11.257138     9A    -11.253616
      10A    -11.232199    11A     -8.989986    12A     -6.670853
      13A     -6.670304    14A     -6.669593    15A     -1.376262
      16A     -1.231701    17A     -1.183434    18A     -1.048110
      19A     -1.007397    20A     -0.954919    21A     -0.925279
      22A     -0.828907    23A     -0.768620    24A     -0.750276
      25A     -0.708764    26A     -0.644036    27A     -0.629474
      28A     -0.621027    29A     -0.599305    30A     -0.592065
      31A     -0.568037    32A     -0.551629    33A     -0.549653
      34A     -0.534594    35A     -0.524243    36A     -0.501164
      37A     -0.478327    38A     -0.434593    39A     -0.398792
      40A     -0.348240    41A     -0.327858

  @DF-RHF Final Energy:  -797.31850266997606

   => Energetics <=

    Nuclear Repulsion Energy =            588.1552193955280927
    One-Electron Energy =               -2260.7538146849042278
    Two-Electron Energy =                 875.2800926194000795
    Total Energy =                       -797.3185026699760556
  Basis Set: (AUG-CC-PVTZ AUX)
    Blend: AUG-CC-PVTZ-RI
    Molecular point group: c1

    Geometry (in Angstrom), charge = 0, multiplicity = 1:

       Center              X                  Y                   Z               Mass
    ------------   -----------------  -----------------  -----------------  -----------------
         S           -0.809129052579     1.536564158804    -0.144619206563    31.972071174400
         O            2.142673947421     1.194651158804     0.381099793437    15.994914619570
         N            2.201228947421    -1.039224841196    -0.115751206563    14.003074004430
         C           -2.145196052579    -0.673942841196     0.019212793437    12.000000000000
         C            0.074459947421     0.069151158804     0.030289793437    12.000000000000
         C           -0.773259052579    -1.021718841196     0.116577793437    12.000000000000
         C           -2.300738052579     0.691176158804    -0.131217206563    12.000000000000
         C            1.550596947421     0.143708158804     0.110277793437    12.000000000000
         C           -3.277391052579    -1.658532841196     0.086892793437    12.000000000000
         C            3.653755947421    -1.060136841196    -0.161187206563    12.000000000000
         H           -0.422642052579    -2.037241841196     0.285262793437     1.007825032230
         H           -3.232229052579     1.236470158804    -0.233085206563     1.007825032230
         H           -3.274484052579    -2.197771841196     1.039377793437     1.007825032230
         H           -4.240591052579    -1.150694841196    -0.009222206563     1.007825032230
         H           -3.209179152579    -2.366348341196    -0.678236306563     1.007825032230
         H            1.697257947421    -1.757718841196    -0.618642206563     1.007825032230
         H            4.045714947421    -0.617926841196    -1.083668206563     1.007825032230
         H            3.993776947421    -2.093804841196    -0.079742206563     1.007825032230
         H            4.034064947421    -0.484799841196     0.682230793437     1.007825032230

  Basis Set: AUG-CC-PVTZ
    Blend: AUG-CC-PVTZ
  Basis Set: (AUG-CC-PVTZ AUX)
    Blend: AUG-CC-PVTZ-JKFIT
	 Reference Energy          =    -797.3185026699760556 [Eh]
	 Singles Energy            =      -0.0000000000000000 [Eh]
	 Same-Spin Energy          =      -0.4870438639532615 [Eh]
	 Opposite-Spin Energy      =      -1.5035583857922887 [Eh]
	 Correlation Energy        =      -1.9906022497455502 [Eh]
	 Total Energy              =    -799.3091049197215625 [Eh]

	 ================> DF-SCS-MP2 Energies <==================
	-----------------------------------------------------------
	 SCS Same-Spin Scale       =       0.3333333333333333 [-]
	 SCS Opposite-Spin Scale   =       1.2000000000000000 [-]
	 SCS Same-Spin Energy      =      -0.1623479546510871 [Eh]
	 SCS Opposite-Spin Energy  =      -1.8042700629507464 [Eh]
	 SCS Correlation Energy    =      -1.9666180176018335 [Eh]
	 SCS Total Energy          =    -799.2851206875778871 [Eh]
	-----------------------------------------------------------

  Dipole Moment: [D]
     X:    -1.5040      Y:    -3.7679      Z:    -1.1564     Total:     4.2186

*** Psi4 exiting successfully. Buy a developer a beer!
