                               Psi4 1.4a3.dev225

  ==> Input File <==

--------------------------------------------------------------------------
#psi4
#
memory 32 gb

molecule  {
0 1
  S       -0.8053760     1.6060500    -0.1399530
  O        2.1464270     1.2641370     0.3857660
  N        2.2162343    -1.0369868     0.0249088
  C       -2.1414430    -0.6044570     0.0238790
  C        0.0782130     0.1386370     0.0349560
  C       -0.7695060    -0.9522330     0.1212440
  C       -2.2969850     0.7606620    -0.1265510
  C        1.5543500     0.2131940     0.1149440
  C       -3.2736380    -1.5890470     0.0915590
  C        3.6575090    -0.9906510    -0.1565210
  H       -0.4188890    -1.9677560     0.2899290
  H       -3.2284760     1.3059560    -0.2284190
  H       -3.2707310    -2.1282860     1.0440440
  H       -4.2368380    -1.0812090    -0.0045560
  H       -3.2021610    -2.3307440    -0.7101950
  H        1.7010110    -1.6882330    -0.6139760
  H        4.0494680    -0.5484410    -1.0790020
  H        3.9975300    -2.0243190    -0.0750760
  H        4.0378180    -0.4153140     0.6868970
units angstrom
no_reorient  #important for SAPT in psi4, default
symmetry c1  #important for SAPT in psi4, default
}

set PROPERTIES_ORIGIN ["COM"]
properties('MP2/aug-cc-pvtz', properties = ['dipole'])
--------------------------------------------------------------------------

    Molecular point group: c1
  Charge       = 0
  Multiplicity = 1
  Basis Set: AUG-CC-PVTZ
    Blend: AUG-CC-PVTZ
  Basis Set: (AUG-CC-PVTZ AUX)
    Blend: AUG-CC-PVTZ-JKFIT

    Orbital Energies [Eh]
    ---------------------

    Doubly Occupied:

       1A    -91.992189     2A    -20.533052     3A    -15.591638
       4A    -11.366808     5A    -11.276768     6A    -11.271633
       7A    -11.259422     8A    -11.256325     9A    -11.255483
      10A    -11.239249    11A     -8.991973    12A     -6.672844
      13A     -6.672294    14A     -6.671579    15A     -1.379363
      16A     -1.221309    17A     -1.185085    18A     -1.047961
      19A     -1.007758    20A     -0.949120    21A     -0.921264
      22A     -0.827374    23A     -0.753490    24A     -0.747896
      25A     -0.709205    26A     -0.645725    27A     -0.631966
      28A     -0.611591    29A     -0.595728    30A     -0.591328
      31A     -0.567295    32A     -0.548239    33A     -0.543497
      34A     -0.536090    35A     -0.524068    36A     -0.501307
      37A     -0.480446    38A     -0.440414    39A     -0.405520
      40A     -0.349751    41A     -0.329866

  @DF-RHF Final Energy:  -797.31109956410921

   => Energetics <=

    Nuclear Repulsion Energy =            586.6296942154650651
    One-Electron Energy =               -2257.6737655043662016
    Two-Electron Energy =                 873.7329717247920371
    Total Energy =                       -797.3110995641092131
  Basis Set: (AUG-CC-PVTZ AUX)
    Blend: AUG-CC-PVTZ-RI
    Molecular point group: c1

    Geometry (in Angstrom), charge = 0, multiplicity = 1:

       Center              X                  Y                   Z               Mass
    ------------   -----------------  -----------------  -----------------  -----------------
         S           -0.810166571515     1.542858144167    -0.156663929936    31.972071174400
         O            2.141636428485     1.200945144167     0.369055070064    15.994914619570
         N            2.211443728485    -1.100178655833     0.008197870064    14.003074004430
         C           -2.146233571515    -0.667648855833     0.007168070064    12.000000000000
         C            0.073422428485     0.075445144167     0.018245070064    12.000000000000
         C           -0.774296571515    -1.015424855833     0.104533070064    12.000000000000
         C           -2.301775571515     0.697470144167    -0.143261929936    12.000000000000
         C            1.549559428485     0.150002144167     0.098233070064    12.000000000000
         C           -3.278428571515    -1.652238855833     0.074848070064    12.000000000000
         C            3.652718428485    -1.053842855833    -0.173231929936    12.000000000000
         H           -0.423679571515    -2.030947855833     0.273218070064     1.007825032230
         H           -3.233266571515     1.242764144167    -0.245129929936     1.007825032230
         H           -3.275521571515    -2.191477855833     1.027333070064     1.007825032230
         H           -4.241628571515    -1.144400855833    -0.021266929936     1.007825032230
         H           -3.206951571515    -2.393935855833    -0.726905929936     1.007825032230
         H            1.696220428485    -1.751424855833    -0.630686929936     1.007825032230
         H            4.044677428485    -0.611632855833    -1.095712929936     1.007825032230
         H            3.992739428485    -2.087510855833    -0.091786929936     1.007825032230
         H            4.033027428485    -0.478505855833     0.670186070064     1.007825032230

  Basis Set: AUG-CC-PVTZ
    Blend: AUG-CC-PVTZ
  Basis Set: (AUG-CC-PVTZ AUX)
    Blend: AUG-CC-PVTZ-JKFIT
	 Reference Energy          =    -797.3110995641092131 [Eh]
	 Singles Energy            =      -0.0000000000000000 [Eh]
	 Same-Spin Energy          =      -0.4873820849595532 [Eh]
	 Opposite-Spin Energy      =      -1.5056903998301441 [Eh]
	 Correlation Energy        =      -1.9930724847896972 [Eh]
	 Total Energy              =    -799.3041720488988631 [Eh]

	 ================> DF-SCS-MP2 Energies <==================
	-----------------------------------------------------------
	 SCS Same-Spin Scale       =       0.3333333333333333 [-]
	 SCS Opposite-Spin Scale   =       1.2000000000000000 [-]
	 SCS Same-Spin Energy      =      -0.1624606949865177 [Eh]
	 SCS Opposite-Spin Energy  =      -1.8068284797961729 [Eh]
	 SCS Correlation Energy    =      -1.9692891747826906 [Eh]
	 SCS Total Energy          =    -799.2803887388919293 [Eh]
	-----------------------------------------------------------

  Dipole Moment: [D]
     X:    -1.7576      Y:    -3.3017      Z:    -1.3020     Total:     3.9605

*** Psi4 exiting successfully. Buy a developer a beer!
