                               Psi4 1.4a3.dev225

  ==> Input File <==

--------------------------------------------------------------------------
#psi4
#
memory 32 gb

molecule  {
0 1
  S       -0.8053760     1.6060500    -0.1399530
  O        2.1464270     1.2641370     0.3857660
  N        2.2049820    -0.9697390    -0.1110850
  C       -2.1414430    -0.6044570     0.0238790
  C        0.0782130     0.1386370     0.0349560
  C       -0.7695060    -0.9522330     0.1212440
  C       -2.2947343     0.7409086    -0.1243743
  C        1.5543500     0.2131940     0.1149440
  C       -3.2736380    -1.5890470     0.0915590
  C        3.6575090    -0.9906510    -0.1565210
  H       -0.4188890    -1.9677560     0.2899290
  H       -3.2284760     1.3059560    -0.2284190
  H       -3.2707310    -2.1282860     1.0440440
  H       -4.2368380    -1.0812090    -0.0045560
  H       -3.2021610    -2.3307440    -0.7101950
  H        1.7010110    -1.6882330    -0.6139760
  H        4.0494680    -0.5484410    -1.0790020
  H        3.9975300    -2.0243190    -0.0750760
  H        4.0378180    -0.4153140     0.6868970
units angstrom
no_reorient  #important for SAPT in psi4, default
symmetry c1  #important for SAPT in psi4, default
}

set PROPERTIES_ORIGIN ["COM"]
properties('MP2/aug-cc-pvtz', properties = ['dipole'])
--------------------------------------------------------------------------

    Molecular point group: c1
  Charge       = 0
  Multiplicity = 1
  Basis Set: AUG-CC-PVTZ
    Blend: AUG-CC-PVTZ
  Basis Set: (AUG-CC-PVTZ AUX)
    Blend: AUG-CC-PVTZ-JKFIT

    Orbital Energies [Eh]
    ---------------------

    Doubly Occupied:

       1A    -91.989232     2A    -20.522143     3A    -15.589430
       4A    -11.360915     5A    -11.275245     6A    -11.268091
       7A    -11.260684     8A    -11.257309     9A    -11.251758
      10A    -11.238396    11A     -8.988975    12A     -6.669844
      13A     -6.669270    14A     -6.668553    15A     -1.376508
      16A     -1.231841    17A     -1.185100    18A     -1.048042
      19A     -1.005759    20A     -0.953951    21A     -0.924174
      22A     -0.829641    23A     -0.768758    24A     -0.748629
      25A     -0.708912    26A     -0.643885    27A     -0.629188
      28A     -0.620382    29A     -0.594066    30A     -0.591482
      31A     -0.567973    32A     -0.551544    33A     -0.549257
      34A     -0.534757    35A     -0.521390    36A     -0.501046
      37A     -0.478561    38A     -0.434924    39A     -0.398889
      40A     -0.347543    41A     -0.330845

  @DF-RHF Final Energy:  -797.31978065021428

   => Energetics <=

    Nuclear Repulsion Energy =            588.1418573245554171
    One-Electron Energy =               -2260.7494887368907257
    Two-Electron Energy =                 875.2878507621209110
    Total Energy =                       -797.3197806502142839
  Basis Set: (AUG-CC-PVTZ AUX)
    Blend: AUG-CC-PVTZ-RI
    Molecular point group: c1

    Geometry (in Angstrom), charge = 0, multiplicity = 1:

       Center              X                  Y                   Z               Mass
    ------------   -----------------  -----------------  -----------------  -----------------
         S           -0.809324479273     1.538313298221    -0.144549604800    31.972071174400
         O            2.142478520727     1.196400298221     0.381169395200    15.994914619570
         N            2.201033520727    -1.037475701779    -0.115681604800    14.003074004430
         C           -2.145391479273    -0.672193701779     0.019282395200    12.000000000000
         C            0.074264520727     0.070900298221     0.030359395200    12.000000000000
         C           -0.773454479273    -1.019969701779     0.116647395200    12.000000000000
         C           -2.298682779273     0.673171898221    -0.128970904800    12.000000000000
         C            1.550401520727     0.145457298221     0.110347395200    12.000000000000
         C           -3.277586479273    -1.656783701779     0.086962395200    12.000000000000
         C            3.653560520727    -1.058387701779    -0.161117604800    12.000000000000
         H           -0.422837479273    -2.035492701779     0.285332395200     1.007825032230
         H           -3.232424479273     1.238219298221    -0.233015604800     1.007825032230
         H           -3.274679479273    -2.196022701779     1.039447395200     1.007825032230
         H           -4.240786479273    -1.148945701779    -0.009152604800     1.007825032230
         H           -3.206109479273    -2.398480701779    -0.714791604800     1.007825032230
         H            1.697062520727    -1.755969701779    -0.618572604800     1.007825032230
         H            4.045519520727    -0.616177701779    -1.083598604800     1.007825032230
         H            3.993581520727    -2.092055701779    -0.079672604800     1.007825032230
         H            4.033869520727    -0.483050701779     0.682300395200     1.007825032230

  Basis Set: AUG-CC-PVTZ
    Blend: AUG-CC-PVTZ
  Basis Set: (AUG-CC-PVTZ AUX)
    Blend: AUG-CC-PVTZ-JKFIT
	 Reference Energy          =    -797.3197806502142839 [Eh]
	 Singles Energy            =      -0.0000000000000000 [Eh]
	 Same-Spin Energy          =      -0.4866589310593826 [Eh]
	 Opposite-Spin Energy      =      -1.5034417809057143 [Eh]
	 Correlation Energy        =      -1.9901007119650971 [Eh]
	 Total Energy              =    -799.3098813621793397 [Eh]

	 ================> DF-SCS-MP2 Energies <==================
	-----------------------------------------------------------
	 SCS Same-Spin Scale       =       0.3333333333333333 [-]
	 SCS Opposite-Spin Scale   =       1.2000000000000000 [-]
	 SCS Same-Spin Energy      =      -0.1622196436864609 [Eh]
	 SCS Opposite-Spin Energy  =      -1.8041301370868572 [Eh]
	 SCS Correlation Energy    =      -1.9663497807733181 [Eh]
	 SCS Total Energy          =    -799.2861304309875550 [Eh]
	-----------------------------------------------------------

  Dipole Moment: [D]
     X:    -1.4920      Y:    -3.7550      Z:    -1.1444     Total:     4.1995

*** Psi4 exiting successfully. Buy a developer a beer!
