                               Psi4 1.4a3.dev225

  ==> Input File <==

--------------------------------------------------------------------------
#psi4
#
memory 32 gb

molecule  {
0 1
  S       -0.8053760     1.6060500    -0.1399530
  O        2.1464270     1.2641370     0.3857660
  N        2.2049820    -0.9697390    -0.1110850
  C       -2.1414430    -0.6044570     0.0238790
  C        0.0782130     0.1386370     0.0349560
  C       -0.7695060    -0.9522330     0.1212440
  C       -2.2969850     0.7606620    -0.1265510
  C        1.5543500     0.2131940     0.1149440
  C       -3.2736380    -1.5890470     0.0915590
  C        3.6575090    -0.9906510    -0.1565210
  H       -0.4188890    -1.9677560     0.2899290
  H       -3.2284760     1.3059560    -0.2284190
  H       -3.2707310    -2.1282860     1.0440440
  H       -4.2368380    -1.0812090    -0.0045560
  H       -3.2021610    -2.3307440    -0.7101950
  H        1.7010110    -1.6882330    -0.6139760
  H        4.1029613    -0.4718978    -1.0124533
  H        3.9975300    -2.0243190    -0.0750760
  H        4.0378180    -0.4153140     0.6868970
units angstrom
no_reorient  #important for SAPT in psi4, default
symmetry c1  #important for SAPT in psi4, default
}

set PROPERTIES_ORIGIN ["COM"]
properties('MP2/aug-cc-pvtz', properties = ['dipole'])
--------------------------------------------------------------------------

    Molecular point group: c1
  Charge       = 0
  Multiplicity = 1
  Basis Set: AUG-CC-PVTZ
    Blend: AUG-CC-PVTZ
  Basis Set: (AUG-CC-PVTZ AUX)
    Blend: AUG-CC-PVTZ-JKFIT

    Orbital Energies [Eh]
    ---------------------

    Doubly Occupied:

       1A    -91.990601     2A    -20.522559     3A    -15.590512
       4A    -11.361329     5A    -11.275198     6A    -11.269315
       7A    -11.260142     8A    -11.257483     9A    -11.254158
      10A    -11.238408    11A     -8.990348    12A     -6.671216
      13A     -6.670666    14A     -6.669954    15A     -1.376849
      16A     -1.231950    17A     -1.183728    18A     -1.046805
      19A     -1.007401    20A     -0.954208    21A     -0.923027
      22A     -0.829831    23A     -0.769219    24A     -0.750282
      25A     -0.708837    26A     -0.647007    27A     -0.626786
      28A     -0.619818    29A     -0.594244    30A     -0.590893
      31A     -0.567982    32A     -0.555426    33A     -0.544831
      34A     -0.534823    35A     -0.523443    36A     -0.499988
      37A     -0.478492    38A     -0.435322    39A     -0.399211
      40A     -0.348408    41A     -0.328053

  @DF-RHF Final Energy:  -797.31811567365025

   => Energetics <=

    Nuclear Repulsion Energy =            587.9030179004237198
    One-Electron Energy =               -2260.2447615244473127
    Two-Electron Energy =                 875.0236279503733385
    Total Energy =                       -797.3181156736502544
  Basis Set: (AUG-CC-PVTZ AUX)
    Blend: AUG-CC-PVTZ-RI
    Molecular point group: c1

    Geometry (in Angstrom), charge = 0, multiplicity = 1:

       Center              X                  Y                   Z               Mass
    ------------   -----------------  -----------------  -----------------  -----------------
         S           -0.809498004832     1.536286840727    -0.144813723206    31.972071174400
         O            2.142304995168     1.194373840727     0.380905276794    15.994914619570
         N            2.200859995168    -1.039502159273    -0.115945723206    14.003074004430
         C           -2.145565004832    -0.674220159273     0.019018276794    12.000000000000
         C            0.074090995168     0.068873840727     0.030095276794    12.000000000000
         C           -0.773628004832    -1.021996159273     0.116383276794    12.000000000000
         C           -2.301107004832     0.690898840727    -0.131411723206    12.000000000000
         C            1.550227995168     0.143430840727     0.110083276794    12.000000000000
         C           -3.277760004832    -1.658810159273     0.086698276794    12.000000000000
         C            3.653386995168    -1.060414159273    -0.161381723206    12.000000000000
         H           -0.423011004832    -2.037519159273     0.285068276794     1.007825032230
         H           -3.232598004832     1.236192840727    -0.233279723206     1.007825032230
         H           -3.274853004832    -2.198049159273     1.039183276794     1.007825032230
         H           -4.240960004832    -1.150972159273    -0.009416723206     1.007825032230
         H           -3.206283004832    -2.400507159273    -0.715055723206     1.007825032230
         H            1.696888995168    -1.757996159273    -0.618836723206     1.007825032230
         H            4.098839295168    -0.541660959273    -1.017314023206     1.007825032230
         H            3.993407995168    -2.094082159273    -0.079936723206     1.007825032230
         H            4.033695995168    -0.485077159273     0.682036276794     1.007825032230

  Basis Set: AUG-CC-PVTZ
    Blend: AUG-CC-PVTZ
  Basis Set: (AUG-CC-PVTZ AUX)
    Blend: AUG-CC-PVTZ-JKFIT
	 Reference Energy          =    -797.3181156736502544 [Eh]
	 Singles Energy            =      -0.0000000000000000 [Eh]
	 Same-Spin Energy          =      -0.4871251490738006 [Eh]
	 Opposite-Spin Energy      =      -1.5039093966730168 [Eh]
	 Correlation Energy        =      -1.9910345457468175 [Eh]
	 Total Energy              =    -799.3091502193971110 [Eh]

	 ================> DF-SCS-MP2 Energies <==================
	-----------------------------------------------------------
	 SCS Same-Spin Scale       =       0.3333333333333333 [-]
	 SCS Opposite-Spin Scale   =       1.2000000000000000 [-]
	 SCS Same-Spin Energy      =      -0.1623750496912668 [Eh]
	 SCS Opposite-Spin Energy  =      -1.8046912760076201 [Eh]
	 SCS Correlation Energy    =      -1.9670663256988870 [Eh]
	 SCS Total Energy          =    -799.2851819993491063 [Eh]
	-----------------------------------------------------------

  Dipole Moment: [D]
     X:    -1.5079      Y:    -3.7039      Z:    -1.1257     Total:     4.1545

*** Psi4 exiting successfully. Buy a developer a beer!
