                               Psi4 1.4a3.dev225

  ==> Input File <==

--------------------------------------------------------------------------
#psi4
#
memory 32 gb

molecule  {
0 1
  S       -0.8053760     1.6060500    -0.1399530
  O        2.1464270     1.2641370     0.3857660
  N        2.2049820    -0.9697390    -0.1110850
  C       -2.1474496    -0.6283549     0.0263038
  C        0.0782130     0.1386370     0.0349560
  C       -0.7695060    -0.9522330     0.1212440
  C       -2.2969850     0.7606620    -0.1265510
  C        1.5543500     0.2131940     0.1149440
  C       -3.2736380    -1.5890470     0.0915590
  C        3.6575090    -0.9906510    -0.1565210
  H       -0.4188890    -1.9677560     0.2899290
  H       -3.2284760     1.3059560    -0.2284190
  H       -3.2707310    -2.1282860     1.0440440
  H       -4.2368380    -1.0812090    -0.0045560
  H       -3.2021610    -2.3307440    -0.7101950
  H        1.7010110    -1.6882330    -0.6139760
  H        4.0494680    -0.5484410    -1.0790020
  H        3.9975300    -2.0243190    -0.0750760
  H        4.0378180    -0.4153140     0.6868970
units angstrom
no_reorient  #important for SAPT in psi4, default
symmetry c1  #important for SAPT in psi4, default
}

set PROPERTIES_ORIGIN ["COM"]
properties('MP2/aug-cc-pvtz', properties = ['dipole'])
--------------------------------------------------------------------------

    Molecular point group: c1
  Charge       = 0
  Multiplicity = 1
  Basis Set: AUG-CC-PVTZ
    Blend: AUG-CC-PVTZ
  Basis Set: (AUG-CC-PVTZ AUX)
    Blend: AUG-CC-PVTZ-JKFIT

    Orbital Energies [Eh]
    ---------------------

    Doubly Occupied:

       1A    -91.991812     2A    -20.521500     3A    -15.589041
       4A    -11.360688     5A    -11.274439     6A    -11.271923
       7A    -11.260434     8A    -11.257537     9A    -11.255802
      10A    -11.237777    11A     -8.991393    12A     -6.672253
      13A     -6.671698    14A     -6.671016    15A     -1.376041
      16A     -1.231441    17A     -1.181327    18A     -1.049431
      19A     -1.006799    20A     -0.954466    21A     -0.921979
      22A     -0.827178    23A     -0.768227    24A     -0.749737
      25A     -0.709458    26A     -0.643715    27A     -0.629242
      28A     -0.620556    29A     -0.594271    30A     -0.592396
      31A     -0.567644    32A     -0.551605    33A     -0.549655
      34A     -0.535007    35A     -0.523318    36A     -0.499532
      37A     -0.478962    38A     -0.434770    39A     -0.398628
      40A     -0.348704    41A     -0.324242

  @DF-RHF Final Energy:  -797.31738912814126

   => Energetics <=

    Nuclear Repulsion Energy =            587.6445630956460491
    One-Electron Energy =               -2259.7326163000489032
    Two-Electron Energy =                 874.7706640762617099
    Total Energy =                       -797.3173891281412580
  Basis Set: (AUG-CC-PVTZ AUX)
    Blend: AUG-CC-PVTZ-RI
    Molecular point group: c1

    Geometry (in Angstrom), charge = 0, multiplicity = 1:

       Center              X                  Y                   Z               Mass
    ------------   -----------------  -----------------  -----------------  -----------------
         S           -0.808685371366     1.538634078952    -0.144568807526    31.972071174400
         O            2.143117628634     1.196721078952     0.381150192474    15.994914619570
         N            2.201672628634    -1.037154921048    -0.115700807526    14.003074004430
         C           -2.150758971366    -0.695770821048     0.021687992474    12.000000000000
         C            0.074903628634     0.071221078952     0.030340192474    12.000000000000
         C           -0.772815371366    -1.019648921048     0.116628192474    12.000000000000
         C           -2.300294371366     0.693246078952    -0.131166807526    12.000000000000
         C            1.551040628634     0.145778078952     0.110328192474    12.000000000000
         C           -3.276947371366    -1.656462921048     0.086943192474    12.000000000000
         C            3.654199628634    -1.058066921048    -0.161136807526    12.000000000000
         H           -0.422198371366    -2.035171921048     0.285313192474     1.007825032230
         H           -3.231785371366     1.238540078952    -0.233034807526     1.007825032230
         H           -3.274040371366    -2.195701921048     1.039428192474     1.007825032230
         H           -4.240147371366    -1.148624921048    -0.009171807526     1.007825032230
         H           -3.205470371366    -2.398159921048    -0.714810807526     1.007825032230
         H            1.697701628634    -1.755648921048    -0.618591807526     1.007825032230
         H            4.046158628634    -0.615856921048    -1.083617807526     1.007825032230
         H            3.994220628634    -2.091734921048    -0.079691807526     1.007825032230
         H            4.034508628634    -0.482729921048     0.682281192474     1.007825032230

  Basis Set: AUG-CC-PVTZ
    Blend: AUG-CC-PVTZ
  Basis Set: (AUG-CC-PVTZ AUX)
    Blend: AUG-CC-PVTZ-JKFIT
	 Reference Energy          =    -797.3173891281412580 [Eh]
	 Singles Energy            =      -0.0000000000000000 [Eh]
	 Same-Spin Energy          =      -0.4876069691495683 [Eh]
	 Opposite-Spin Energy      =      -1.5045638833560537 [Eh]
	 Correlation Energy        =      -1.9921708525056221 [Eh]
	 Total Energy              =    -799.3095599806468954 [Eh]

	 ================> DF-SCS-MP2 Energies <==================
	-----------------------------------------------------------
	 SCS Same-Spin Scale       =       0.3333333333333333 [-]
	 SCS Opposite-Spin Scale   =       1.2000000000000000 [-]
	 SCS Same-Spin Energy      =      -0.1625356563831894 [Eh]
	 SCS Opposite-Spin Energy  =      -1.8054766600272645 [Eh]
	 SCS Correlation Energy    =      -1.9680123164104539 [Eh]
	 SCS Total Energy          =    -799.2854014445516668 [Eh]
	-----------------------------------------------------------

  Dipole Moment: [D]
     X:    -1.5196      Y:    -3.7537      Z:    -1.1452     Total:     4.2084

*** Psi4 exiting successfully. Buy a developer a beer!
