                               Psi4 1.4a3.dev225

  ==> Input File <==

--------------------------------------------------------------------------
#psi4
#
memory 32 gb

molecule  {
0 1
  S       -0.8053760     1.6060500    -0.1399530
  O        2.1464270     1.2641370     0.3857660
  N        2.2049820    -0.9697390    -0.1110850
  C       -2.1414430    -0.6044570     0.0238790
  C        0.0782130     0.1386370     0.0349560
  C       -0.7695060    -0.9522330     0.1212440
  C       -2.4709770     0.6620499    -0.1249877
  C        1.5543500     0.2131940     0.1149440
  C       -3.2736380    -1.5890470     0.0915590
  C        3.6575090    -0.9906510    -0.1565210
  H       -0.4188890    -1.9677560     0.2899290
  H       -3.2284760     1.3059560    -0.2284190
  H       -3.2707310    -2.1282860     1.0440440
  H       -4.2368380    -1.0812090    -0.0045560
  H       -3.2021610    -2.3307440    -0.7101950
  H        1.7010110    -1.6882330    -0.6139760
  H        4.0494680    -0.5484410    -1.0790020
  H        3.9975300    -2.0243190    -0.0750760
  H        4.0378180    -0.4153140     0.6868970
units angstrom
no_reorient  #important for SAPT in psi4, default
symmetry c1  #important for SAPT in psi4, default
}

set PROPERTIES_ORIGIN ["COM"]
properties('MP2/aug-cc-pvtz', properties = ['dipole'])
--------------------------------------------------------------------------

    Molecular point group: c1
  Charge       = 0
  Multiplicity = 1
  Basis Set: AUG-CC-PVTZ
    Blend: AUG-CC-PVTZ
  Basis Set: (AUG-CC-PVTZ AUX)
    Blend: AUG-CC-PVTZ-JKFIT

    Orbital Energies [Eh]
    ---------------------

    Doubly Occupied:

       1A    -91.977529     2A    -20.526284     3A    -15.592688
       4A    -11.364556     5A    -11.285104     6A    -11.270219
       7A    -11.262634     8A    -11.258695     9A    -11.256341
      10A    -11.237357    11A     -8.975713    12A     -6.656556
      13A     -6.655754    14A     -6.655222    15A     -1.379743
      16A     -1.234766    17A     -1.176737    18A     -1.058166
      19A     -0.988357    20A     -0.956561    21A     -0.926277
      22A     -0.837131    23A     -0.777934    24A     -0.764112
      25A     -0.709270    26A     -0.648266    27A     -0.633113
      28A     -0.618561    29A     -0.616841    30A     -0.593204
      31A     -0.573568    32A     -0.553396    33A     -0.548914
      34A     -0.545201    35A     -0.508683    36A     -0.493540
      37A     -0.444783    38A     -0.430207    39A     -0.400771
      40A     -0.352142    41A     -0.332598

  @DF-RHF Final Energy:  -797.29142728264753

   => Energetics <=

    Nuclear Repulsion Energy =            585.1588326515710605
    One-Electron Energy =               -2254.7455352885308457
    Two-Electron Energy =                 872.2952753543121389
    Total Energy =                       -797.2914272826475326
  Basis Set: (AUG-CC-PVTZ AUX)
    Blend: AUG-CC-PVTZ-RI
    Molecular point group: c1

    Geometry (in Angstrom), charge = 0, multiplicity = 1:

       Center              X                  Y                   Z               Mass
    ------------   -----------------  -----------------  -----------------  -----------------
         S           -0.795683446102     1.544416893676    -0.144502128169    31.972071174400
         O            2.156119553898     1.202503893676     0.381216871831    15.994914619570
         N            2.214674553898    -1.031372106324    -0.115634128169    14.003074004430
         C           -2.131750446102    -0.666090106324     0.019329871831    12.000000000000
         C            0.087905553898     0.077003893676     0.030406871831    12.000000000000
         C           -0.759813446102    -1.013866106324     0.116694871831    12.000000000000
         C           -2.461284446102     0.600416793676    -0.129536828169    12.000000000000
         C            1.564042553898     0.151560893676     0.110394871831    12.000000000000
         C           -3.263945446102    -1.650680106324     0.087009871831    12.000000000000
         C            3.667201553898    -1.052284106324    -0.161070128169    12.000000000000
         H           -0.409196446102    -2.029389106324     0.285379871831     1.007825032230
         H           -3.218783446102     1.244322893676    -0.232968128169     1.007825032230
         H           -3.261038446102    -2.189919106324     1.039494871831     1.007825032230
         H           -4.227145446102    -1.142842106324    -0.009105128169     1.007825032230
         H           -3.192468446102    -2.392377106324    -0.714744128169     1.007825032230
         H            1.710703553898    -1.749866106324    -0.618525128169     1.007825032230
         H            4.059160553898    -0.610074106324    -1.083551128169     1.007825032230
         H            4.007222553898    -2.085952106324    -0.079625128169     1.007825032230
         H            4.047510553898    -0.476947106324     0.682347871831     1.007825032230

  Basis Set: AUG-CC-PVTZ
    Blend: AUG-CC-PVTZ
  Basis Set: (AUG-CC-PVTZ AUX)
    Blend: AUG-CC-PVTZ-JKFIT
	 Reference Energy          =    -797.2914272826475326 [Eh]
	 Singles Energy            =      -0.0000000000000000 [Eh]
	 Same-Spin Energy          =      -0.4854576746609028 [Eh]
	 Opposite-Spin Energy      =      -1.5047444347895591 [Eh]
	 Correlation Energy        =      -1.9902021094504621 [Eh]
	 Total Energy              =    -799.2816293920980115 [Eh]

	 ================> DF-SCS-MP2 Energies <==================
	-----------------------------------------------------------
	 SCS Same-Spin Scale       =       0.3333333333333333 [-]
	 SCS Opposite-Spin Scale   =       1.2000000000000000 [-]
	 SCS Same-Spin Energy      =      -0.1618192248869676 [Eh]
	 SCS Opposite-Spin Energy  =      -1.8056933217474709 [Eh]
	 SCS Correlation Energy    =      -1.9675125466344385 [Eh]
	 SCS Total Energy          =    -799.2589398292819851 [Eh]
	-----------------------------------------------------------

  Dipole Moment: [D]
     X:    -1.4930      Y:    -3.9884      Z:    -1.1206     Total:     4.4037

*** Psi4 exiting successfully. Buy a developer a beer!
