                               Psi4 1.4a3.dev225

  ==> Input File <==

--------------------------------------------------------------------------
#psi4
#
memory 32 gb

molecule  {
0 1
  S       -0.8053760     1.6060500    -0.1399530
  O        2.1464270     1.2641370     0.3857660
  N        2.2049820    -0.9697390    -0.1110850
  C       -2.1631030    -0.7000397     0.0380270
  C        0.0782130     0.1386370     0.0349560
  C       -0.7695060    -0.9522330     0.1212440
  C       -2.2969850     0.7606620    -0.1265510
  C        1.5543500     0.2131940     0.1149440
  C       -3.2736380    -1.5890470     0.0915590
  C        3.6575090    -0.9906510    -0.1565210
  H       -0.4188890    -1.9677560     0.2899290
  H       -3.2284760     1.3059560    -0.2284190
  H       -3.2707310    -2.1282860     1.0440440
  H       -4.2368380    -1.0812090    -0.0045560
  H       -3.2021610    -2.3307440    -0.7101950
  H        1.7010110    -1.6882330    -0.6139760
  H        4.0494680    -0.5484410    -1.0790020
  H        3.9975300    -2.0243190    -0.0750760
  H        4.0378180    -0.4153140     0.6868970
units angstrom
no_reorient  #important for SAPT in psi4, default
symmetry c1  #important for SAPT in psi4, default
}

set PROPERTIES_ORIGIN ["COM"]
properties('MP2/aug-cc-pvtz', properties = ['dipole'])
--------------------------------------------------------------------------

    Molecular point group: c1
  Charge       = 0
  Multiplicity = 1
  Basis Set: AUG-CC-PVTZ
    Blend: AUG-CC-PVTZ
  Basis Set: (AUG-CC-PVTZ AUX)
    Blend: AUG-CC-PVTZ-JKFIT

    Orbital Energies [Eh]
    ---------------------

    Doubly Occupied:

       1A    -91.995978     2A    -20.520204     3A    -15.587891
       4A    -11.359965     5A    -11.279510     6A    -11.272762
       7A    -11.261739     8A    -11.259692     9A    -11.258048
      10A    -11.236222    11A     -8.995063    12A     -6.675892
      13A     -6.675332    14A     -6.674734    15A     -1.374982
      16A     -1.230365    17A     -1.175765    18A     -1.060029
      19A     -1.004910    20A     -0.955975    21A     -0.918999
      22A     -0.822372    23A     -0.766937    24A     -0.748915
      25A     -0.710998    26A     -0.642605    27A     -0.630847
      28A     -0.620557    29A     -0.598803    30A     -0.595179
      31A     -0.573392    32A     -0.552055    33A     -0.549974
      34A     -0.537030    35A     -0.513942    36A     -0.496059
      37A     -0.478443    38A     -0.434549    39A     -0.397851
      40A     -0.350064    41A     -0.313538

  @DF-RHF Final Energy:  -797.30178109161534

   => Energetics <=

    Nuclear Repulsion Energy =            586.8641337435221885
    One-Electron Energy =               -2258.1154951135799820
    Two-Electron Energy =                 873.9495802784424541
    Total Energy =                       -797.3017810916153394
  Basis Set: (AUG-CC-PVTZ AUX)
    Blend: AUG-CC-PVTZ-RI
    Molecular point group: c1

    Geometry (in Angstrom), charge = 0, multiplicity = 1:

       Center              X                  Y                   Z               Mass
    ------------   -----------------  -----------------  -----------------  -----------------
         S           -0.807473811689     1.544182420725    -0.145476173109    31.972071174400
         O            2.144329188311     1.202269420725     0.380242826891    15.994914619570
         N            2.202884188311    -1.031606579275    -0.116608173109    14.003074004430
         C           -2.165200811689    -0.761907279275     0.032503826891    12.000000000000
         C            0.076115188311     0.076769420725     0.029432826891    12.000000000000
         C           -0.771603811689    -1.014100579275     0.115720826891    12.000000000000
         C           -2.299082811689     0.698794420725    -0.132074173109    12.000000000000
         C            1.552252188311     0.151326420725     0.109420826891    12.000000000000
         C           -3.275735811689    -1.650914579275     0.086035826891    12.000000000000
         C            3.655411188311    -1.052518579275    -0.162044173109    12.000000000000
         H           -0.420986811689    -2.029623579275     0.284405826891     1.007825032230
         H           -3.230573811689     1.244088420725    -0.233942173109     1.007825032230
         H           -3.272828811689    -2.190153579275     1.038520826891     1.007825032230
         H           -4.238935811689    -1.143076579275    -0.010079173109     1.007825032230
         H           -3.204258811689    -2.392611579275    -0.715718173109     1.007825032230
         H            1.698913188311    -1.750100579275    -0.619499173109     1.007825032230
         H            4.047370188311    -0.610308579275    -1.084525173109     1.007825032230
         H            3.995432188311    -2.086186579275    -0.080599173109     1.007825032230
         H            4.035720188311    -0.477181579275     0.681373826891     1.007825032230

  Basis Set: AUG-CC-PVTZ
    Blend: AUG-CC-PVTZ
  Basis Set: (AUG-CC-PVTZ AUX)
    Blend: AUG-CC-PVTZ-JKFIT
	 Reference Energy          =    -797.3017810916153394 [Eh]
	 Singles Energy            =      -0.0000000000000000 [Eh]
	 Same-Spin Energy          =      -0.4896806574885086 [Eh]
	 Opposite-Spin Energy      =      -1.5073782774744116 [Eh]
	 Correlation Energy        =      -1.9970589349629202 [Eh]
	 Total Energy              =    -799.2988400265782047 [Eh]

	 ================> DF-SCS-MP2 Energies <==================
	-----------------------------------------------------------
	 SCS Same-Spin Scale       =       0.3333333333333333 [-]
	 SCS Opposite-Spin Scale   =       1.2000000000000000 [-]
	 SCS Same-Spin Energy      =      -0.1632268858295029 [Eh]
	 SCS Opposite-Spin Energy  =      -1.8088539329692939 [Eh]
	 SCS Correlation Energy    =      -1.9720808187987968 [Eh]
	 SCS Total Energy          =    -799.2738619104140980 [Eh]
	-----------------------------------------------------------

  Dipole Moment: [D]
     X:    -1.6100      Y:    -3.7883      Z:    -1.1461     Total:     4.2728

*** Psi4 exiting successfully. Buy a developer a beer!
