                               Psi4 1.4a3.dev225

  ==> Input File <==

--------------------------------------------------------------------------
#psi4
#
memory 32 gb

molecule  {
0 1
  S       -0.8053760     1.6060500    -0.1399530
  O        2.1464270     1.2641370     0.3857660
  N        2.2049820    -0.9697390    -0.1110850
  C       -2.1414430    -0.6044570     0.0238790
  C        0.0782130     0.1386370     0.0349560
  C       -0.7695060    -0.9522330     0.1212440
  C       -2.2969850     0.7606620    -0.1265510
  C        1.5543500     0.2131940     0.1149440
  C       -3.2887143    -1.6021578     0.0924602
  C        3.6575090    -0.9906510    -0.1565210
  H       -0.4188890    -1.9677560     0.2899290
  H       -3.2284760     1.3059560    -0.2284190
  H       -3.2707310    -2.1282860     1.0440440
  H       -4.2368380    -1.0812090    -0.0045560
  H       -3.2021610    -2.3307440    -0.7101950
  H        1.7010110    -1.6882330    -0.6139760
  H        4.0494680    -0.5484410    -1.0790020
  H        3.9975300    -2.0243190    -0.0750760
  H        4.0378180    -0.4153140     0.6868970
units angstrom
no_reorient  #important for SAPT in psi4, default
symmetry c1  #important for SAPT in psi4, default
}

set PROPERTIES_ORIGIN ["COM"]
properties('MP2/aug-cc-pvtz', properties = ['dipole'])
--------------------------------------------------------------------------

    Molecular point group: c1
  Charge       = 0
  Multiplicity = 1
  Basis Set: AUG-CC-PVTZ
    Blend: AUG-CC-PVTZ
  Basis Set: (AUG-CC-PVTZ AUX)
    Blend: AUG-CC-PVTZ-JKFIT

    Orbital Energies [Eh]
    ---------------------

    Doubly Occupied:

       1A    -91.990331     2A    -20.521794     3A    -15.589314
       4A    -11.360798     5A    -11.274813     6A    -11.269040
       7A    -11.260607     8A    -11.257237     9A    -11.254727
      10A    -11.237859    11A     -8.990075    12A     -6.670942
      13A     -6.670392    14A     -6.669680    15A     -1.376266
      16A     -1.231691    17A     -1.182916    18A     -1.044448
      19A     -1.007030    20A     -0.954121    21A     -0.923681
      22A     -0.828625    23A     -0.768528    24A     -0.749600
      25A     -0.708048    26A     -0.643998    27A     -0.628302
      28A     -0.619621    29A     -0.594930    30A     -0.592687
      31A     -0.566143    32A     -0.551606    33A     -0.549338
      34A     -0.536641    35A     -0.522295    36A     -0.501321
      37A     -0.477912    38A     -0.434464    39A     -0.398792
      40A     -0.348324    41A     -0.328053

  @DF-RHF Final Energy:  -797.31939841989424

   => Energetics <=

    Nuclear Repulsion Energy =            587.5725071930417016
    One-Electron Energy =               -2259.6098267237612163
    Two-Electron Energy =                 874.7179211108252730
    Total Energy =                       -797.3193984198942417
  Basis Set: (AUG-CC-PVTZ AUX)
    Blend: AUG-CC-PVTZ-RI
    Molecular point group: c1

    Geometry (in Angstrom), charge = 0, multiplicity = 1:

       Center              X                  Y                   Z               Mass
    ------------   -----------------  -----------------  -----------------  -----------------
         S           -0.807983384398     1.537799166703    -0.144450882199    31.972071174400
         O            2.143819615602     1.195886166703     0.381268117801    15.994914619570
         N            2.202374615602    -1.037989833297    -0.115582882199    14.003074004430
         C           -2.144050384398    -0.672707833297     0.019381117801    12.000000000000
         C            0.075605615602     0.070386166703     0.030458117801    12.000000000000
         C           -0.772113384398    -1.020483833297     0.116746117801    12.000000000000
         C           -2.299592384398     0.692411166703    -0.131048882199    12.000000000000
         C            1.551742615602     0.144943166703     0.110446117801    12.000000000000
         C           -3.291321684398    -1.670408633297     0.087962317801    12.000000000000
         C            3.654901615602    -1.058901833297    -0.161018882199    12.000000000000
         H           -0.421496384398    -2.036006833297     0.285431117801     1.007825032230
         H           -3.231083384398     1.237705166703    -0.232916882199     1.007825032230
         H           -3.273338384398    -2.196536833297     1.039546117801     1.007825032230
         H           -4.239445384398    -1.149459833297    -0.009053882199     1.007825032230
         H           -3.204768384398    -2.398994833297    -0.714692882199     1.007825032230
         H            1.698403615602    -1.756483833297    -0.618473882199     1.007825032230
         H            4.046860615602    -0.616691833297    -1.083499882199     1.007825032230
         H            3.994922615602    -2.092569833297    -0.079573882199     1.007825032230
         H            4.035210615602    -0.483564833297     0.682399117801     1.007825032230

  Basis Set: AUG-CC-PVTZ
    Blend: AUG-CC-PVTZ
  Basis Set: (AUG-CC-PVTZ AUX)
    Blend: AUG-CC-PVTZ-JKFIT
	 Reference Energy          =    -797.3193984198942417 [Eh]
	 Singles Energy            =      -0.0000000000000000 [Eh]
	 Same-Spin Energy          =      -0.4868786590914051 [Eh]
	 Opposite-Spin Energy      =      -1.5036813897601307 [Eh]
	 Correlation Energy        =      -1.9905600488515358 [Eh]
	 Total Energy              =    -799.3099584687457764 [Eh]

	 ================> DF-SCS-MP2 Energies <==================
	-----------------------------------------------------------
	 SCS Same-Spin Scale       =       0.3333333333333333 [-]
	 SCS Opposite-Spin Scale   =       1.2000000000000000 [-]
	 SCS Same-Spin Energy      =      -0.1622928863638017 [Eh]
	 SCS Opposite-Spin Energy  =      -1.8044176677121566 [Eh]
	 SCS Correlation Energy    =      -1.9667105540759584 [Eh]
	 SCS Total Energy          =    -799.2861089739701583 [Eh]
	-----------------------------------------------------------

  Dipole Moment: [D]
     X:    -1.4959      Y:    -3.7486      Z:    -1.1452     Total:     4.1954

*** Psi4 exiting successfully. Buy a developer a beer!
