                               Psi4 1.4a3.dev225

  ==> Input File <==

--------------------------------------------------------------------------
#psi4
#
memory 32 gb

molecule  {
0 1
  S       -0.8053760     1.6060500    -0.1399530
  O        2.1464270     1.2641370     0.3857660
  N        2.2049820    -0.9697390    -0.1110850
  C       -2.1414430    -0.6044570     0.0238790
  C        0.0782130     0.1386370     0.0349560
  C       -0.8789156    -0.8590424     0.1028612
  C       -2.2969850     0.7606620    -0.1265510
  C        1.5543500     0.2131940     0.1149440
  C       -3.2736380    -1.5890470     0.0915590
  C        3.6575090    -0.9906510    -0.1565210
  H       -0.4188890    -1.9677560     0.2899290
  H       -3.2284760     1.3059560    -0.2284190
  H       -3.2707310    -2.1282860     1.0440440
  H       -4.2368380    -1.0812090    -0.0045560
  H       -3.2021610    -2.3307440    -0.7101950
  H        1.7010110    -1.6882330    -0.6139760
  H        4.0494680    -0.5484410    -1.0790020
  H        3.9975300    -2.0243190    -0.0750760
  H        4.0378180    -0.4153140     0.6868970
units angstrom
no_reorient  #important for SAPT in psi4, default
symmetry c1  #important for SAPT in psi4, default
}

set PROPERTIES_ORIGIN ["COM"]
properties('MP2/aug-cc-pvtz', properties = ['dipole'])
--------------------------------------------------------------------------

    Molecular point group: c1
  Charge       = 0
  Multiplicity = 1
  Basis Set: AUG-CC-PVTZ
    Blend: AUG-CC-PVTZ
  Basis Set: (AUG-CC-PVTZ AUX)
    Blend: AUG-CC-PVTZ-JKFIT

    Orbital Energies [Eh]
    ---------------------

    Doubly Occupied:

       1A    -91.994046     2A    -20.521468     3A    -15.588875
       4A    -11.363320     5A    -11.273896     6A    -11.269973
       7A    -11.260140     8A    -11.255108     9A    -11.241127
      10A    -11.240418    11A     -8.993471    12A     -6.674174
      13A     -6.673810    14A     -6.673163    15A     -1.376171
      16A     -1.231282    17A     -1.204288    18A     -1.055069
      19A     -1.002303    20A     -0.958755    21A     -0.929347
      22A     -0.828885    23A     -0.773128    24A     -0.748342
      25A     -0.706690    26A     -0.643636    27A     -0.630774
      28A     -0.623681    29A     -0.597393    30A     -0.591504
      31A     -0.560549    32A     -0.552224    33A     -0.550950
      34A     -0.542495    35A     -0.510219    36A     -0.504173
      37A     -0.469700    38A     -0.436946    39A     -0.398581
      40A     -0.359313    41A     -0.323456

  @DF-RHF Final Energy:  -797.28815726866469

   => Energetics <=

    Nuclear Repulsion Energy =            589.9097082841508382
    One-Electron Energy =               -2264.1300382145800540
    Two-Electron Energy =                 876.9321726617645254
    Total Energy =                       -797.2881572686646905
  Basis Set: (AUG-CC-PVTZ AUX)
    Blend: AUG-CC-PVTZ-RI
    Molecular point group: c1

    Geometry (in Angstrom), charge = 0, multiplicity = 1:

       Center              X                  Y                   Z               Mass
    ------------   -----------------  -----------------  -----------------  -----------------
         S           -0.800682068233     1.529571529907    -0.142958317209    31.972071174400
         O            2.151120931767     1.187658529907     0.382760682791    15.994914619570
         N            2.209675931767    -1.046217470093    -0.114090317209    14.003074004430
         C           -2.136749068233    -0.680935470093     0.020873682791    12.000000000000
         C            0.082906931767     0.062158529907     0.031950682791    12.000000000000
         C           -0.874221668233    -0.935520870093     0.099855882791    12.000000000000
         C           -2.292291068233     0.684183529907    -0.129556317209    12.000000000000
         C            1.559043931767     0.136715529907     0.111938682791    12.000000000000
         C           -3.268944068233    -1.665525470093     0.088553682791    12.000000000000
         C            3.662202931767    -1.067129470093    -0.159526317209    12.000000000000
         H           -0.414195068233    -2.044234470093     0.286923682791     1.007825032230
         H           -3.223782068233     1.229477529907    -0.231424317209     1.007825032230
         H           -3.266037068233    -2.204764470093     1.041038682791     1.007825032230
         H           -4.232144068233    -1.157687470093    -0.007561317209     1.007825032230
         H           -3.197467068233    -2.407222470093    -0.713200317209     1.007825032230
         H            1.705704931767    -1.764711470093    -0.616981317209     1.007825032230
         H            4.054161931767    -0.624919470093    -1.082007317209     1.007825032230
         H            4.002223931767    -2.100797470093    -0.078081317209     1.007825032230
         H            4.042511931767    -0.491792470093     0.683891682791     1.007825032230

  Basis Set: AUG-CC-PVTZ
    Blend: AUG-CC-PVTZ
  Basis Set: (AUG-CC-PVTZ AUX)
    Blend: AUG-CC-PVTZ-JKFIT
	 Reference Energy          =    -797.2881572686646905 [Eh]
	 Singles Energy            =      -0.0000000000000000 [Eh]
	 Same-Spin Energy          =      -0.4899887595135355 [Eh]
	 Opposite-Spin Energy      =      -1.5068135517818178 [Eh]
	 Correlation Energy        =      -1.9968023112953532 [Eh]
	 Total Energy              =    -799.2849595799600593 [Eh]

	 ================> DF-SCS-MP2 Energies <==================
	-----------------------------------------------------------
	 SCS Same-Spin Scale       =       0.3333333333333333 [-]
	 SCS Opposite-Spin Scale   =       1.2000000000000000 [-]
	 SCS Same-Spin Energy      =      -0.1633295865045118 [Eh]
	 SCS Opposite-Spin Energy  =      -1.8081762621381812 [Eh]
	 SCS Correlation Energy    =      -1.9715058486426931 [Eh]
	 SCS Total Energy          =    -799.2596631173073547 [Eh]
	-----------------------------------------------------------

  Dipole Moment: [D]
     X:    -1.5067      Y:    -3.6883      Z:    -1.1638     Total:     4.1507

*** Psi4 exiting successfully. Buy a developer a beer!
