                               Psi4 1.4a3.dev225

  ==> Input File <==

--------------------------------------------------------------------------
#psi4
#
memory 32 gb

molecule  {
0 1
  S       -0.8053760     1.6060500    -0.1399530
  O        2.1464270     1.2641370     0.3857660
  N        2.2049820    -0.9697390    -0.1110850
  C       -2.0967003    -0.4635465     0.0099782
  C        0.0782130     0.1386370     0.0349560
  C       -0.7695060    -0.9522330     0.1212440
  C       -2.2969850     0.7606620    -0.1265510
  C        1.5543500     0.2131940     0.1149440
  C       -3.2736380    -1.5890470     0.0915590
  C        3.6575090    -0.9906510    -0.1565210
  H       -0.4188890    -1.9677560     0.2899290
  H       -3.2284760     1.3059560    -0.2284190
  H       -3.2707310    -2.1282860     1.0440440
  H       -4.2368380    -1.0812090    -0.0045560
  H       -3.2021610    -2.3307440    -0.7101950
  H        1.7010110    -1.6882330    -0.6139760
  H        4.0494680    -0.5484410    -1.0790020
  H        3.9975300    -2.0243190    -0.0750760
  H        4.0378180    -0.4153140     0.6868970
units angstrom
no_reorient  #important for SAPT in psi4, default
symmetry c1  #important for SAPT in psi4, default
}

set PROPERTIES_ORIGIN ["COM"]
properties('MP2/aug-cc-pvtz', properties = ['dipole'])
--------------------------------------------------------------------------

    Molecular point group: c1
  Charge       = 0
  Multiplicity = 1
  Basis Set: AUG-CC-PVTZ
    Blend: AUG-CC-PVTZ
  Basis Set: (AUG-CC-PVTZ AUX)
    Blend: AUG-CC-PVTZ-JKFIT

    Orbital Energies [Eh]
    ---------------------

    Doubly Occupied:

       1A    -91.982486     2A    -20.524008     3A    -15.591350
       4A    -11.361900     5A    -11.278142     6A    -11.261922
       7A    -11.257231     8A    -11.251116     9A    -11.242898
      10A    -11.240440    11A     -8.983252    12A     -6.664131
      13A     -6.663646    14A     -6.662736    15A     -1.378072
      16A     -1.233718    17A     -1.201199    18A     -1.042549
      19A     -1.004966    20A     -0.954529    21A     -0.924138
      22A     -0.838163    23A     -0.771823    24A     -0.752246
      25A     -0.702001    26A     -0.646299    27A     -0.628898
      28A     -0.621036    29A     -0.604075    30A     -0.584361
      31A     -0.573944    32A     -0.552693    33A     -0.550228
      34A     -0.538394    35A     -0.512215    36A     -0.501219
      37A     -0.464979    38A     -0.430702    39A     -0.400112
      40A     -0.350815    41A     -0.345400

  @DF-RHF Final Energy:  -797.29457238857185

   => Energetics <=

    Nuclear Repulsion Energy =            589.9549450367818508
    One-Electron Energy =               -2264.3509732181250911
    Two-Electron Energy =                 877.1014557927715032
    Total Energy =                       -797.2945723885718508
  Basis Set: (AUG-CC-PVTZ AUX)
    Blend: AUG-CC-PVTZ-RI
    Molecular point group: c1

    Geometry (in Angstrom), charge = 0, multiplicity = 1:

       Center              X                  Y                   Z               Mass
    ------------   -----------------  -----------------  -----------------  -----------------
         S           -0.812613323472     1.525878050751    -0.143305220149    31.972071174400
         O            2.139189676528     1.183965050751     0.382413779851    15.994914619570
         N            2.197744676528    -1.049910949249    -0.114437220149    14.003074004430
         C           -2.103937623472    -0.543718449249     0.006625979851    12.000000000000
         C            0.070975676528     0.058465050751     0.031603779851    12.000000000000
         C           -0.776743323472    -1.032404949249     0.117891779851    12.000000000000
         C           -2.304222323472     0.680490050751    -0.129903220149    12.000000000000
         C            1.547112676528     0.133022050751     0.111591779851    12.000000000000
         C           -3.280875323472    -1.669218949249     0.088206779851    12.000000000000
         C            3.650271676528    -1.070822949249    -0.159873220149    12.000000000000
         H           -0.426126323472    -2.047927949249     0.286576779851     1.007825032230
         H           -3.235713323472     1.225784050751    -0.231771220149     1.007825032230
         H           -3.277968323472    -2.208457949249     1.040691779851     1.007825032230
         H           -4.244075323472    -1.161380949249    -0.007908220149     1.007825032230
         H           -3.209398323472    -2.410915949249    -0.713547220149     1.007825032230
         H            1.693773676528    -1.768404949249    -0.617328220149     1.007825032230
         H            4.042230676528    -0.628612949249    -1.082354220149     1.007825032230
         H            3.990292676528    -2.104490949249    -0.078428220149     1.007825032230
         H            4.030580676528    -0.495485949249     0.683544779851     1.007825032230

  Basis Set: AUG-CC-PVTZ
    Blend: AUG-CC-PVTZ
  Basis Set: (AUG-CC-PVTZ AUX)
    Blend: AUG-CC-PVTZ-JKFIT
	 Reference Energy          =    -797.2945723885718508 [Eh]
	 Singles Energy            =      -0.0000000000000000 [Eh]
	 Same-Spin Energy          =      -0.4847054175507221 [Eh]
	 Opposite-Spin Energy      =      -1.5011474563617098 [Eh]
	 Correlation Energy        =      -1.9858528739124317 [Eh]
	 Total Energy              =    -799.2804252624843002 [Eh]

	 ================> DF-SCS-MP2 Energies <==================
	-----------------------------------------------------------
	 SCS Same-Spin Scale       =       0.3333333333333333 [-]
	 SCS Opposite-Spin Scale   =       1.2000000000000000 [-]
	 SCS Same-Spin Energy      =      -0.1615684725169073 [Eh]
	 SCS Opposite-Spin Energy  =      -1.8013769476340515 [Eh]
	 SCS Correlation Energy    =      -1.9629454201509589 [Eh]
	 SCS Total Energy          =    -799.2575178087228096 [Eh]
	-----------------------------------------------------------

  Dipole Moment: [D]
     X:    -1.3324      Y:    -3.7315      Z:    -1.1422     Total:     4.1236

*** Psi4 exiting successfully. Buy a developer a beer!
