                               Psi4 1.4a3.dev225

  ==> Input File <==

--------------------------------------------------------------------------
#psi4
#
memory 32 gb

molecule  {
0 1
  S       -0.9014719     1.7562275    -0.1604690
  O        2.1464270     1.2641370     0.3857660
  N        2.2049820    -0.9697390    -0.1110850
  C       -2.1414430    -0.6044570     0.0238790
  C        0.0782130     0.1386370     0.0349560
  C       -0.7695060    -0.9522330     0.1212440
  C       -2.2969850     0.7606620    -0.1265510
  C        1.5543500     0.2131940     0.1149440
  C       -3.2736380    -1.5890470     0.0915590
  C        3.6575090    -0.9906510    -0.1565210
  H       -0.4188890    -1.9677560     0.2899290
  H       -3.2284760     1.3059560    -0.2284190
  H       -3.2707310    -2.1282860     1.0440440
  H       -4.2368380    -1.0812090    -0.0045560
  H       -3.2021610    -2.3307440    -0.7101950
  H        1.7010110    -1.6882330    -0.6139760
  H        4.0494680    -0.5484410    -1.0790020
  H        3.9975300    -2.0243190    -0.0750760
  H        4.0378180    -0.4153140     0.6868970
units angstrom
no_reorient  #important for SAPT in psi4, default
symmetry c1  #important for SAPT in psi4, default
}

set PROPERTIES_ORIGIN ["COM"]
properties('MP2/aug-cc-pvtz', properties = ['dipole'])
--------------------------------------------------------------------------

    Molecular point group: c1
  Charge       = 0
  Multiplicity = 1
  Basis Set: AUG-CC-PVTZ
    Blend: AUG-CC-PVTZ
  Basis Set: (AUG-CC-PVTZ AUX)
    Blend: AUG-CC-PVTZ-JKFIT

    Orbital Energies [Eh]
    ---------------------

    Doubly Occupied:

       1A    -91.994850     2A    -20.519511     3A    -15.588649
       4A    -11.359332     5A    -11.287668     6A    -11.273623
       7A    -11.267080     8A    -11.260188     9A    -11.254746
      10A    -11.239739    11A     -8.991823    12A     -6.672657
      13A     -6.671710    14A     -6.671238    15A     -1.373506
      16A     -1.230682    17A     -1.168502    18A     -1.035258
      19A     -1.013508    20A     -0.955533    21A     -0.911640
      22A     -0.830485    23A     -0.769859    24A     -0.746802
      25A     -0.709343    26A     -0.642000    27A     -0.627643
      28A     -0.614727    29A     -0.596469    30A     -0.591117
      31A     -0.567281    32A     -0.549960    33A     -0.543850
      34A     -0.536107    35A     -0.504756    36A     -0.493674
      37A     -0.477470    38A     -0.432488    39A     -0.397827
      40A     -0.361289    41A     -0.317771

  @DF-RHF Final Energy:  -797.30240480178031

   => Energetics <=

    Nuclear Repulsion Energy =            580.1608426681617630
    One-Electron Energy =               -2244.8217724681953769
    Two-Electron Energy =                 867.3585249982531877
    Total Energy =                       -797.3024048017803125
  Basis Set: (AUG-CC-PVTZ AUX)
    Blend: AUG-CC-PVTZ-RI
    Molecular point group: c1

    Geometry (in Angstrom), charge = 0, multiplicity = 1:

       Center              X                  Y                   Z               Mass
    ------------   -----------------  -----------------  -----------------  -----------------
         S           -0.885429514612     1.655992663841    -0.160666370550    31.972071174400
         O            2.162469385388     1.163902163841     0.385568629450    15.994914619570
         N            2.221024385388    -1.069973836159    -0.111282370550    14.003074004430
         C           -2.125400614612    -0.704691836159     0.023681629450    12.000000000000
         C            0.094255385388     0.038402163841     0.034758629450    12.000000000000
         C           -0.753463614612    -1.052467836159     0.121046629450    12.000000000000
         C           -2.280942614612     0.660427163841    -0.126748370550    12.000000000000
         C            1.570392385388     0.112959163841     0.114746629450    12.000000000000
         C           -3.257595614612    -1.689281836159     0.091361629450    12.000000000000
         C            3.673551385388    -1.090885836159    -0.156718370550    12.000000000000
         H           -0.402846614612    -2.067990836159     0.289731629450     1.007825032230
         H           -3.212433614612     1.205721163841    -0.228616370550     1.007825032230
         H           -3.254688614612    -2.228520836159     1.043846629450     1.007825032230
         H           -4.220795614612    -1.181443836159    -0.004753370550     1.007825032230
         H           -3.186118614612    -2.430978836159    -0.710392370550     1.007825032230
         H            1.717053385388    -1.788467836159    -0.614173370550     1.007825032230
         H            4.065510385388    -0.648675836159    -1.079199370550     1.007825032230
         H            4.013572385388    -2.124553836159    -0.075273370550     1.007825032230
         H            4.053860385388    -0.515548836159     0.686699629450     1.007825032230

  Basis Set: AUG-CC-PVTZ
    Blend: AUG-CC-PVTZ
  Basis Set: (AUG-CC-PVTZ AUX)
    Blend: AUG-CC-PVTZ-JKFIT
	 Reference Energy          =    -797.3024048017803125 [Eh]
	 Singles Energy            =      -0.0000000000000000 [Eh]
	 Same-Spin Energy          =      -0.4857824888537002 [Eh]
	 Opposite-Spin Energy      =      -1.5058502287763533 [Eh]
	 Correlation Energy        =      -1.9916327176300535 [Eh]
	 Total Energy              =    -799.2940375194103808 [Eh]

	 ================> DF-SCS-MP2 Energies <==================
	-----------------------------------------------------------
	 SCS Same-Spin Scale       =       0.3333333333333333 [-]
	 SCS Opposite-Spin Scale   =       1.2000000000000000 [-]
	 SCS Same-Spin Energy      =      -0.1619274962845667 [Eh]
	 SCS Opposite-Spin Energy  =      -1.8070202745316239 [Eh]
	 SCS Correlation Energy    =      -1.9689477708161907 [Eh]
	 SCS Total Energy          =    -799.2713525725964701 [Eh]
	-----------------------------------------------------------

  Dipole Moment: [D]
     X:    -1.5195      Y:    -3.8533      Z:    -1.1339     Total:     4.2945

*** Psi4 exiting successfully. Buy a developer a beer!
