                               Psi4 1.4a3.dev225

  ==> Input File <==

--------------------------------------------------------------------------
#psi4
#
memory 32 gb

molecule  {
0 1
  S       -0.8310180     1.5904030    -0.1391073
  O        2.1464270     1.2641370     0.3857660
  N        2.2049820    -0.9697390    -0.1110850
  C       -2.1414430    -0.6044570     0.0238790
  C        0.0782130     0.1386370     0.0349560
  C       -0.7695060    -0.9522330     0.1212440
  C       -2.2969850     0.7606620    -0.1265510
  C        1.5543500     0.2131940     0.1149440
  C       -3.2736380    -1.5890470     0.0915590
  C        3.6575090    -0.9906510    -0.1565210
  H       -0.4188890    -1.9677560     0.2899290
  H       -3.2284760     1.3059560    -0.2284190
  H       -3.2707310    -2.1282860     1.0440440
  H       -4.2368380    -1.0812090    -0.0045560
  H       -3.2021610    -2.3307440    -0.7101950
  H        1.7010110    -1.6882330    -0.6139760
  H        4.0494680    -0.5484410    -1.0790020
  H        3.9975300    -2.0243190    -0.0750760
  H        4.0378180    -0.4153140     0.6868970
units angstrom
no_reorient  #important for SAPT in psi4, default
symmetry c1  #important for SAPT in psi4, default
}

set PROPERTIES_ORIGIN ["COM"]
properties('MP2/aug-cc-pvtz', properties = ['dipole'])
--------------------------------------------------------------------------

    Molecular point group: c1
  Charge       = 0
  Multiplicity = 1
  Basis Set: AUG-CC-PVTZ
    Blend: AUG-CC-PVTZ
  Basis Set: (AUG-CC-PVTZ AUX)
    Blend: AUG-CC-PVTZ-JKFIT

    Orbital Energies [Eh]
    ---------------------

    Doubly Occupied:

       1A    -91.989808     2A    -20.521542     3A    -15.589370
       4A    -11.361068     5A    -11.274148     6A    -11.267132
       7A    -11.260650     8A    -11.256887     9A    -11.252868
      10A    -11.237657    11A     -8.990263    12A     -6.671173
      13A     -6.670627    14A     -6.669883    15A     -1.376014
      16A     -1.231730    17A     -1.187275    18A     -1.045902
      19A     -1.011679    20A     -0.954225    21A     -0.921792
      22A     -0.828574    23A     -0.768638    24A     -0.751593
      25A     -0.708648    26A     -0.644144    27A     -0.628908
      28A     -0.621617    29A     -0.593739    30A     -0.590804
      31A     -0.568797    32A     -0.551704    33A     -0.549409
      34A     -0.534461    35A     -0.525840    36A     -0.502880
      37A     -0.477371    38A     -0.434537    39A     -0.398731
      40A     -0.349339    41A     -0.327104

  @DF-RHF Final Energy:  -797.31937732804363

   => Energetics <=

    Nuclear Repulsion Energy =            588.6074024591463285
    One-Electron Energy =               -2261.6565008807870072
    Two-Electron Energy =                 875.7297210935971634
    Total Energy =                       -797.3193773280436289
  Basis Set: (AUG-CC-PVTZ AUX)
    Blend: AUG-CC-PVTZ-RI
    Molecular point group: c1

    Geometry (in Angstrom), charge = 0, multiplicity = 1:

       Center              X                  Y                   Z               Mass
    ------------   -----------------  -----------------  -----------------  -----------------
         S           -0.829504446253     1.524364088302    -0.143709828289    31.972071174400
         O            2.147940553747     1.198098088302     0.381163471711    15.994914619570
         N            2.206495553747    -1.035777911698    -0.115687528289    14.003074004430
         C           -2.139929446253    -0.670495911698     0.019276471711    12.000000000000
         C            0.079726553747     0.072598088302     0.030353471711    12.000000000000
         C           -0.767992446253    -1.018271911698     0.116641471711    12.000000000000
         C           -2.295471446253     0.694623088302    -0.131153528289    12.000000000000
         C            1.555863553747     0.147155088302     0.110341471711    12.000000000000
         C           -3.272124446253    -1.655085911698     0.086956471711    12.000000000000
         C            3.659022553747    -1.056689911698    -0.161123528289    12.000000000000
         H           -0.417375446253    -2.033794911698     0.285326471711     1.007825032230
         H           -3.226962446253     1.239917088302    -0.233021528289     1.007825032230
         H           -3.269217446253    -2.194324911698     1.039441471711     1.007825032230
         H           -4.235324446253    -1.147247911698    -0.009158528289     1.007825032230
         H           -3.200647446253    -2.396782911698    -0.714797528289     1.007825032230
         H            1.702524553747    -1.754271911698    -0.618578528289     1.007825032230
         H            4.050981553747    -0.614479911698    -1.083604528289     1.007825032230
         H            3.999043553747    -2.090357911698    -0.079678528289     1.007825032230
         H            4.039331553747    -0.481352911698     0.682294471711     1.007825032230

  Basis Set: AUG-CC-PVTZ
    Blend: AUG-CC-PVTZ
  Basis Set: (AUG-CC-PVTZ AUX)
    Blend: AUG-CC-PVTZ-JKFIT
	 Reference Energy          =    -797.3193773280436289 [Eh]
	 Singles Energy            =      -0.0000000000000000 [Eh]
	 Same-Spin Energy          =      -0.4872453882979825 [Eh]
	 Opposite-Spin Energy      =      -1.5034660990644726 [Eh]
	 Correlation Energy        =      -1.9907114873624550 [Eh]
	 Total Energy              =    -799.3100888154060613 [Eh]

	 ================> DF-SCS-MP2 Energies <==================
	-----------------------------------------------------------
	 SCS Same-Spin Scale       =       0.3333333333333333 [-]
	 SCS Opposite-Spin Scale   =       1.2000000000000000 [-]
	 SCS Same-Spin Energy      =      -0.1624151294326608 [Eh]
	 SCS Opposite-Spin Energy  =      -1.8041593188773670 [Eh]
	 SCS Correlation Energy    =      -1.9665744483100278 [Eh]
	 SCS Total Energy          =    -799.2859517763536132 [Eh]
	-----------------------------------------------------------

  Dipole Moment: [D]
     X:    -1.5070      Y:    -3.7275      Z:    -1.1492     Total:     4.1816

*** Psi4 exiting successfully. Buy a developer a beer!
