                               Psi4 1.4a3.dev225

  ==> Input File <==

--------------------------------------------------------------------------
#psi4
#
memory 32 gb

molecule  {
0 1
  S       -0.8053760     1.6060500    -0.1399530
  O        2.1464270     1.2641370     0.3857660
  N        2.2049820    -0.9697390    -0.1110850
  C       -2.1414430    -0.6044570     0.0238790
  C        0.0782130     0.1386370     0.0349560
  C       -0.7695060    -0.9522330     0.1212440
  C       -2.2969850     0.7606620    -0.1265510
  C        1.5543500     0.2131940     0.1149440
  C       -3.3113288    -1.6218240     0.0938121
  C        3.6575090    -0.9906510    -0.1565210
  H       -0.4188890    -1.9677560     0.2899290
  H       -3.2284760     1.3059560    -0.2284190
  H       -3.2707310    -2.1282860     1.0440440
  H       -4.2368380    -1.0812090    -0.0045560
  H       -3.2021610    -2.3307440    -0.7101950
  H        1.7010110    -1.6882330    -0.6139760
  H        4.0494680    -0.5484410    -1.0790020
  H        3.9975300    -2.0243190    -0.0750760
  H        4.0378180    -0.4153140     0.6868970
units angstrom
no_reorient  #important for SAPT in psi4, default
symmetry c1  #important for SAPT in psi4, default
}

set PROPERTIES_ORIGIN ["COM"]
properties('MP2/aug-cc-pvtz', properties = ['dipole'])
--------------------------------------------------------------------------

    Molecular point group: c1
  Charge       = 0
  Multiplicity = 1
  Basis Set: AUG-CC-PVTZ
    Blend: AUG-CC-PVTZ
  Basis Set: (AUG-CC-PVTZ AUX)
    Blend: AUG-CC-PVTZ-JKFIT

    Orbital Energies [Eh]
    ---------------------

    Doubly Occupied:

       1A    -91.990210     2A    -20.521645     3A    -15.589195
       4A    -11.360657     5A    -11.274578     6A    -11.268904
       7A    -11.260526     8A    -11.257236     9A    -11.255658
      10A    -11.237419    11A     -8.989949    12A     -6.670815
      13A     -6.670266    14A     -6.669553    15A     -1.376126
      16A     -1.231567    17A     -1.182044    18A     -1.041397
      19A     -1.006627    20A     -0.954217    21A     -0.924956
      22A     -0.828368    23A     -0.768256    24A     -0.748999
      25A     -0.707114    26A     -0.643880    27A     -0.627586
      28A     -0.618273    29A     -0.596818    30A     -0.595425
      31A     -0.564111    32A     -0.551594    33A     -0.549289
      34A     -0.539544    35A     -0.519356    36A     -0.501941
      37A     -0.477009    38A     -0.434057    39A     -0.398687
      40A     -0.348404    41A     -0.328210

  @DF-RHF Final Energy:  -797.31789313515071

   => Energetics <=

    Nuclear Repulsion Energy =            587.0430673213339787
    One-Electron Energy =               -2258.5609839810867925
    Two-Electron Energy =                 874.2000235246019884
    Total Energy =                       -797.3178931351507117
  Basis Set: (AUG-CC-PVTZ AUX)
    Blend: AUG-CC-PVTZ-RI
    Molecular point group: c1

    Geometry (in Angstrom), charge = 0, multiplicity = 1:

       Center              X                  Y                   Z               Mass
    ------------   -----------------  -----------------  -----------------  -----------------
         S           -0.806233041577     1.539321313643    -0.144555518094    31.972071174400
         O            2.145569958423     1.197408313643     0.381163481906    15.994914619570
         N            2.204124958423    -1.036467686357    -0.115687518094    14.003074004430
         C           -2.142300041577    -0.671185686357     0.019276481906    12.000000000000
         C            0.077355958423     0.071908313643     0.030353481906    12.000000000000
         C           -0.770363041577    -1.018961686357     0.116641481906    12.000000000000
         C           -2.297842041577     0.693933313643    -0.131153518094    12.000000000000
         C            1.553492958423     0.146465313643     0.110341481906    12.000000000000
         C           -3.312185841577    -1.688552686357     0.089209581906    12.000000000000
         C            3.656651958423    -1.057379686357    -0.161123518094    12.000000000000
         H           -0.419746041577    -2.034484686357     0.285326481906     1.007825032230
         H           -3.229333041577     1.239227313643    -0.233021518094     1.007825032230
         H           -3.271588041577    -2.195014686357     1.039441481906     1.007825032230
         H           -4.237695041577    -1.147937686357    -0.009158518094     1.007825032230
         H           -3.203018041577    -2.397472686357    -0.714797518094     1.007825032230
         H            1.700153958423    -1.754961686357    -0.618578518094     1.007825032230
         H            4.048610958423    -0.615169686357    -1.083604518094     1.007825032230
         H            3.996672958423    -2.091047686357    -0.079678518094     1.007825032230
         H            4.036960958423    -0.482042686357     0.682294481906     1.007825032230

  Basis Set: AUG-CC-PVTZ
    Blend: AUG-CC-PVTZ
  Basis Set: (AUG-CC-PVTZ AUX)
    Blend: AUG-CC-PVTZ-JKFIT
	 Reference Energy          =    -797.3178931351507117 [Eh]
	 Singles Energy            =      -0.0000000000000000 [Eh]
	 Same-Spin Energy          =      -0.4867321011930835 [Eh]
	 Opposite-Spin Energy      =      -1.5036041125573985 [Eh]
	 Correlation Energy        =      -1.9903362137504819 [Eh]
	 Total Energy              =    -799.3082293489012500 [Eh]

	 ================> DF-SCS-MP2 Energies <==================
	-----------------------------------------------------------
	 SCS Same-Spin Scale       =       0.3333333333333333 [-]
	 SCS Opposite-Spin Scale   =       1.2000000000000000 [-]
	 SCS Same-Spin Energy      =      -0.1622440337310278 [Eh]
	 SCS Opposite-Spin Energy  =      -1.8043249350688781 [Eh]
	 SCS Correlation Energy    =      -1.9665689687999059 [Eh]
	 SCS Total Energy          =    -799.2844621039506592 [Eh]
	-----------------------------------------------------------

  Dipole Moment: [D]
     X:    -1.5012      Y:    -3.7499      Z:    -1.1453     Total:     4.1985

*** Psi4 exiting successfully. Buy a developer a beer!
