                               Psi4 1.4a3.dev225

  ==> Input File <==

--------------------------------------------------------------------------
#psi4
#
memory 32 gb

molecule  {
0 1
  S       -0.8053760     1.6060500    -0.1399530
  O        2.1464270     1.2641370     0.3857660
  N        2.2049820    -0.9697390    -0.1110850
  C       -2.1414430    -0.6044570     0.0238790
  C        0.0782130     0.1386370     0.0349560
  C       -0.7695060    -0.9522330     0.1212440
  C       -2.2913582     0.7112785    -0.1211092
  C        1.5543500     0.2131940     0.1149440
  C       -3.2736380    -1.5890470     0.0915590
  C        3.6575090    -0.9906510    -0.1565210
  H       -0.4188890    -1.9677560     0.2899290
  H       -3.2284760     1.3059560    -0.2284190
  H       -3.2707310    -2.1282860     1.0440440
  H       -4.2368380    -1.0812090    -0.0045560
  H       -3.2021610    -2.3307440    -0.7101950
  H        1.7010110    -1.6882330    -0.6139760
  H        4.0494680    -0.5484410    -1.0790020
  H        3.9975300    -2.0243190    -0.0750760
  H        4.0378180    -0.4153140     0.6868970
units angstrom
no_reorient  #important for SAPT in psi4, default
symmetry c1  #important for SAPT in psi4, default
}

set PROPERTIES_ORIGIN ["COM"]
properties('MP2/aug-cc-pvtz', properties = ['dipole'])
--------------------------------------------------------------------------

    Molecular point group: c1
  Charge       = 0
  Multiplicity = 1
  Basis Set: AUG-CC-PVTZ
    Blend: AUG-CC-PVTZ
  Basis Set: (AUG-CC-PVTZ AUX)
    Blend: AUG-CC-PVTZ-JKFIT

    Orbital Energies [Eh]
    ---------------------

    Doubly Occupied:

       1A    -91.987536     2A    -20.522504     3A    -15.589480
       4A    -11.360945     5A    -11.275655     6A    -11.266464
       7A    -11.260716     8A    -11.257433     9A    -11.248182
      10A    -11.238557    11A     -8.987260    12A     -6.668134
      13A     -6.667519    14A     -6.666797    15A     -1.376721
      16A     -1.231940    17A     -1.187713    18A     -1.050296
      19A     -1.003457    20A     -0.953724    21A     -0.926373
      22A     -0.831092    23A     -0.769034    24A     -0.746058
      25A     -0.709190    26A     -0.643647    27A     -0.629560
      28A     -0.620319    29A     -0.594174    30A     -0.592355
      31A     -0.568532    32A     -0.551387    33A     -0.549193
      34A     -0.535427    35A     -0.517344    36A     -0.501488
      37A     -0.478314    38A     -0.435237    39A     -0.398927
      40A     -0.347103    41A     -0.334873

  @DF-RHF Final Energy:  -797.31818112641861

   => Energetics <=

    Nuclear Repulsion Energy =            588.4669111181757444
    One-Electron Energy =               -2261.4088658876430600
    Two-Electron Energy =                 875.6237736430488212
    Total Energy =                       -797.3181811264186081
  Basis Set: (AUG-CC-PVTZ AUX)
    Blend: AUG-CC-PVTZ-RI
    Molecular point group: c1

    Geometry (in Angstrom), charge = 0, multiplicity = 1:

       Center              X                  Y                   Z               Mass
    ------------   -----------------  -----------------  -----------------  -----------------
         S           -0.809585786505     1.540606642439    -0.144802320728    31.972071174400
         O            2.142217213495     1.198693642439     0.380916679272    15.994914619570
         N            2.200772213495    -1.035182357561    -0.115934320728    14.003074004430
         C           -2.145652786505    -0.669900357561     0.019029679272    12.000000000000
         C            0.074003213495     0.073193642439     0.030106679272    12.000000000000
         C           -0.773715786505    -1.017676357561     0.116394679272    12.000000000000
         C           -2.295567986505     0.645835142439    -0.125958520728    12.000000000000
         C            1.550140213495     0.147750642439     0.110094679272    12.000000000000
         C           -3.277847786505    -1.654490357561     0.086709679272    12.000000000000
         C            3.653299213495    -1.056094357561    -0.161370320728    12.000000000000
         H           -0.423098786505    -2.033199357561     0.285079679272     1.007825032230
         H           -3.232685786505     1.240512642439    -0.233268320728     1.007825032230
         H           -3.274940786505    -2.193729357561     1.039194679272     1.007825032230
         H           -4.241047786505    -1.146652357561    -0.009405320728     1.007825032230
         H           -3.206370786505    -2.396187357561    -0.715044320728     1.007825032230
         H            1.696801213495    -1.753676357561    -0.618825320728     1.007825032230
         H            4.045258213495    -0.613884357561    -1.083851320728     1.007825032230
         H            3.993320213495    -2.089762357561    -0.079925320728     1.007825032230
         H            4.033608213495    -0.480757357561     0.682047679272     1.007825032230

  Basis Set: AUG-CC-PVTZ
    Blend: AUG-CC-PVTZ
  Basis Set: (AUG-CC-PVTZ AUX)
    Blend: AUG-CC-PVTZ-JKFIT
	 Reference Energy          =    -797.3181811264186081 [Eh]
	 Singles Energy            =      -0.0000000000000000 [Eh]
	 Same-Spin Energy          =      -0.4861550231353139 [Eh]
	 Opposite-Spin Energy      =      -1.5029910805655269 [Eh]
	 Correlation Energy        =      -1.9891461037008407 [Eh]
	 Total Energy              =    -799.3073272301194265 [Eh]

	 ================> DF-SCS-MP2 Energies <==================
	-----------------------------------------------------------
	 SCS Same-Spin Scale       =       0.3333333333333333 [-]
	 SCS Opposite-Spin Scale   =       1.2000000000000000 [-]
	 SCS Same-Spin Energy      =      -0.1620516743784380 [Eh]
	 SCS Opposite-Spin Energy  =      -1.8035892966786322 [Eh]
	 SCS Correlation Energy    =      -1.9656409710570701 [Eh]
	 SCS Total Energy          =    -799.2838220974756496 [Eh]
	-----------------------------------------------------------

  Dipole Moment: [D]
     X:    -1.4918      Y:    -3.7707      Z:    -1.1428     Total:     4.2130

*** Psi4 exiting successfully. Buy a developer a beer!
