                               Psi4 1.4a3.dev225

  ==> Input File <==

--------------------------------------------------------------------------
#psi4
#
memory 32 gb

molecule  {
0 1
  S       -0.8053760     1.6060500    -0.1399530
  O        2.1464270     1.2641370     0.3857660
  N        2.2049820    -0.9697390    -0.1110850
  C       -2.1414430    -0.6044570     0.0238790
  C        0.0782130     0.1386370     0.0349560
  C       -0.7695060    -0.9522330     0.1212440
  C       -2.2969850     0.7606620    -0.1265510
  C        1.5543500     0.2131940     0.1149440
  C       -3.2736380    -1.5890470     0.0915590
  C        3.6575090    -0.9906510    -0.1565210
  H       -0.4188890    -1.9677560     0.2899290
  H       -3.2284760     1.3059560    -0.2284190
  H       -3.2707310    -2.1282860     1.0440440
  H       -4.2368380    -1.0812090    -0.0045560
  H       -3.2021610    -2.3307440    -0.7101950
  H        1.7010110    -1.6882330    -0.6139760
  H        4.0678062    -0.5223457    -1.0579083
  H        3.9975300    -2.0243190    -0.0750760
  H        4.0378180    -0.4153140     0.6868970
units angstrom
no_reorient  #important for SAPT in psi4, default
symmetry c1  #important for SAPT in psi4, default
}

set PROPERTIES_ORIGIN ["COM"]
properties('MP2/aug-cc-pvtz', properties = ['dipole'])
--------------------------------------------------------------------------

    Molecular point group: c1
  Charge       = 0
  Multiplicity = 1
  Basis Set: AUG-CC-PVTZ
    Blend: AUG-CC-PVTZ
  Basis Set: (AUG-CC-PVTZ AUX)
    Blend: AUG-CC-PVTZ-JKFIT

    Orbital Energies [Eh]
    ---------------------

    Doubly Occupied:

       1A    -91.990476     2A    -20.522119     3A    -15.589761
       4A    -11.361041     5A    -11.275049     6A    -11.269201
       7A    -11.260478     8A    -11.257343     9A    -11.254051
      10A    -11.238340    11A     -8.990224    12A     -6.671092
      13A     -6.670542    14A     -6.669830    15A     -1.376524
      16A     -1.231823    17A     -1.183613    18A     -1.046709
      19A     -1.007328    20A     -0.954103    21A     -0.922868
      22A     -0.829132    23A     -0.768870    24A     -0.750108
      25A     -0.708748    26A     -0.645022    27A     -0.628132
      28A     -0.620366    29A     -0.594109    30A     -0.590894
      31A     -0.567844    32A     -0.552423    33A     -0.548345
      34A     -0.534695    35A     -0.523593    36A     -0.500589
      37A     -0.478368    38A     -0.434915    39A     -0.399062
      40A     -0.348310    41A     -0.327957

  @DF-RHF Final Energy:  -797.31933628752245

   => Energetics <=

    Nuclear Repulsion Energy =            587.9205910899585206
    One-Electron Energy =               -2260.2918589334103672
    Two-Electron Energy =                 875.0519315559292863
    Total Energy =                       -797.3193362875224466
  Basis Set: (AUG-CC-PVTZ AUX)
    Blend: AUG-CC-PVTZ-RI
    Molecular point group: c1

    Geometry (in Angstrom), charge = 0, multiplicity = 1:

       Center              X                  Y                   Z               Mass
    ------------   -----------------  -----------------  -----------------  -----------------
         S           -0.809269482651     1.536614772211    -0.144518247564    31.972071174400
         O            2.142533517349     1.194701772211     0.381200752436    15.994914619570
         N            2.201088517349    -1.039174227789    -0.115650247564    14.003074004430
         C           -2.145336482651    -0.673892227789     0.019313752436    12.000000000000
         C            0.074319517349     0.069201772211     0.030390752436    12.000000000000
         C           -0.773399482651    -1.021668227789     0.116678752436    12.000000000000
         C           -2.300878482651     0.691226772211    -0.131116247564    12.000000000000
         C            1.550456517349     0.143758772211     0.110378752436    12.000000000000
         C           -3.277531482651    -1.658482227789     0.086993752436    12.000000000000
         C            3.653615517349    -1.060086227789    -0.161086247564    12.000000000000
         H           -0.422782482651    -2.037191227789     0.285363752436     1.007825032230
         H           -3.232369482651     1.236520772211    -0.232984247564     1.007825032230
         H           -3.274624482651    -2.197721227789     1.039478752436     1.007825032230
         H           -4.240731482651    -1.150644227789    -0.009121247564     1.007825032230
         H           -3.206054482651    -2.400179227789    -0.714760247564     1.007825032230
         H            1.697117517349    -1.757668227789    -0.618541247564     1.007825032230
         H            4.063912717349    -0.591780927789    -1.062473547564     1.007825032230
         H            3.993636517349    -2.093754227789    -0.079641247564     1.007825032230
         H            4.033924517349    -0.484749227789     0.682331752436     1.007825032230

  Basis Set: AUG-CC-PVTZ
    Blend: AUG-CC-PVTZ
  Basis Set: (AUG-CC-PVTZ AUX)
    Blend: AUG-CC-PVTZ-JKFIT
	 Reference Energy          =    -797.3193362875224466 [Eh]
	 Singles Energy            =      -0.0000000000000000 [Eh]
	 Same-Spin Energy          =      -0.4870382402419740 [Eh]
	 Opposite-Spin Energy      =      -1.5038162689235848 [Eh]
	 Correlation Energy        =      -1.9908545091655587 [Eh]
	 Total Energy              =    -799.3101907966880617 [Eh]

	 ================> DF-SCS-MP2 Energies <==================
	-----------------------------------------------------------
	 SCS Same-Spin Scale       =       0.3333333333333333 [-]
	 SCS Opposite-Spin Scale   =       1.2000000000000000 [-]
	 SCS Same-Spin Energy      =      -0.1623460800806580 [Eh]
	 SCS Opposite-Spin Energy  =      -1.8045795227083017 [Eh]
	 SCS Correlation Energy    =      -1.9669256027889597 [Eh]
	 SCS Total Energy          =    -799.2862618903113798 [Eh]
	-----------------------------------------------------------

  Dipole Moment: [D]
     X:    -1.4975      Y:    -3.7325      Z:    -1.1394     Total:     4.1800

*** Psi4 exiting successfully. Buy a developer a beer!
