                               Psi4 1.4a3.dev225

  ==> Input File <==

--------------------------------------------------------------------------
#psi4
#
memory 32 gb

molecule  {
0 1
  S       -0.8053760     1.6060500    -0.1399530
  O        2.1464270     1.2641370     0.3857660
  N        2.2049820    -0.9697390    -0.1110850
  C       -2.1414430    -0.6044570     0.0238790
  C        0.0782130     0.1386370     0.0349560
  C       -0.9629170    -0.9032047     0.1075178
  C       -2.2969850     0.7606620    -0.1265510
  C        1.5543500     0.2131940     0.1149440
  C       -3.2736380    -1.5890470     0.0915590
  C        3.6575090    -0.9906510    -0.1565210
  H       -0.4188890    -1.9677560     0.2899290
  H       -3.2284760     1.3059560    -0.2284190
  H       -3.2707310    -2.1282860     1.0440440
  H       -4.2368380    -1.0812090    -0.0045560
  H       -3.2021610    -2.3307440    -0.7101950
  H        1.7010110    -1.6882330    -0.6139760
  H        4.0494680    -0.5484410    -1.0790020
  H        3.9975300    -2.0243190    -0.0750760
  H        4.0378180    -0.4153140     0.6868970
units angstrom
no_reorient  #important for SAPT in psi4, default
symmetry c1  #important for SAPT in psi4, default
}

set PROPERTIES_ORIGIN ["COM"]
properties('MP2/aug-cc-pvtz', properties = ['dipole'])
--------------------------------------------------------------------------

    Molecular point group: c1
  Charge       = 0
  Multiplicity = 1
  Basis Set: AUG-CC-PVTZ
    Blend: AUG-CC-PVTZ
  Basis Set: (AUG-CC-PVTZ AUX)
    Blend: AUG-CC-PVTZ-JKFIT

    Orbital Energies [Eh]
    ---------------------

    Doubly Occupied:

       1A    -92.003238     2A    -20.518590     3A    -15.587305
       4A    -11.361615     5A    -11.276404     6A    -11.274055
       7A    -11.259057     8A    -11.253742     9A    -11.239268
      10A    -11.232359    11A     -9.001685    12A     -6.682288
      13A     -6.681942    14A     -6.681522    15A     -1.373838
      16A     -1.229401    17A     -1.208107    18A     -1.060369
      19A     -0.997356    20A     -0.959541    21A     -0.928317
      22A     -0.830092    23A     -0.772334    24A     -0.740956
      25A     -0.706832    26A     -0.642758    27A     -0.630648
      28A     -0.623454    29A     -0.600070    30A     -0.594524
      31A     -0.555680    32A     -0.552999    33A     -0.549592
      34A     -0.543281    35A     -0.509977    36A     -0.502526
      37A     -0.466250    38A     -0.434450    39A     -0.397528
      40A     -0.370711    41A     -0.311029

  @DF-RHF Final Energy:  -797.25258752687444

   => Energetics <=

    Nuclear Repulsion Energy =            589.3005515164858252
    One-Electron Energy =               -2262.8149005584896258
    Two-Electron Energy =                 876.2617615151292512
    Total Energy =                       -797.2525875268744358
  Basis Set: (AUG-CC-PVTZ AUX)
    Blend: AUG-CC-PVTZ-RI
    Molecular point group: c1

    Geometry (in Angstrom), charge = 0, multiplicity = 1:

       Center              X                  Y                   Z               Mass
    ------------   -----------------  -----------------  -----------------  -----------------
         S           -0.794180432229     1.532989653887    -0.143318734038    31.972071174400
         O            2.157622567771     1.191076653887     0.382400265962    15.994914619570
         N            2.216177567771    -1.042799346113    -0.114450734038    14.003074004430
         C           -2.130247432229    -0.677517346113     0.020513265962    12.000000000000
         C            0.089408567771     0.065576653887     0.031590265962    12.000000000000
         C           -0.951721432229    -0.976265046113     0.104152065962    12.000000000000
         C           -2.285789432229     0.687601653887    -0.129916734038    12.000000000000
         C            1.565545567771     0.140133653887     0.111578265962    12.000000000000
         C           -3.262442432229    -1.662107346113     0.088193265962    12.000000000000
         C            3.668704567771    -1.063711346113    -0.159886734038    12.000000000000
         H           -0.407693432229    -2.040816346113     0.286563265962     1.007825032230
         H           -3.217280432229     1.232895653887    -0.231784734038     1.007825032230
         H           -3.259535432229    -2.201346346113     1.040678265962     1.007825032230
         H           -4.225642432229    -1.154269346113    -0.007921734038     1.007825032230
         H           -3.190965432229    -2.403804346113    -0.713560734038     1.007825032230
         H            1.712206567771    -1.761293346113    -0.617341734038     1.007825032230
         H            4.060663567771    -0.621501346113    -1.082367734038     1.007825032230
         H            4.008725567771    -2.097379346113    -0.078441734038     1.007825032230
         H            4.049013567771    -0.488374346113     0.683531265962     1.007825032230

  Basis Set: AUG-CC-PVTZ
    Blend: AUG-CC-PVTZ
  Basis Set: (AUG-CC-PVTZ AUX)
    Blend: AUG-CC-PVTZ-JKFIT
	 Reference Energy          =    -797.2525875268744358 [Eh]
	 Singles Energy            =      -0.0000000000000000 [Eh]
	 Same-Spin Energy          =      -0.4926039274705027 [Eh]
	 Opposite-Spin Energy      =      -1.5104729369287622 [Eh]
	 Correlation Energy        =      -2.0030768643992651 [Eh]
	 Total Energy              =    -799.2556643912737400 [Eh]

	 ================> DF-SCS-MP2 Energies <==================
	-----------------------------------------------------------
	 SCS Same-Spin Scale       =       0.3333333333333333 [-]
	 SCS Opposite-Spin Scale   =       1.2000000000000000 [-]
	 SCS Same-Spin Energy      =      -0.1642013091568342 [Eh]
	 SCS Opposite-Spin Energy  =      -1.8125675243145145 [Eh]
	 SCS Correlation Energy    =      -1.9767688334713487 [Eh]
	 SCS Total Energy          =    -799.2293563603458324 [Eh]
	-----------------------------------------------------------

  Dipole Moment: [D]
     X:    -1.4881      Y:    -3.6137      Z:    -1.1721     Total:     4.0801

*** Psi4 exiting successfully. Buy a developer a beer!
