                               Psi4 1.4a3.dev225

  ==> Input File <==

--------------------------------------------------------------------------
#psi4
#
memory 32 gb

molecule  {
0 1
  S       -0.8053760     1.6060500    -0.1399530
  O        2.1464270     1.2641370     0.3857660
  N        2.2049820    -0.9697390    -0.1110850
  C       -2.1474893    -0.6282119     0.0273742
  C        0.0782130     0.1386370     0.0349560
  C       -0.7695060    -0.9522330     0.1212440
  C       -2.2969850     0.7606620    -0.1265510
  C        1.5543500     0.2131940     0.1149440
  C       -3.2736380    -1.5890470     0.0915590
  C        3.6575090    -0.9906510    -0.1565210
  H       -0.4188890    -1.9677560     0.2899290
  H       -3.2284760     1.3059560    -0.2284190
  H       -3.2707310    -2.1282860     1.0440440
  H       -4.2368380    -1.0812090    -0.0045560
  H       -3.2021610    -2.3307440    -0.7101950
  H        1.7010110    -1.6882330    -0.6139760
  H        4.0494680    -0.5484410    -1.0790020
  H        3.9975300    -2.0243190    -0.0750760
  H        4.0378180    -0.4153140     0.6868970
units angstrom
no_reorient  #important for SAPT in psi4, default
symmetry c1  #important for SAPT in psi4, default
}

set PROPERTIES_ORIGIN ["COM"]
properties('MP2/aug-cc-pvtz', properties = ['dipole'])
--------------------------------------------------------------------------

    Molecular point group: c1
  Charge       = 0
  Multiplicity = 1
  Basis Set: AUG-CC-PVTZ
    Blend: AUG-CC-PVTZ
  Basis Set: (AUG-CC-PVTZ AUX)
    Blend: AUG-CC-PVTZ-JKFIT

    Orbital Energies [Eh]
    ---------------------

    Doubly Occupied:

       1A    -91.991810     2A    -20.521502     3A    -15.589040
       4A    -11.360689     5A    -11.274441     6A    -11.271919
       7A    -11.260434     8A    -11.257536     9A    -11.255800
      10A    -11.237777    11A     -8.991390    12A     -6.672251
      13A     -6.671695    14A     -6.671013    15A     -1.376042
      16A     -1.231441    17A     -1.181330    18A     -1.049429
      19A     -1.006799    20A     -0.954465    21A     -0.921980
      22A     -0.827180    23A     -0.768228    24A     -0.749737
      25A     -0.709458    26A     -0.643714    27A     -0.629243
      28A     -0.620556    29A     -0.594270    30A     -0.592397
      31A     -0.567653    32A     -0.551602    33A     -0.549636
      34A     -0.535019    35A     -0.523327    36A     -0.499524
      37A     -0.478962    38A     -0.434774    39A     -0.398630
      40A     -0.348702    41A     -0.324246

  @DF-RHF Final Energy:  -797.31739323784427

   => Energetics <=

    Nuclear Repulsion Energy =            587.6449197271817866
    One-Electron Energy =               -2259.7333438568875863
    Two-Electron Energy =                 874.7710308918615283
    Total Energy =                       -797.3173932378442714
  Basis Set: (AUG-CC-PVTZ AUX)
    Blend: AUG-CC-PVTZ-RI
    Molecular point group: c1

    Geometry (in Angstrom), charge = 0, multiplicity = 1:

       Center              X                  Y                   Z               Mass
    ------------   -----------------  -----------------  -----------------  -----------------
         S           -0.808682298620     1.538623010875    -0.144651655564    31.972071174400
         O            2.143120701380     1.196710010875     0.381067344436    15.994914619570
         N            2.201675701380    -1.037165989125    -0.115783655564    14.003074004430
         C           -2.150795598620    -0.695638889125     0.022675544436    12.000000000000
         C            0.074906701380     0.071210010875     0.030257344436    12.000000000000
         C           -0.772812298620    -1.019659989125     0.116545344436    12.000000000000
         C           -2.300291298620     0.693235010875    -0.131249655564    12.000000000000
         C            1.551043701380     0.145767010875     0.110245344436    12.000000000000
         C           -3.276944298620    -1.656473989125     0.086860344436    12.000000000000
         C            3.654202701380    -1.058077989125    -0.161219655564    12.000000000000
         H           -0.422195298620    -2.035182989125     0.285230344436     1.007825032230
         H           -3.231782298620     1.238529010875    -0.233117655564     1.007825032230
         H           -3.274037298620    -2.195712989125     1.039345344436     1.007825032230
         H           -4.240144298620    -1.148635989125    -0.009254655564     1.007825032230
         H           -3.205467298620    -2.398170989125    -0.714893655564     1.007825032230
         H            1.697704701380    -1.755659989125    -0.618674655564     1.007825032230
         H            4.046161701380    -0.615867989125    -1.083700655564     1.007825032230
         H            3.994223701380    -2.091745989125    -0.079774655564     1.007825032230
         H            4.034511701380    -0.482740989125     0.682198344436     1.007825032230

  Basis Set: AUG-CC-PVTZ
    Blend: AUG-CC-PVTZ
  Basis Set: (AUG-CC-PVTZ AUX)
    Blend: AUG-CC-PVTZ-JKFIT
	 Reference Energy          =    -797.3173932378442714 [Eh]
	 Singles Energy            =      -0.0000000000000000 [Eh]
	 Same-Spin Energy          =      -0.4876060057302428 [Eh]
	 Opposite-Spin Energy      =      -1.5045625898568267 [Eh]
	 Correlation Energy        =      -1.9921685955870694 [Eh]
	 Total Energy              =    -799.3095618334313031 [Eh]

	 ================> DF-SCS-MP2 Energies <==================
	-----------------------------------------------------------
	 SCS Same-Spin Scale       =       0.3333333333333333 [-]
	 SCS Opposite-Spin Scale   =       1.2000000000000000 [-]
	 SCS Same-Spin Energy      =      -0.1625353352434143 [Eh]
	 SCS Opposite-Spin Energy  =      -1.8054751078281919 [Eh]
	 SCS Correlation Energy    =      -1.9680104430716061 [Eh]
	 SCS Total Energy          =    -799.2854036809159197 [Eh]
	-----------------------------------------------------------

  Dipole Moment: [D]
     X:    -1.5196      Y:    -3.7538      Z:    -1.1458     Total:     4.2087

*** Psi4 exiting successfully. Buy a developer a beer!
