                               Psi4 1.4a3.dev225

  ==> Input File <==

--------------------------------------------------------------------------
#psi4
#
memory 32 gb

molecule  {
0 1
  S       -0.8053760     1.6060500    -0.1399530
  O        2.1464270     1.2641370     0.3857660
  N        2.2049820    -0.9697390    -0.1110850
  C       -2.1350185    -0.5806650     0.0214839
  C        0.0782130     0.1386370     0.0349560
  C       -0.7695060    -0.9522330     0.1212440
  C       -2.2969850     0.7606620    -0.1265510
  C        1.5543500     0.2131940     0.1149440
  C       -3.2736380    -1.5890470     0.0915590
  C        3.6575090    -0.9906510    -0.1565210
  H       -0.4188890    -1.9677560     0.2899290
  H       -3.2284760     1.3059560    -0.2284190
  H       -3.2707310    -2.1282860     1.0440440
  H       -4.2368380    -1.0812090    -0.0045560
  H       -3.2021610    -2.3307440    -0.7101950
  H        1.7010110    -1.6882330    -0.6139760
  H        4.0494680    -0.5484410    -1.0790020
  H        3.9975300    -2.0243190    -0.0750760
  H        4.0378180    -0.4153140     0.6868970
units angstrom
no_reorient  #important for SAPT in psi4, default
symmetry c1  #important for SAPT in psi4, default
}

set PROPERTIES_ORIGIN ["COM"]
properties('MP2/aug-cc-pvtz', properties = ['dipole'])
--------------------------------------------------------------------------

    Molecular point group: c1
  Charge       = 0
  Multiplicity = 1
  Basis Set: AUG-CC-PVTZ
    Blend: AUG-CC-PVTZ
  Basis Set: (AUG-CC-PVTZ AUX)
    Blend: AUG-CC-PVTZ-JKFIT

    Orbital Energies [Eh]
    ---------------------

    Doubly Occupied:

       1A    -91.989018     2A    -20.522274     3A    -15.589738
       4A    -11.361084     5A    -11.275498     6A    -11.266257
       7A    -11.260883     8A    -11.257111     9A    -11.252126
      10A    -11.238812    11A     -8.988935    12A     -6.669809
      13A     -6.669265    14A     -6.668523    15A     -1.376667
      16A     -1.232102    17A     -1.185976    18A     -1.044398
      19A     -1.007637    20A     -0.953815    21A     -0.923499
      22A     -0.830418    23A     -0.769223    24A     -0.750320
      25A     -0.707835    26A     -0.644440    27A     -0.628778
      28A     -0.620559    29A     -0.594266    30A     -0.589446
      31A     -0.568677    32A     -0.551833    33A     -0.549145
      34A     -0.535053    35A     -0.521780    36A     -0.502047
      37A     -0.477266    38A     -0.434543    39A     -0.399087
      40A     -0.347820    41A     -0.331593

  @DF-RHF Final Energy:  -797.31995981991463

   => Energetics <=

    Nuclear Repulsion Energy =            588.2320376310252641
    One-Electron Energy =               -2260.9288826532597341
    Two-Electron Energy =                 875.3768852023197269
    Total Energy =                       -797.3199598199146294
  Basis Set: (AUG-CC-PVTZ AUX)
    Blend: AUG-CC-PVTZ-RI
    Molecular point group: c1

    Geometry (in Angstrom), charge = 0, multiplicity = 1:

       Center              X                  Y                   Z               Mass
    ------------   -----------------  -----------------  -----------------  -----------------
         S           -0.809647527798     1.534942921770    -0.144195751418    31.972071174400
         O            2.142155472202     1.193029921770     0.381523248582    15.994914619570
         N            2.200710472202    -1.040846078230    -0.115327751418    14.003074004430
         C           -2.139290027798    -0.651772078230     0.017241148582    12.000000000000
         C            0.073941472202     0.067529921770     0.030713248582    12.000000000000
         C           -0.773777527798    -1.023340078230     0.117001248582    12.000000000000
         C           -2.301256527798     0.689554921770    -0.130793751418    12.000000000000
         C            1.550078472202     0.142086921770     0.110701248582    12.000000000000
         C           -3.277909527798    -1.660154078230     0.087316248582    12.000000000000
         C            3.653237472202    -1.061758078230    -0.160763751418    12.000000000000
         H           -0.423160527798    -2.038863078230     0.285686248582     1.007825032230
         H           -3.232747527798     1.234848921770    -0.232661751418     1.007825032230
         H           -3.275002527798    -2.199393078230     1.039801248582     1.007825032230
         H           -4.241109527798    -1.152316078230    -0.008798751418     1.007825032230
         H           -3.206432527798    -2.401851078230    -0.714437751418     1.007825032230
         H            1.696739472202    -1.759340078230    -0.618218751418     1.007825032230
         H            4.045196472202    -0.619548078230    -1.083244751418     1.007825032230
         H            3.993258472202    -2.095426078230    -0.079318751418     1.007825032230
         H            4.033546472202    -0.486421078230     0.682654248582     1.007825032230

  Basis Set: AUG-CC-PVTZ
    Blend: AUG-CC-PVTZ
  Basis Set: (AUG-CC-PVTZ AUX)
    Blend: AUG-CC-PVTZ-JKFIT
	 Reference Energy          =    -797.3199598199146294 [Eh]
	 Singles Energy            =      -0.0000000000000000 [Eh]
	 Same-Spin Energy          =      -0.4864779884900355 [Eh]
	 Opposite-Spin Energy      =      -1.5031222053968567 [Eh]
	 Correlation Energy        =      -1.9896001938868921 [Eh]
	 Total Energy              =    -799.3095600138015016 [Eh]

	 ================> DF-SCS-MP2 Energies <==================
	-----------------------------------------------------------
	 SCS Same-Spin Scale       =       0.3333333333333333 [-]
	 SCS Opposite-Spin Scale   =       1.2000000000000000 [-]
	 SCS Same-Spin Energy      =      -0.1621593294966785 [Eh]
	 SCS Opposite-Spin Energy  =      -1.8037466464762280 [Eh]
	 SCS Correlation Energy    =      -1.9659059759729065 [Eh]
	 SCS Total Energy          =    -799.2858657958875028 [Eh]
	-----------------------------------------------------------

  Dipole Moment: [D]
     X:    -1.4645      Y:    -3.7427      Z:    -1.1449     Total:     4.1789

*** Psi4 exiting successfully. Buy a developer a beer!
