                               Psi4 1.4a3.dev225

  ==> Input File <==

--------------------------------------------------------------------------
#psi4
#
memory 32 gb

molecule  {
0 1
  S       -0.8053760     1.6060500    -0.1399530
  O        2.1464270     1.2641370     0.3857660
  N        2.2049820    -0.9697390    -0.1110850
  C       -2.1711545    -0.7491778     0.0388465
  C        0.0782130     0.1386370     0.0349560
  C       -0.7695060    -0.9522330     0.1212440
  C       -2.2969850     0.7606620    -0.1265510
  C        1.5543500     0.2131940     0.1149440
  C       -3.2736380    -1.5890470     0.0915590
  C        3.6575090    -0.9906510    -0.1565210
  H       -0.4188890    -1.9677560     0.2899290
  H       -3.2284760     1.3059560    -0.2284190
  H       -3.2707310    -2.1282860     1.0440440
  H       -4.2368380    -1.0812090    -0.0045560
  H       -3.2021610    -2.3307440    -0.7101950
  H        1.7010110    -1.6882330    -0.6139760
  H        4.0494680    -0.5484410    -1.0790020
  H        3.9975300    -2.0243190    -0.0750760
  H        4.0378180    -0.4153140     0.6868970
units angstrom
no_reorient  #important for SAPT in psi4, default
symmetry c1  #important for SAPT in psi4, default
}

set PROPERTIES_ORIGIN ["COM"]
properties('MP2/aug-cc-pvtz', properties = ['dipole'])
--------------------------------------------------------------------------

    Molecular point group: c1
  Charge       = 0
  Multiplicity = 1
  Basis Set: AUG-CC-PVTZ
    Blend: AUG-CC-PVTZ
  Basis Set: (AUG-CC-PVTZ AUX)
    Blend: AUG-CC-PVTZ-JKFIT

    Orbital Energies [Eh]
    ---------------------

    Doubly Occupied:

       1A    -91.998679     2A    -20.519216     3A    -15.587046
       4A    -11.359363     5A    -11.283852     6A    -11.271523
       7A    -11.265489     8A    -11.259140     9A    -11.258807
      10A    -11.235352    11A     -8.997441    12A     -6.678244
      13A     -6.677688    14A     -6.677144    15A     -1.374165
      16A     -1.229570    17A     -1.172926    18A     -1.068461
      19A     -1.003688    20A     -0.957092    21A     -0.916837
      22A     -0.819284    23A     -0.766297    24A     -0.748350
      25A     -0.711417    26A     -0.641884    27A     -0.632776
      28A     -0.620463    29A     -0.603391    30A     -0.596785
      31A     -0.580417    32A     -0.552052    33A     -0.549529
      34A     -0.537269    35A     -0.506378    36A     -0.493994
      37A     -0.474967    38A     -0.434095    39A     -0.397239
      40A     -0.350969    41A     -0.306664

  @DF-RHF Final Energy:  -797.28429409544606

   => Energetics <=

    Nuclear Repulsion Energy =            586.4022240607770300
    One-Electron Energy =               -2257.1411534812364152
    Two-Electron Energy =                 873.4546353250134416
    Total Energy =                       -797.2842940954460573
  Basis Set: (AUG-CC-PVTZ AUX)
    Blend: AUG-CC-PVTZ-RI
    Molecular point group: c1

    Geometry (in Angstrom), charge = 0, multiplicity = 1:

       Center              X                  Y                   Z               Mass
    ------------   -----------------  -----------------  -----------------  -----------------
         S           -0.806850632524     1.547985667339    -0.145539601703    31.972071174400
         O            2.144952367476     1.206072667339     0.380179398297    15.994914619570
         N            2.203507367476    -1.027803332661    -0.116671601703    14.003074004430
         C           -2.172629132524    -0.807242132661     0.033259898297    12.000000000000
         C            0.076738367476     0.080572667339     0.029369398297    12.000000000000
         C           -0.770980632524    -1.010297332661     0.115657398297    12.000000000000
         C           -2.298459632524     0.702597667339    -0.132137601703    12.000000000000
         C            1.552875367476     0.155129667339     0.109357398297    12.000000000000
         C           -3.275112632524    -1.647111332661     0.085972398297    12.000000000000
         C            3.656034367476    -1.048715332661    -0.162107601703    12.000000000000
         H           -0.420363632524    -2.025820332661     0.284342398297     1.007825032230
         H           -3.229950632524     1.247891667339    -0.234005601703     1.007825032230
         H           -3.272205632524    -2.186350332661     1.038457398297     1.007825032230
         H           -4.238312632524    -1.139273332661    -0.010142601703     1.007825032230
         H           -3.203635632524    -2.388808332661    -0.715781601703     1.007825032230
         H            1.699536367476    -1.746297332661    -0.619562601703     1.007825032230
         H            4.047993367476    -0.606505332661    -1.084588601703     1.007825032230
         H            3.996055367476    -2.082383332661    -0.080662601703     1.007825032230
         H            4.036343367476    -0.473378332661     0.681310398297     1.007825032230

  Basis Set: AUG-CC-PVTZ
    Blend: AUG-CC-PVTZ
  Basis Set: (AUG-CC-PVTZ AUX)
    Blend: AUG-CC-PVTZ-JKFIT
	 Reference Energy          =    -797.2842940954460573 [Eh]
	 Singles Energy            =      -0.0000000000000000 [Eh]
	 Same-Spin Energy          =      -0.4912924638409553 [Eh]
	 Opposite-Spin Energy      =      -1.5096657005534151 [Eh]
	 Correlation Energy        =      -2.0009581643943704 [Eh]
	 Total Energy              =    -799.2852522598403766 [Eh]

	 ================> DF-SCS-MP2 Energies <==================
	-----------------------------------------------------------
	 SCS Same-Spin Scale       =       0.3333333333333333 [-]
	 SCS Opposite-Spin Scale   =       1.2000000000000000 [-]
	 SCS Same-Spin Energy      =      -0.1637641546136517 [Eh]
	 SCS Opposite-Spin Energy  =      -1.8115988406640979 [Eh]
	 SCS Correlation Energy    =      -1.9753629952777496 [Eh]
	 SCS Total Energy          =    -799.2596570907238629 [Eh]
	-----------------------------------------------------------

  Dipole Moment: [D]
     X:    -1.6757      Y:    -3.8274      Z:    -1.1413     Total:     4.3312

*** Psi4 exiting successfully. Buy a developer a beer!
