                               Psi4 1.4a3.dev225

  ==> Input File <==

--------------------------------------------------------------------------
#psi4
#
memory 32 gb

molecule  {
0 1
  S       -0.8053760     1.6060500    -0.1399530
  O        2.1464270     1.2641370     0.3857660
  N        2.2049820    -0.9697390    -0.1110850
  C       -2.1414430    -0.6044570     0.0238790
  C        0.0782130     0.1386370     0.0349560
  C       -0.7695060    -0.9522330     0.1212440
  C       -2.2969850     0.7606620    -0.1265510
  C        1.5543500     0.2131940     0.1149440
  C       -3.2736380    -1.5890470     0.0915590
  C        3.6575090    -0.9906510    -0.1565210
  H       -0.4188890    -1.9677560     0.2899290
  H       -3.2284760     1.3059560    -0.2284190
  H       -3.2707310    -2.1282860     1.0440440
  H       -4.2368380    -1.0812090    -0.0045560
  H       -3.2021610    -2.3307440    -0.7101950
  H        1.7508354    -1.6172000    -0.5642583
  H        4.0494680    -0.5484410    -1.0790020
  H        3.9975300    -2.0243190    -0.0750760
  H        4.0378180    -0.4153140     0.6868970
units angstrom
no_reorient  #important for SAPT in psi4, default
symmetry c1  #important for SAPT in psi4, default
}

set PROPERTIES_ORIGIN ["COM"]
properties('MP2/aug-cc-pvtz', properties = ['dipole'])
--------------------------------------------------------------------------

    Molecular point group: c1
  Charge       = 0
  Multiplicity = 1
  Basis Set: AUG-CC-PVTZ
    Blend: AUG-CC-PVTZ
  Basis Set: (AUG-CC-PVTZ AUX)
    Blend: AUG-CC-PVTZ-JKFIT

    Orbital Energies [Eh]
    ---------------------

    Doubly Occupied:

       1A    -91.990643     2A    -20.522127     3A    -15.579294
       4A    -11.361146     5A    -11.275215     6A    -11.269506
       7A    -11.260805     8A    -11.257684     9A    -11.254188
      10A    -11.238380    11A     -8.990390    12A     -6.671258
      13A     -6.670708    14A     -6.669995    15A     -1.377607
      16A     -1.245529    17A     -1.184093    18A     -1.046921
      19A     -1.007648    20A     -0.955820    21A     -0.924404
      22A     -0.840253    23A     -0.783027    24A     -0.750520
      25A     -0.709381    26A     -0.646401    27A     -0.629961
      28A     -0.621813    29A     -0.594338    30A     -0.591003
      31A     -0.569344    32A     -0.555751    33A     -0.549689
      34A     -0.534771    35A     -0.523867    36A     -0.501047
      37A     -0.478534    38A     -0.435339    39A     -0.400592
      40A     -0.348546    41A     -0.328272

  @DF-RHF Final Energy:  -797.31307062054793

   => Energetics <=

    Nuclear Repulsion Energy =            588.5162038657877019
    One-Electron Energy =               -2261.3669311671701507
    Two-Electron Energy =                 875.5376566808345160
    Total Energy =                       -797.3130706205479328
  Basis Set: (AUG-CC-PVTZ AUX)
    Blend: AUG-CC-PVTZ-RI
    Molecular point group: c1

    Geometry (in Angstrom), charge = 0, multiplicity = 1:

       Center              X                  Y                   Z               Mass
    ------------   -----------------  -----------------  -----------------  -----------------
         S           -0.809474155518     1.536322659226    -0.144704314988    31.972071174400
         O            2.142328844482     1.194409659226     0.381014685012    15.994914619570
         N            2.200883844482    -1.039466340774    -0.115836314988    14.003074004430
         C           -2.145541155518    -0.674184340774     0.019127685012    12.000000000000
         C            0.074114844482     0.068909659226     0.030204685012    12.000000000000
         C           -0.773604155518    -1.021960340774     0.116492685012    12.000000000000
         C           -2.301083155518     0.690934659226    -0.131302314988    12.000000000000
         C            1.550251844482     0.143466659226     0.110192685012    12.000000000000
         C           -3.277736155518    -1.658774340774     0.086807685012    12.000000000000
         C            3.653410844482    -1.060378340774    -0.161272314988    12.000000000000
         H           -0.422987155518    -2.037483340774     0.285177685012     1.007825032230
         H           -3.232574155518     1.236228659226    -0.233170314988     1.007825032230
         H           -3.274829155518    -2.198013340774     1.039292685012     1.007825032230
         H           -4.240936155518    -1.150936340774    -0.009307314988     1.007825032230
         H           -3.206259155518    -2.400471340774    -0.714946314988     1.007825032230
         H            1.746737244482    -1.686927340774    -0.569009614988     1.007825032230
         H            4.045369844482    -0.618168340774    -1.083753314988     1.007825032230
         H            3.993431844482    -2.094046340774    -0.079827314988     1.007825032230
         H            4.033719844482    -0.485041340774     0.682145685012     1.007825032230

  Basis Set: AUG-CC-PVTZ
    Blend: AUG-CC-PVTZ
  Basis Set: (AUG-CC-PVTZ AUX)
    Blend: AUG-CC-PVTZ-JKFIT
	 Reference Energy          =    -797.3130706205479328 [Eh]
	 Singles Energy            =      -0.0000000000000000 [Eh]
	 Same-Spin Energy          =      -0.4862587863680478 [Eh]
	 Opposite-Spin Energy      =      -1.5021579234418083 [Eh]
	 Correlation Energy        =      -1.9884167098098562 [Eh]
	 Total Energy              =    -799.3014873303577588 [Eh]

	 ================> DF-SCS-MP2 Energies <==================
	-----------------------------------------------------------
	 SCS Same-Spin Scale       =       0.3333333333333333 [-]
	 SCS Opposite-Spin Scale   =       1.2000000000000000 [-]
	 SCS Same-Spin Energy      =      -0.1620862621226826 [Eh]
	 SCS Opposite-Spin Energy  =      -1.8025895081301699 [Eh]
	 SCS Correlation Energy    =      -1.9646757702528526 [Eh]
	 SCS Total Energy          =    -799.2777463908007576 [Eh]
	-----------------------------------------------------------

  Dipole Moment: [D]
     X:    -1.4874      Y:    -3.6898      Z:    -1.1067     Total:     4.1293

*** Psi4 exiting successfully. Buy a developer a beer!
