                               Psi4 1.4a3.dev225

  ==> Input File <==

--------------------------------------------------------------------------
#psi4
#
memory 32 gb

molecule  {
0 1
  S       -0.8053760     1.6060500    -0.1399530
  O        2.1464270     1.2641370     0.3857660
  N        2.2049820    -0.9697390    -0.1110850
  C       -2.1414430    -0.6044570     0.0238790
  C        0.0782130     0.1386370     0.0349560
  C       -0.7695060    -0.9522330     0.1212440
  C       -2.2969850     0.7606620    -0.1265510
  C        1.3548965     0.2031200     0.1041361
  C       -3.2736380    -1.5890470     0.0915590
  C        3.6575090    -0.9906510    -0.1565210
  H       -0.4188890    -1.9677560     0.2899290
  H       -3.2284760     1.3059560    -0.2284190
  H       -3.2707310    -2.1282860     1.0440440
  H       -4.2368380    -1.0812090    -0.0045560
  H       -3.2021610    -2.3307440    -0.7101950
  H        1.7010110    -1.6882330    -0.6139760
  H        4.0494680    -0.5484410    -1.0790020
  H        3.9975300    -2.0243190    -0.0750760
  H        4.0378180    -0.4153140     0.6868970
units angstrom
no_reorient  #important for SAPT in psi4, default
symmetry c1  #important for SAPT in psi4, default
}

set PROPERTIES_ORIGIN ["COM"]
properties('MP2/aug-cc-pvtz', properties = ['dipole'])
--------------------------------------------------------------------------

    Molecular point group: c1
  Charge       = 0
  Multiplicity = 1
  Basis Set: AUG-CC-PVTZ
    Blend: AUG-CC-PVTZ
  Basis Set: (AUG-CC-PVTZ AUX)
    Blend: AUG-CC-PVTZ-JKFIT

    Orbital Energies [Eh]
    ---------------------

    Doubly Occupied:

       1A    -92.006321     2A    -20.500785     3A    -15.575027
       4A    -11.354751     5A    -11.293124     6A    -11.282874
       7A    -11.268553     8A    -11.267644     9A    -11.249604
      10A    -11.248925    11A     -9.005862    12A     -6.686630
      13A     -6.686008    14A     -6.685303    15A     -1.306575
      16A     -1.205027    17A     -1.180889    18A     -1.079750
      19A     -1.030661    20A     -0.964127    21A     -0.923225
      22A     -0.863158    23A     -0.769967    24A     -0.733974
      25A     -0.716561    26A     -0.633894    27A     -0.618023
      28A     -0.610264    29A     -0.598912    30A     -0.594401
      31A     -0.572426    32A     -0.556459    33A     -0.546898
      34A     -0.544292    35A     -0.510350    36A     -0.489569
      37A     -0.477845    38A     -0.412034    39A     -0.371701
      40A     -0.359959    41A     -0.340320

  @DF-RHF Final Energy:  -797.24590110564691

   => Energetics <=

    Nuclear Repulsion Energy =            588.9473808171605924
    One-Electron Energy =               -2262.1412227395098853
    Two-Electron Energy =                 875.9479408167023848
    Total Energy =                       -797.2459011056469080
  Basis Set: (AUG-CC-PVTZ AUX)
    Blend: AUG-CC-PVTZ-RI
    Molecular point group: c1

    Geometry (in Angstrom), charge = 0, multiplicity = 1:

       Center              X                  Y                   Z               Mass
    ------------   -----------------  -----------------  -----------------  -----------------
         S           -0.793712747934     1.537564120999    -0.143544607945    31.972071174400
         O            2.158090252066     1.195651120999     0.382174392055    15.994914619570
         N            2.216645252066    -1.038224879001    -0.114676607945    14.003074004430
         C           -2.129779747934    -0.672942879001     0.020287392055    12.000000000000
         C            0.089876252066     0.070151120999     0.031364392055    12.000000000000
         C           -0.757842747934    -1.020718879001     0.117652392055    12.000000000000
         C           -2.285321747934     0.692176120999    -0.130142607945    12.000000000000
         C            1.366559752066     0.134634120999     0.100544492055    12.000000000000
         C           -3.261974747934    -1.657532879001     0.087967392055    12.000000000000
         C            3.669172252066    -1.059136879001    -0.160112607945    12.000000000000
         H           -0.407225747934    -2.036241879001     0.286337392055     1.007825032230
         H           -3.216812747934     1.237470120999    -0.232010607945     1.007825032230
         H           -3.259067747934    -2.196771879001     1.040452392055     1.007825032230
         H           -4.225174747934    -1.149694879001    -0.008147607945     1.007825032230
         H           -3.190497747934    -2.399229879001    -0.713786607945     1.007825032230
         H            1.712674252066    -1.756718879001    -0.617567607945     1.007825032230
         H            4.061131252066    -0.616926879001    -1.082593607945     1.007825032230
         H            4.009193252066    -2.092804879001    -0.078667607945     1.007825032230
         H            4.049481252066    -0.483799879001     0.683305392055     1.007825032230

  Basis Set: AUG-CC-PVTZ
    Blend: AUG-CC-PVTZ
  Basis Set: (AUG-CC-PVTZ AUX)
    Blend: AUG-CC-PVTZ-JKFIT
	 Reference Energy          =    -797.2459011056469080 [Eh]
	 Singles Energy            =      -0.0000000000000000 [Eh]
	 Same-Spin Energy          =      -0.4932145977931966 [Eh]
	 Opposite-Spin Energy      =      -1.5149487263536279 [Eh]
	 Correlation Energy        =      -2.0081633241468246 [Eh]
	 Total Energy              =    -799.2540644297937433 [Eh]

	 ================> DF-SCS-MP2 Energies <==================
	-----------------------------------------------------------
	 SCS Same-Spin Scale       =       0.3333333333333333 [-]
	 SCS Opposite-Spin Scale   =       1.2000000000000000 [-]
	 SCS Same-Spin Energy      =      -0.1644048659310655 [Eh]
	 SCS Opposite-Spin Energy  =      -1.8179384716243534 [Eh]
	 SCS Correlation Energy    =      -1.9823433375554189 [Eh]
	 SCS Total Energy          =    -799.2282444432023567 [Eh]
	-----------------------------------------------------------

  Dipole Moment: [D]
     X:    -3.1565      Y:    -3.6011      Z:    -1.1781     Total:     4.9314

*** Psi4 exiting successfully. Buy a developer a beer!
