                               Psi4 1.4a3.dev225

  ==> Input File <==

--------------------------------------------------------------------------
#psi4
#
memory 32 gb

molecule  {
0 1
  S       -0.8053760     1.6060500    -0.1399530
  O        2.1464270     1.2641370     0.3857660
  N        2.2049820    -0.9697390    -0.1110850
  C       -2.1414430    -0.6044570     0.0238790
  C        0.0782130     0.1386370     0.0349560
  C       -0.7695060    -0.9522330     0.1212440
  C       -2.2969850     0.7606620    -0.1265510
  C        1.5543500     0.2131940     0.1149440
  C       -3.2736380    -1.5890470     0.0915590
  C        3.6575090    -0.9906510    -0.1565210
  H       -0.4188890    -1.9677560     0.2899290
  H       -3.2284760     1.3059560    -0.2284190
  H       -3.2707310    -2.1282860     1.0440440
  H       -4.2368380    -1.0812090    -0.0045560
  H       -3.2021610    -2.3307440    -0.7101950
  H        1.7010110    -1.6882330    -0.6139760
  H        4.0113818    -0.6022155    -1.1177934
  H        3.9975300    -2.0243190    -0.0750760
  H        4.0378180    -0.4153140     0.6868970
units angstrom
no_reorient  #important for SAPT in psi4, default
symmetry c1  #important for SAPT in psi4, default
}

set PROPERTIES_ORIGIN ["COM"]
properties('MP2/aug-cc-pvtz', properties = ['dipole'])
--------------------------------------------------------------------------

    Molecular point group: c1
  Charge       = 0
  Multiplicity = 1
  Basis Set: AUG-CC-PVTZ
    Blend: AUG-CC-PVTZ
  Basis Set: (AUG-CC-PVTZ AUX)
    Blend: AUG-CC-PVTZ-JKFIT

    Orbital Energies [Eh]
    ---------------------

    Doubly Occupied:

       1A    -91.990276     2A    -20.521440     3A    -15.588689
       4A    -11.360592     5A    -11.274819     6A    -11.269012
       7A    -11.261063     8A    -11.257117     9A    -11.253880
      10A    -11.238232    11A     -8.990026    12A     -6.670893
      13A     -6.670343    14A     -6.669632    15A     -1.376038
      16A     -1.231722    17A     -1.183433    18A     -1.046570
      19A     -1.007259    20A     -0.954134    21A     -0.922713
      22A     -0.828175    23A     -0.768463    24A     -0.749849
      25A     -0.708620    26A     -0.642293    27A     -0.630895
      28A     -0.620771    29A     -0.593911    30A     -0.590912
      31A     -0.567666    32A     -0.554350    33A     -0.546902
      34A     -0.534451    35A     -0.523696    36A     -0.500944
      37A     -0.478172    38A     -0.434275    39A     -0.398231
      40A     -0.348137    41A     -0.327783

  @DF-RHF Final Energy:  -797.31897115326922

   => Energetics <=

    Nuclear Repulsion Energy =            587.9568243589625354
    One-Electron Energy =               -2260.3788294901537483
    Two-Electron Energy =                 875.1030339779221094
    Total Energy =                       -797.3189711532692172
  Basis Set: (AUG-CC-PVTZ AUX)
    Blend: AUG-CC-PVTZ-RI
    Molecular point group: c1

    Geometry (in Angstrom), charge = 0, multiplicity = 1:

       Center              X                  Y                   Z               Mass
    ------------   -----------------  -----------------  -----------------  -----------------
         S           -0.808902701531     1.537133957789    -0.144128970513    31.972071174400
         O            2.142900298469     1.195220957789     0.381590029487    15.994914619570
         N            2.201455298469    -1.038655042211    -0.115260970513    14.003074004430
         C           -2.144969701531    -0.673373042211     0.019703029487    12.000000000000
         C            0.074686298469     0.069720957789     0.030780029487    12.000000000000
         C           -0.773032701531    -1.021149042211     0.117068029487    12.000000000000
         C           -2.300511701531     0.691745957789    -0.130726970513    12.000000000000
         C            1.550823298469     0.144277957789     0.110768029487    12.000000000000
         C           -3.277164701531    -1.657963042211     0.087383029487    12.000000000000
         C            3.653982298469    -1.059567042211    -0.160696970513    12.000000000000
         H           -0.422415701531    -2.036672042211     0.285753029487     1.007825032230
         H           -3.232002701531     1.237039957789    -0.232594970513     1.007825032230
         H           -3.274257701531    -2.197202042211     1.039868029487     1.007825032230
         H           -4.240364701531    -1.150125042211    -0.008731970513     1.007825032230
         H           -3.205687701531    -2.399660042211    -0.714370970513     1.007825032230
         H            1.697484298469    -1.757149042211    -0.618151970513     1.007825032230
         H            4.007855098469    -0.671131542211    -1.121969370513     1.007825032230
         H            3.994003298469    -2.093235042211    -0.079251970513     1.007825032230
         H            4.034291298469    -0.484230042211     0.682721029487     1.007825032230

  Basis Set: AUG-CC-PVTZ
    Blend: AUG-CC-PVTZ
  Basis Set: (AUG-CC-PVTZ AUX)
    Blend: AUG-CC-PVTZ-JKFIT
	 Reference Energy          =    -797.3189711532692172 [Eh]
	 Singles Energy            =      -0.0000000000000000 [Eh]
	 Same-Spin Energy          =      -0.4870086367332355 [Eh]
	 Opposite-Spin Energy      =      -1.5038167427604803 [Eh]
	 Correlation Energy        =      -1.9908253794937159 [Eh]
	 Total Energy              =    -799.3097965327629026 [Eh]

	 ================> DF-SCS-MP2 Energies <==================
	-----------------------------------------------------------
	 SCS Same-Spin Scale       =       0.3333333333333333 [-]
	 SCS Opposite-Spin Scale   =       1.2000000000000000 [-]
	 SCS Same-Spin Energy      =      -0.1623362122444118 [Eh]
	 SCS Opposite-Spin Energy  =      -1.8045800913125762 [Eh]
	 SCS Correlation Energy    =      -1.9669163035569881 [Eh]
	 SCS Total Energy          =    -799.2858874568262308 [Eh]
	-----------------------------------------------------------

  Dipole Moment: [D]
     X:    -1.4788      Y:    -3.7778      Z:    -1.1545     Total:     4.2180

*** Psi4 exiting successfully. Buy a developer a beer!
