                               Psi4 1.4a3.dev225

  ==> Input File <==

--------------------------------------------------------------------------
#psi4
#
memory 32 gb

molecule  {
0 1
  S       -0.8053760     1.6060500    -0.1399530
  O        2.1464270     1.2641370     0.3857660
  N        2.2049820    -0.9697390    -0.1110850
  C       -2.1414430    -0.6044570     0.0238790
  C        0.0782130     0.1386370     0.0349560
  C       -0.7695060    -0.9522330     0.1212440
  C       -2.2795858     0.7705232    -0.1267073
  C        1.5543500     0.2131940     0.1149440
  C       -3.2736380    -1.5890470     0.0915590
  C        3.6575090    -0.9906510    -0.1565210
  H       -0.4188890    -1.9677560     0.2899290
  H       -3.2284760     1.3059560    -0.2284190
  H       -3.2707310    -2.1282860     1.0440440
  H       -4.2368380    -1.0812090    -0.0045560
  H       -3.2021610    -2.3307440    -0.7101950
  H        1.7010110    -1.6882330    -0.6139760
  H        4.0494680    -0.5484410    -1.0790020
  H        3.9975300    -2.0243190    -0.0750760
  H        4.0378180    -0.4153140     0.6868970
units angstrom
no_reorient  #important for SAPT in psi4, default
symmetry c1  #important for SAPT in psi4, default
}

set PROPERTIES_ORIGIN ["COM"]
properties('MP2/aug-cc-pvtz', properties = ['dipole'])
--------------------------------------------------------------------------

    Molecular point group: c1
  Charge       = 0
  Multiplicity = 1
  Basis Set: AUG-CC-PVTZ
    Blend: AUG-CC-PVTZ
  Basis Set: (AUG-CC-PVTZ AUX)
    Blend: AUG-CC-PVTZ-JKFIT

    Orbital Energies [Eh]
    ---------------------

    Doubly Occupied:

       1A    -91.991365     2A    -20.521312     3A    -15.588977
       4A    -11.360403     5A    -11.273796     6A    -11.269553
       7A    -11.260401     8A    -11.257058     9A    -11.254076
      10A    -11.238546    11A     -8.991442    12A     -6.672336
      13A     -6.671762    14A     -6.671044    15A     -1.375896
      16A     -1.231390    17A     -1.184847    18A     -1.045928
      19A     -1.009523    20A     -0.953944    21A     -0.922180
      22A     -0.827676    23A     -0.768097    24A     -0.748947
      25A     -0.708730    26A     -0.643611    27A     -0.628710
      28A     -0.620628    29A     -0.592427    30A     -0.590659
      31A     -0.566534    32A     -0.551506    33A     -0.549406
      34A     -0.533098    35A     -0.525573    36A     -0.501743
      37A     -0.480699    38A     -0.434300    39A     -0.398591
      40A     -0.349526    41A     -0.325883

  @DF-RHF Final Energy:  -797.31872349342439

   => Energetics <=

    Nuclear Repulsion Energy =            588.2393732758445140
    One-Electron Energy =               -2260.9319435797929145
    Two-Electron Energy =                 875.3738468105239008
    Total Energy =                       -797.3187234934243861
  Basis Set: (AUG-CC-PVTZ AUX)
    Blend: AUG-CC-PVTZ-RI
    Molecular point group: c1

    Geometry (in Angstrom), charge = 0, multiplicity = 1:

       Center              X                  Y                   Z               Mass
    ------------   -----------------  -----------------  -----------------  -----------------
         S           -0.810496960125     1.536021153690    -0.144369032610    31.972071174400
         O            2.141306039875     1.194108153690     0.381349967390    15.994914619570
         N            2.199861039875    -1.039767846310    -0.115501032610    14.003074004430
         C           -2.146563960125    -0.674485846310     0.019462967390    12.000000000000
         C            0.073092039875     0.068608153690     0.030539967390    12.000000000000
         C           -0.774626960125    -1.022261846310     0.116827967390    12.000000000000
         C           -2.284706760125     0.700494353690    -0.131123332610    12.000000000000
         C            1.549229039875     0.143165153690     0.110527967390    12.000000000000
         C           -3.278758960125    -1.659075846310     0.087142967390    12.000000000000
         C            3.652388039875    -1.060679846310    -0.160937032610    12.000000000000
         H           -0.424009960125    -2.037784846310     0.285512967390     1.007825032230
         H           -3.233596960125     1.235927153690    -0.232835032610     1.007825032230
         H           -3.275851960125    -2.198314846310     1.039627967390     1.007825032230
         H           -4.241958960125    -1.151237846310    -0.008972032610     1.007825032230
         H           -3.207281960125    -2.400772846310    -0.714611032610     1.007825032230
         H            1.695890039875    -1.758261846310    -0.618392032610     1.007825032230
         H            4.044347039875    -0.618469846310    -1.083418032610     1.007825032230
         H            3.992409039875    -2.094347846310    -0.079492032610     1.007825032230
         H            4.032697039875    -0.485342846310     0.682480967390     1.007825032230

  Basis Set: AUG-CC-PVTZ
    Blend: AUG-CC-PVTZ
  Basis Set: (AUG-CC-PVTZ AUX)
    Blend: AUG-CC-PVTZ-JKFIT
	 Reference Energy          =    -797.3187234934243861 [Eh]
	 Singles Energy            =      -0.0000000000000000 [Eh]
	 Same-Spin Energy          =      -0.4873251493503178 [Eh]
	 Opposite-Spin Energy      =      -1.5039139206888079 [Eh]
	 Correlation Energy        =      -1.9912390700391258 [Eh]
	 Total Energy              =    -799.3099625634635004 [Eh]

	 ================> DF-SCS-MP2 Energies <==================
	-----------------------------------------------------------
	 SCS Same-Spin Scale       =       0.3333333333333333 [-]
	 SCS Opposite-Spin Scale   =       1.2000000000000000 [-]
	 SCS Same-Spin Energy      =      -0.1624417164501059 [Eh]
	 SCS Opposite-Spin Energy  =      -1.8046967048265694 [Eh]
	 SCS Correlation Energy    =      -1.9671384212766754 [Eh]
	 SCS Total Energy          =    -799.2858619147010586 [Eh]
	-----------------------------------------------------------

  Dipole Moment: [D]
     X:    -1.5022      Y:    -3.7267      Z:    -1.1474     Total:     4.1787

*** Psi4 exiting successfully. Buy a developer a beer!
