                               Psi4 1.4a3.dev225

  ==> Input File <==

--------------------------------------------------------------------------
#psi4
#
memory 32 gb

molecule  {
0 1
  S       -0.8053760     1.6060500    -0.1399530
  O        2.1464270     1.2641370     0.3857660
  N        2.2049820    -0.9697390    -0.1110850
  C       -2.1414430    -0.6044570     0.0238790
  C        0.0782130     0.1386370     0.0349560
  C       -0.8142030    -1.0932579     0.1340915
  C       -2.2969850     0.7606620    -0.1265510
  C        1.5543500     0.2131940     0.1149440
  C       -3.2736380    -1.5890470     0.0915590
  C        3.6575090    -0.9906510    -0.1565210
  H       -0.4188890    -1.9677560     0.2899290
  H       -3.2284760     1.3059560    -0.2284190
  H       -3.2707310    -2.1282860     1.0440440
  H       -4.2368380    -1.0812090    -0.0045560
  H       -3.2021610    -2.3307440    -0.7101950
  H        1.7010110    -1.6882330    -0.6139760
  H        4.0494680    -0.5484410    -1.0790020
  H        3.9975300    -2.0243190    -0.0750760
  H        4.0378180    -0.4153140     0.6868970
units angstrom
no_reorient  #important for SAPT in psi4, default
symmetry c1  #important for SAPT in psi4, default
}

set PROPERTIES_ORIGIN ["COM"]
properties('MP2/aug-cc-pvtz', properties = ['dipole'])
--------------------------------------------------------------------------

    Molecular point group: c1
  Charge       = 0
  Multiplicity = 1
  Basis Set: AUG-CC-PVTZ
    Blend: AUG-CC-PVTZ
  Basis Set: (AUG-CC-PVTZ AUX)
    Blend: AUG-CC-PVTZ-JKFIT

    Orbital Energies [Eh]
    ---------------------

    Doubly Occupied:

       1A    -92.000779     2A    -20.520069     3A    -15.588404
       4A    -11.358815     5A    -11.289228     6A    -11.269684
       7A    -11.262140     8A    -11.260006     9A    -11.258574
      10A    -11.234541    11A     -8.999589    12A     -6.680404
      13A     -6.679815    14A     -6.679296    15A     -1.374801
      16A     -1.230264    17A     -1.171805    18A     -1.046308
      19A     -1.004658    20A     -0.951050    21A     -0.921391
      22A     -0.833473    23A     -0.771234    24A     -0.763652
      25A     -0.690420    26A     -0.644316    27A     -0.627972
      28A     -0.623599    29A     -0.610225    30A     -0.589153
      31A     -0.565705    32A     -0.551067    33A     -0.546507
      34A     -0.537538    35A     -0.512630    36A     -0.496439
      37A     -0.481542    38A     -0.431105    39A     -0.397983
      40A     -0.347381    41A     -0.317486

  @DF-RHF Final Energy:  -797.28435934286506

   => Energetics <=

    Nuclear Repulsion Energy =            585.3060808433142483
    One-Electron Energy =               -2254.9387827334007852
    Two-Electron Energy =                 872.3483425472214776
    Total Energy =                       -797.2843593428650593
  Basis Set: (AUG-CC-PVTZ AUX)
    Blend: AUG-CC-PVTZ-RI
    Molecular point group: c1

    Geometry (in Angstrom), charge = 0, multiplicity = 1:

       Center              X                  Y                   Z               Mass
    ------------   -----------------  -----------------  -----------------  -----------------
         S           -0.805690767732     1.547699607863    -0.145375515529    31.972071174400
         O            2.146112232268     1.205786607863     0.380343484471    15.994914619570
         N            2.204667232268    -1.028089392137    -0.116507515529    14.003074004430
         C           -2.141757767732    -0.662807392137     0.018456484471    12.000000000000
         C            0.077898232268     0.080286607863     0.029533484471    12.000000000000
         C           -0.814517767732    -1.151608292137     0.128668984471    12.000000000000
         C           -2.297299767732     0.702311607863    -0.131973515529    12.000000000000
         C            1.554035232268     0.154843607863     0.109521484471    12.000000000000
         C           -3.273952767732    -1.647397392137     0.086136484471    12.000000000000
         C            3.657194232268    -1.049001392137    -0.161943515529    12.000000000000
         H           -0.419203767732    -2.026106392137     0.284506484471     1.007825032230
         H           -3.228790767732     1.247605607863    -0.233841515529     1.007825032230
         H           -3.271045767732    -2.186636392137     1.038621484471     1.007825032230
         H           -4.237152767732    -1.139559392137    -0.009978515529     1.007825032230
         H           -3.202475767732    -2.389094392137    -0.715617515529     1.007825032230
         H            1.700696232268    -1.746583392137    -0.619398515529     1.007825032230
         H            4.049153232268    -0.606791392137    -1.084424515529     1.007825032230
         H            3.997215232268    -2.082669392137    -0.080498515529     1.007825032230
         H            4.037503232268    -0.473664392137     0.681474484471     1.007825032230

  Basis Set: AUG-CC-PVTZ
    Blend: AUG-CC-PVTZ
  Basis Set: (AUG-CC-PVTZ AUX)
    Blend: AUG-CC-PVTZ-JKFIT
	 Reference Energy          =    -797.2843593428650593 [Eh]
	 Singles Energy            =      -0.0000000000000000 [Eh]
	 Same-Spin Energy          =      -0.4898623939678188 [Eh]
	 Opposite-Spin Energy      =      -1.5086581279956317 [Eh]
	 Correlation Energy        =      -1.9985205219634505 [Eh]
	 Total Energy              =    -799.2828798648284874 [Eh]

	 ================> DF-SCS-MP2 Energies <==================
	-----------------------------------------------------------
	 SCS Same-Spin Scale       =       0.3333333333333333 [-]
	 SCS Opposite-Spin Scale   =       1.2000000000000000 [-]
	 SCS Same-Spin Energy      =      -0.1632874646559396 [Eh]
	 SCS Opposite-Spin Energy  =      -1.8103897535947580 [Eh]
	 SCS Correlation Energy    =      -1.9736772182506976 [Eh]
	 SCS Total Energy          =    -799.2580365611157731 [Eh]
	-----------------------------------------------------------

  Dipole Moment: [D]
     X:    -1.5303      Y:    -3.5497      Z:    -1.1577     Total:     4.0351

*** Psi4 exiting successfully. Buy a developer a beer!
