                               Psi4 1.4a3.dev225

  ==> Input File <==

--------------------------------------------------------------------------
#psi4
#
memory 32 gb

molecule  {
0 1
  S       -0.8053760     1.6060500    -0.1399530
  O        2.1464270     1.2641370     0.3857660
  N        2.2057534    -0.9809510    -0.0883444
  C       -2.1414430    -0.6044570     0.0238790
  C        0.0782130     0.1386370     0.0349560
  C       -0.7695060    -0.9522330     0.1212440
  C       -2.2969850     0.7606620    -0.1265510
  C        1.5543500     0.2131940     0.1149440
  C       -3.2736380    -1.5890470     0.0915590
  C        3.6575090    -0.9906510    -0.1565210
  H       -0.4188890    -1.9677560     0.2899290
  H       -3.2284760     1.3059560    -0.2284190
  H       -3.2707310    -2.1282860     1.0440440
  H       -4.2368380    -1.0812090    -0.0045560
  H       -3.2021610    -2.3307440    -0.7101950
  H        1.7010110    -1.6882330    -0.6139760
  H        4.0494680    -0.5484410    -1.0790020
  H        3.9975300    -2.0243190    -0.0750760
  H        4.0378180    -0.4153140     0.6868970
units angstrom
no_reorient  #important for SAPT in psi4, default
symmetry c1  #important for SAPT in psi4, default
}

set PROPERTIES_ORIGIN ["COM"]
properties('MP2/aug-cc-pvtz', properties = ['dipole'])
--------------------------------------------------------------------------

    Molecular point group: c1
  Charge       = 0
  Multiplicity = 1
  Basis Set: AUG-CC-PVTZ
    Blend: AUG-CC-PVTZ
  Basis Set: (AUG-CC-PVTZ AUX)
    Blend: AUG-CC-PVTZ-JKFIT

    Orbital Energies [Eh]
    ---------------------

    Doubly Occupied:

       1A    -91.990648     2A    -20.523576     3A    -15.589496
       4A    -11.361791     5A    -11.275188     6A    -11.269480
       7A    -11.260052     8A    -11.257549     9A    -11.254191
      10A    -11.238428    11A     -8.990401    12A     -6.671270
      13A     -6.670720    14A     -6.670008    15A     -1.376753
      16A     -1.230441    17A     -1.183764    18A     -1.046829
      19A     -1.007331    20A     -0.953331    21A     -0.922680
      22A     -0.828529    23A     -0.766230    24A     -0.750169
      25A     -0.708827    26A     -0.644372    27A     -0.629295
      28A     -0.619222    29A     -0.594313    30A     -0.590975
      31A     -0.567648    32A     -0.550692    33A     -0.549166
      34A     -0.534834    35A     -0.523829    36A     -0.500869
      37A     -0.478598    38A     -0.435578    39A     -0.399878
      40A     -0.348442    41A     -0.328163

  @DF-RHF Final Energy:  -797.31893873002480

   => Energetics <=

    Nuclear Repulsion Energy =            587.7581510804856180
    One-Electron Energy =               -2259.9670711888356891
    Two-Electron Energy =                 874.8899813783251602
    Total Energy =                       -797.3189387300247972
  Basis Set: (AUG-CC-PVTZ AUX)
    Blend: AUG-CC-PVTZ-RI
    Molecular point group: c1

    Geometry (in Angstrom), charge = 0, multiplicity = 1:

       Center              X                  Y                   Z               Mass
    ------------   -----------------  -----------------  -----------------  -----------------
         S           -0.809219948972     1.537797056711    -0.146435034303    31.972071174400
         O            2.142583051028     1.195884056711     0.379283965697    15.994914619570
         N            2.201909451028    -1.049203943289    -0.094826434303    14.003074004430
         C           -2.145286948972    -0.672709943289     0.017396965697    12.000000000000
         C            0.074369051028     0.070384056711     0.028473965697    12.000000000000
         C           -0.773349948972    -1.020485943289     0.114761965697    12.000000000000
         C           -2.300828948972     0.692409056711    -0.133033034303    12.000000000000
         C            1.550506051028     0.144941056711     0.108461965697    12.000000000000
         C           -3.277481948972    -1.657299943289     0.085076965697    12.000000000000
         C            3.653665051028    -1.058903943289    -0.163003034303    12.000000000000
         H           -0.422732948972    -2.036008943289     0.283446965697     1.007825032230
         H           -3.232319948972     1.237703056711    -0.234901034303     1.007825032230
         H           -3.274574948972    -2.196538943289     1.037561965697     1.007825032230
         H           -4.240681948972    -1.149461943289    -0.011038034303     1.007825032230
         H           -3.206004948972    -2.398996943289    -0.716677034303     1.007825032230
         H            1.697167051028    -1.756485943289    -0.620458034303     1.007825032230
         H            4.045624051028    -0.616693943289    -1.085484034303     1.007825032230
         H            3.993686051028    -2.092571943289    -0.081558034303     1.007825032230
         H            4.033974051028    -0.483566943289     0.680414965697     1.007825032230

  Basis Set: AUG-CC-PVTZ
    Blend: AUG-CC-PVTZ
  Basis Set: (AUG-CC-PVTZ AUX)
    Blend: AUG-CC-PVTZ-JKFIT
	 Reference Energy          =    -797.3189387300247972 [Eh]
	 Singles Energy            =      -0.0000000000000000 [Eh]
	 Same-Spin Energy          =      -0.4870484869486094 [Eh]
	 Opposite-Spin Energy      =      -1.5040096099134628 [Eh]
	 Correlation Energy        =      -1.9910580968620721 [Eh]
	 Total Energy              =    -799.3099968268868452 [Eh]

	 ================> DF-SCS-MP2 Energies <==================
	-----------------------------------------------------------
	 SCS Same-Spin Scale       =       0.3333333333333333 [-]
	 SCS Opposite-Spin Scale   =       1.2000000000000000 [-]
	 SCS Same-Spin Energy      =      -0.1623494956495364 [Eh]
	 SCS Opposite-Spin Energy  =      -1.8048115318961553 [Eh]
	 SCS Correlation Energy    =      -1.9671610275456917 [Eh]
	 SCS Total Energy          =    -799.2860997575704687 [Eh]
	-----------------------------------------------------------

  Dipole Moment: [D]
     X:    -1.5259      Y:    -3.6819      Z:    -1.1734     Total:     4.1547

*** Psi4 exiting successfully. Buy a developer a beer!
