                               Psi4 1.3.2 release

  ==> Input File <==

--------------------------------------------------------------------------
#psi4
#
memory 32 gb

molecule  {
0 1
  C        0.7388790     0.0000080     0.0000160
  C       -0.6971678     0.0232091     0.0110777
  C        1.4536770     1.1178580    -0.4583850
  C       -1.4536820     1.1178570     0.4583930
  C        1.4536730    -1.1178550     0.4583870
  C       -1.4536670    -1.1178570    -0.4583770
  C        2.8487180     1.1182580    -0.4560040
  C       -2.8487240     1.1182560     0.4559960
  C        2.8487140    -1.1182560     0.4560110
  C       -2.8487090    -1.1182580    -0.4560170
  C        3.5507430    -0.0000070    -0.0000130
  C       -3.5507430    -0.0000100    -0.0000010
  H        0.9093800     1.9786560    -0.8416800
  H       -0.9093900     1.9786530     0.8417000
  H        0.9093690    -1.9786310     0.8417230
  H       -0.9093580    -1.9786330    -0.8417070
  H        3.3890490     1.9888130    -0.8209640
  H       -3.3890590     1.9888070     0.8209600
  H        3.3890420    -1.9888210     0.8209520
  H       -3.3890330    -1.9888240    -0.8209630
  H        4.6380810    -0.0000130    -0.0000190
  H       -4.6380810    -0.0000130    -0.0000170
units angstrom
no_reorient  #important for SAPT in psi4, default
symmetry c1  #important for SAPT in psi4, default
}

set PROPERTIES_ORIGIN ["COM"]
properties('MP2/aug-cc-pvtz', properties = ['dipole'])
--------------------------------------------------------------------------

    Molecular point group: c1
  Charge       = 0
  Multiplicity = 1
  Basis Set: AUG-CC-PVTZ
    Blend: AUG-CC-PVTZ
  Basis Set: (AUG-CC-PVTZ AUX)
    Blend: AUG-CC-PVTZ-JKFIT

    Orbital Energies [Eh]
    ---------------------

    Doubly Occupied:

       1A    -11.248884     2A    -11.245261     3A    -11.241270
       4A    -11.239797     5A    -11.239386     6A    -11.238978
       7A    -11.238302     8A    -11.237902     9A    -11.237431
      10A    -11.237070    11A    -11.236985    12A    -11.236618
      13A     -1.170358    14A     -1.138492    15A     -1.058208
      16A     -1.019078    17A     -1.010410    18A     -0.979839
      19A     -0.857257    20A     -0.841569    21A     -0.810541
      22A     -0.788277    23A     -0.717999    24A     -0.681485
      25A     -0.658182    26A     -0.639939    27A     -0.616194
      28A     -0.607937    29A     -0.590069    30A     -0.586731
      31A     -0.581678    32A     -0.521948    33A     -0.515303
      34A     -0.503668    35A     -0.492175    36A     -0.489064
      37A     -0.479462    38A     -0.367915    39A     -0.339843
      40A     -0.337380    41A     -0.299884

  @DF-RHF Final Energy:  -460.39600452206963

   => Energetics <=

    Nuclear Repulsion Energy =            599.3644091325539875
    One-Electron Energy =               -1810.3632879265555857
    Two-Electron Energy =                 750.6028742719317961
    Total Energy =                       -460.3960045220696884
  Basis Set: (AUG-CC-PVTZ AUX)
    Blend: AUG-CC-PVTZ-RI
    Molecular point group: c1

    Geometry (in Angstrom), charge = 0, multiplicity = 1:

       Center              X                  Y                   Z               Mass
    ------------   -----------------  -----------------  -----------------  -----------------
         C            0.735630427285    -0.001799076291    -0.000847128198    12.000000000000
         C           -0.700416372715     0.021402023709     0.010214571802    12.000000000000
         C            1.450428427285     1.116050923709    -0.459248128198    12.000000000000
         C           -1.456930572715     1.116049923709     0.457529871802    12.000000000000
         C            1.450424427285    -1.119662076291     0.457523871802    12.000000000000
         C           -1.456915572715    -1.119664076291    -0.459240128198    12.000000000000
         C            2.845469427285     1.116450923709    -0.456867128198    12.000000000000
         C           -2.851972572715     1.116448923709     0.455132871802    12.000000000000
         C            2.845465427285    -1.120063076291     0.455147871802    12.000000000000
         C           -2.851957572715    -1.120065076291    -0.456880128198    12.000000000000
         C            3.547494427285    -0.001814076291    -0.000876128198    12.000000000000
         C           -3.553991572715    -0.001817076291    -0.000864128198    12.000000000000
         H            0.906131427285     1.976848923709    -0.842543128198     1.007825032230
         H           -0.912638572715     1.976845923709     0.840836871802     1.007825032230
         H            0.906120427285    -1.980438076291     0.840859871802     1.007825032230
         H           -0.912606572715    -1.980440076291    -0.842570128198     1.007825032230
         H            3.385800427285     1.987005923709    -0.821827128198     1.007825032230
         H           -3.392307572715     1.986999923709     0.820096871802     1.007825032230
         H            3.385793427285    -1.990628076291     0.820088871802     1.007825032230
         H           -3.392281572715    -1.990631076291    -0.821826128198     1.007825032230
         H            4.634832427285    -0.001820076291    -0.000882128198     1.007825032230
         H           -4.641329572715    -0.001820076291    -0.000880128198     1.007825032230

  Basis Set: AUG-CC-PVTZ
    Blend: AUG-CC-PVTZ
  Basis Set: (AUG-CC-PVTZ AUX)
    Blend: AUG-CC-PVTZ-JKFIT
	 Reference Energy          =    -460.3960045220696315 [Eh]
	 Singles Energy            =      -0.0000000000000000 [Eh]
	 Same-Spin Energy          =      -0.5219298348370411 [Eh]
	 Opposite-Spin Energy      =      -1.6243350307262427 [Eh]
	 Correlation Energy        =      -2.1462648655632837 [Eh]
	 Total Energy              =    -462.5422693876329276 [Eh]

	 ================> DF-SCS-MP2 Energies <==================
	-----------------------------------------------------------
	 SCS Same-Spin Scale       =       0.3333333333333333 [-]
	 SCS Opposite-Spin Scale   =       1.2000000000000000 [-]
	 SCS Same-Spin Energy      =      -0.1739766116123470 [Eh]
	 SCS Opposite-Spin Energy  =      -1.9492020368714913 [Eh]
	 SCS Correlation Energy    =      -2.1231786484838384 [Eh]
	 SCS Total Energy          =    -462.5191831705534469 [Eh]
	-----------------------------------------------------------

  Dipole Moment: [D]
     X:     0.0675      Y:    -0.0043      Z:     0.0006     Total:     0.0677

*** Psi4 exiting successfully. Buy a developer a beer!
