                               Psi4 1.3.2 release

  ==> Input File <==

--------------------------------------------------------------------------
#psi4
#
memory 32 gb

molecule  {
0 1
  C        0.7388790     0.0000080     0.0000160
  C       -0.7388790     0.0000070    -0.0000030
  C        1.3518395     0.9585975    -0.3930764
  C       -1.4536820     1.1178570     0.4583930
  C        1.4536730    -1.1178550     0.4583870
  C       -1.4536670    -1.1178570    -0.4583770
  C        2.8487180     1.1182580    -0.4560040
  C       -2.8487240     1.1182560     0.4559960
  C        2.8487140    -1.1182560     0.4560110
  C       -2.8487090    -1.1182580    -0.4560170
  C        3.5507430    -0.0000070    -0.0000130
  C       -3.5507430    -0.0000100    -0.0000010
  H        0.9093800     1.9786560    -0.8416800
  H       -0.9093900     1.9786530     0.8417000
  H        0.9093690    -1.9786310     0.8417230
  H       -0.9093580    -1.9786330    -0.8417070
  H        3.3890490     1.9888130    -0.8209640
  H       -3.3890590     1.9888070     0.8209600
  H        3.3890420    -1.9888210     0.8209520
  H       -3.3890330    -1.9888240    -0.8209630
  H        4.6380810    -0.0000130    -0.0000190
  H       -4.6380810    -0.0000130    -0.0000170
units angstrom
no_reorient  #important for SAPT in psi4, default
symmetry c1  #important for SAPT in psi4, default
}

set PROPERTIES_ORIGIN ["COM"]
properties('MP2/aug-cc-pvtz', properties = ['dipole'])
--------------------------------------------------------------------------

    Molecular point group: c1
  Charge       = 0
  Multiplicity = 1
  Basis Set: AUG-CC-PVTZ
    Blend: AUG-CC-PVTZ
  Basis Set: (AUG-CC-PVTZ AUX)
    Blend: AUG-CC-PVTZ-JKFIT

    Orbital Energies [Eh]
    ---------------------

    Doubly Occupied:

       1A    -11.248192     2A    -11.245865     3A    -11.239460
       4A    -11.238263     5A    -11.238093     6A    -11.237945
       7A    -11.236989     8A    -11.235963     9A    -11.235651
      10A    -11.235348    11A    -11.231714    12A    -11.219909
      13A     -1.186208    14A     -1.143263    15A     -1.064855
      16A     -1.016274    17A     -1.002603    18A     -0.992068
      19A     -0.852042    20A     -0.842724    21A     -0.816907
      22A     -0.783621    23A     -0.719889    24A     -0.679062
      25A     -0.648365    26A     -0.643720    27A     -0.622762
      28A     -0.610852    29A     -0.590163    30A     -0.587051
      31A     -0.569238    32A     -0.525238    33A     -0.520918
      34A     -0.504821    35A     -0.494929    36A     -0.489738
      37A     -0.450734    38A     -0.381213    39A     -0.337619
      40A     -0.327573    41A     -0.314613

  @DF-RHF Final Energy:  -460.33988613946309

   => Energetics <=

    Nuclear Repulsion Energy =            602.5808489479193213
    One-Electron Energy =               -1816.7165577825176115
    Two-Electron Energy =                 753.7958226951351435
    Total Energy =                       -460.3398861394631467
  Basis Set: (AUG-CC-PVTZ AUX)
    Blend: AUG-CC-PVTZ-RI
    Molecular point group: c1

    Geometry (in Angstrom), charge = 0, multiplicity = 1:

       Center              X                  Y                   Z               Mass
    ------------   -----------------  -----------------  -----------------  -----------------
         C            0.746810359536     0.012411567946    -0.005070532856    12.000000000000
         C           -0.730947640464     0.012410567946    -0.005089532856    12.000000000000
         C            1.359770859536     0.971001067946    -0.398162932856    12.000000000000
         C           -1.445750640464     1.130260567946     0.453306467144    12.000000000000
         C            1.461604359536    -1.105451432054     0.453300467144    12.000000000000
         C           -1.445735640464    -1.105453432054    -0.463463532856    12.000000000000
         C            2.856649359536     1.130661567946    -0.461090532856    12.000000000000
         C           -2.840792640464     1.130659567946     0.450909467144    12.000000000000
         C            2.856645359536    -1.105852432054     0.450924467144    12.000000000000
         C           -2.840777640464    -1.105854432054    -0.461103532856    12.000000000000
         C            3.558674359536     0.012396567946    -0.005099532856    12.000000000000
         C           -3.542811640464     0.012393567946    -0.005087532856    12.000000000000
         H            0.917311359536     1.991059567946    -0.846766532856     1.007825032230
         H           -0.901458640464     1.991056567946     0.836613467144     1.007825032230
         H            0.917300359536    -1.966227432054     0.836636467144     1.007825032230
         H           -0.901426640464    -1.966229432054    -0.846793532856     1.007825032230
         H            3.396980359536     2.001216567946    -0.826050532856     1.007825032230
         H           -3.381127640464     2.001210567946     0.815873467144     1.007825032230
         H            3.396973359536    -1.976417432054     0.815865467144     1.007825032230
         H           -3.381101640464    -1.976420432054    -0.826049532856     1.007825032230
         H            4.646012359536     0.012390567946    -0.005105532856     1.007825032230
         H           -4.630149640464     0.012390567946    -0.005103532856     1.007825032230

  Basis Set: AUG-CC-PVTZ
    Blend: AUG-CC-PVTZ
  Basis Set: (AUG-CC-PVTZ AUX)
    Blend: AUG-CC-PVTZ-JKFIT
	 Reference Energy          =    -460.3398861394630899 [Eh]
	 Singles Energy            =      -0.0000000000000000 [Eh]
	 Same-Spin Energy          =      -0.5207633921727128 [Eh]
	 Opposite-Spin Energy      =      -1.6250866570213800 [Eh]
	 Correlation Energy        =      -2.1458500491940926 [Eh]
	 Total Energy              =    -462.4857361886571994 [Eh]

	 ================> DF-SCS-MP2 Energies <==================
	-----------------------------------------------------------
	 SCS Same-Spin Scale       =       0.3333333333333333 [-]
	 SCS Opposite-Spin Scale   =       1.2000000000000000 [-]
	 SCS Same-Spin Energy      =      -0.1735877973909043 [Eh]
	 SCS Opposite-Spin Energy  =      -1.9501039884256559 [Eh]
	 SCS Correlation Energy    =      -2.1236917858165603 [Eh]
	 SCS Total Energy          =    -462.4635779252796510 [Eh]
	-----------------------------------------------------------

  Dipole Moment: [D]
     X:     0.1319      Y:    -0.0147      Z:     0.0140     Total:     0.1335

*** Psi4 exiting successfully. Buy a developer a beer!
