                               Psi4 1.3.2 release

  ==> Input File <==

--------------------------------------------------------------------------
#psi4
#
memory 32 gb

molecule  {
0 1
  C        0.7388790     0.0000080     0.0000160
  C       -0.6563415     0.0487906     0.0202104
  C        1.4536770     1.1178580    -0.4583850
  C       -1.4536820     1.1178570     0.4583930
  C        1.4536730    -1.1178550     0.4583870
  C       -1.4536670    -1.1178570    -0.4583770
  C        2.8487180     1.1182580    -0.4560040
  C       -2.8487240     1.1182560     0.4559960
  C        2.8487140    -1.1182560     0.4560110
  C       -2.8487090    -1.1182580    -0.4560170
  C        3.5507430    -0.0000070    -0.0000130
  C       -3.5507430    -0.0000100    -0.0000010
  H        0.9093800     1.9786560    -0.8416800
  H       -0.9093900     1.9786530     0.8417000
  H        0.9093690    -1.9786310     0.8417230
  H       -0.9093580    -1.9786330    -0.8417070
  H        3.3890490     1.9888130    -0.8209640
  H       -3.3890590     1.9888070     0.8209600
  H        3.3890420    -1.9888210     0.8209520
  H       -3.3890330    -1.9888240    -0.8209630
  H        4.6380810    -0.0000130    -0.0000190
  H       -4.6380810    -0.0000130    -0.0000170
units angstrom
no_reorient  #important for SAPT in psi4, default
symmetry c1  #important for SAPT in psi4, default
}

set PROPERTIES_ORIGIN ["COM"]
properties('MP2/aug-cc-pvtz', properties = ['dipole'])
--------------------------------------------------------------------------

    Molecular point group: c1
  Charge       = 0
  Multiplicity = 1
  Basis Set: AUG-CC-PVTZ
    Blend: AUG-CC-PVTZ
  Basis Set: (AUG-CC-PVTZ AUX)
    Blend: AUG-CC-PVTZ-JKFIT

    Orbital Energies [Eh]
    ---------------------

    Doubly Occupied:

       1A    -11.250509     2A    -11.245033     3A    -11.243263
       4A    -11.240613     5A    -11.239915     6A    -11.239055
       7A    -11.239031     8A    -11.238215     9A    -11.238157
      10A    -11.237655    11A    -11.237257    12A    -11.236843
      13A     -1.172187    14A     -1.136488    15A     -1.062854
      16A     -1.019292    17A     -1.009469    18A     -0.977319
      19A     -0.862543    20A     -0.841842    21A     -0.809501
      22A     -0.786602    23A     -0.718577    24A     -0.681658
      25A     -0.662305    26A     -0.640954    27A     -0.615866
      28A     -0.607396    29A     -0.590778    30A     -0.587989
      31A     -0.578856    32A     -0.522299    33A     -0.515981
      34A     -0.503960    35A     -0.498225    36A     -0.487403
      37A     -0.472308    38A     -0.369729    39A     -0.340430
      40A     -0.336936    41A     -0.295658

  @DF-RHF Final Energy:  -460.38574610127961

   => Energetics <=

    Nuclear Repulsion Energy =            599.4148035011104412
    One-Electron Energy =               -1810.4192039988442957
    Two-Electron Energy =                 750.6186543964543034
    Total Energy =                       -460.3857461012796648
  Basis Set: (AUG-CC-PVTZ AUX)
    Blend: AUG-CC-PVTZ-RI
    Molecular point group: c1

    Geometry (in Angstrom), charge = 0, multiplicity = 1:

       Center              X                  Y                   Z               Mass
    ------------   -----------------  -----------------  -----------------  -----------------
         C            0.732450772798    -0.003791427575    -0.001558405746    12.000000000000
         C           -0.662769727202     0.044991172425     0.018635994254    12.000000000000
         C            1.447248772798     1.114058572425    -0.459959405746    12.000000000000
         C           -1.460110227202     1.114057572425     0.456818594254    12.000000000000
         C            1.447244772798    -1.121654427575     0.456812594254    12.000000000000
         C           -1.460095227202    -1.121656427575    -0.459951405746    12.000000000000
         C            2.842289772798     1.114458572425    -0.457578405746    12.000000000000
         C           -2.855152227202     1.114456572425     0.454421594254    12.000000000000
         C            2.842285772798    -1.122055427575     0.454436594254    12.000000000000
         C           -2.855137227202    -1.122057427575    -0.457591405746    12.000000000000
         C            3.544314772798    -0.003806427575    -0.001587405746    12.000000000000
         C           -3.557171227202    -0.003809427575    -0.001575405746    12.000000000000
         H            0.902951772798     1.974856572425    -0.843254405746     1.007825032230
         H           -0.915818227202     1.974853572425     0.840125594254     1.007825032230
         H            0.902940772798    -1.982430427575     0.840148594254     1.007825032230
         H           -0.915786227202    -1.982432427575    -0.843281405746     1.007825032230
         H            3.382620772798     1.985013572425    -0.822538405746     1.007825032230
         H           -3.395487227202     1.985007572425     0.819385594254     1.007825032230
         H            3.382613772798    -1.992620427575     0.819377594254     1.007825032230
         H           -3.395461227202    -1.992623427575    -0.822537405746     1.007825032230
         H            4.631652772798    -0.003812427575    -0.001593405746     1.007825032230
         H           -4.644509227202    -0.003812427575    -0.001591405746     1.007825032230

  Basis Set: AUG-CC-PVTZ
    Blend: AUG-CC-PVTZ
  Basis Set: (AUG-CC-PVTZ AUX)
    Blend: AUG-CC-PVTZ-JKFIT
	 Reference Energy          =    -460.3857461012796080 [Eh]
	 Singles Energy            =      -0.0000000000000000 [Eh]
	 Same-Spin Energy          =      -0.5227370889374909 [Eh]
	 Opposite-Spin Energy      =      -1.6258431562151272 [Eh]
	 Correlation Energy        =      -2.1485802451526181 [Eh]
	 Total Energy              =    -462.5343263464322376 [Eh]

	 ================> DF-SCS-MP2 Energies <==================
	-----------------------------------------------------------
	 SCS Same-Spin Scale       =       0.3333333333333333 [-]
	 SCS Opposite-Spin Scale   =       1.2000000000000000 [-]
	 SCS Same-Spin Energy      =      -0.1742456963124970 [Eh]
	 SCS Opposite-Spin Energy  =      -1.9510117874581525 [Eh]
	 SCS Correlation Energy    =      -2.1252574837706497 [Eh]
	 SCS Total Energy          =    -462.5110035850502754 [Eh]
	-----------------------------------------------------------

  Dipole Moment: [D]
     X:     0.1369      Y:    -0.0088      Z:     0.0013     Total:     0.1371

*** Psi4 exiting successfully. Buy a developer a beer!
