                               Psi4 1.4a3.dev225

  ==> Input File <==

--------------------------------------------------------------------------
#psi4
#
memory 32 gb

molecule  {
0 1
  C        0.7388790     0.0000080     0.0000160
  C       -0.7388790     0.0000070    -0.0000030
  C        1.4282176     1.0780429    -0.4420579
  C       -1.4536820     1.1178570     0.4583930
  C        1.4536730    -1.1178550     0.4583870
  C       -1.4536670    -1.1178570    -0.4583770
  C        2.8487180     1.1182580    -0.4560040
  C       -2.8487240     1.1182560     0.4559960
  C        2.8487140    -1.1182560     0.4560110
  C       -2.8487090    -1.1182580    -0.4560170
  C        3.5507430    -0.0000070    -0.0000130
  C       -3.5507430    -0.0000100    -0.0000010
  H        0.9093800     1.9786560    -0.8416800
  H       -0.9093900     1.9786530     0.8417000
  H        0.9093690    -1.9786310     0.8417230
  H       -0.9093580    -1.9786330    -0.8417070
  H        3.3890490     1.9888130    -0.8209640
  H       -3.3890590     1.9888070     0.8209600
  H        3.3890420    -1.9888210     0.8209520
  H       -3.3890330    -1.9888240    -0.8209630
  H        4.6380810    -0.0000130    -0.0000190
  H       -4.6380810    -0.0000130    -0.0000170
units angstrom
no_reorient  #important for SAPT in psi4, default
symmetry c1  #important for SAPT in psi4, default
}

set PROPERTIES_ORIGIN ["COM"]
properties('MP2/aug-cc-pvtz', properties = ['dipole'])
--------------------------------------------------------------------------

    Molecular point group: c1
  Charge       = 0
  Multiplicity = 1
  Basis Set: AUG-CC-PVTZ
    Blend: AUG-CC-PVTZ
  Basis Set: (AUG-CC-PVTZ AUX)
    Blend: AUG-CC-PVTZ-JKFIT

    Orbital Energies [Eh]
    ---------------------

    Doubly Occupied:

       1A    -11.246735     2A    -11.241509     3A    -11.241253
       4A    -11.238848     5A    -11.238701     6A    -11.238578
       7A    -11.237158     8A    -11.236586     9A    -11.236565
      10A    -11.236417    11A    -11.236068    12A    -11.235971
      13A     -1.172170    14A     -1.141046    15A     -1.055859
      16A     -1.018037    17A     -1.008958    18A     -0.985091
      19A     -0.850323    20A     -0.843100    21A     -0.812864
      22A     -0.789299    23A     -0.718132    24A     -0.680125
      25A     -0.652606    26A     -0.640088    27A     -0.617776
      28A     -0.609777    29A     -0.589089    30A     -0.586174
      31A     -0.580385    32A     -0.520179    33A     -0.516255
      34A     -0.504608    35A     -0.491877    36A     -0.487649
      37A     -0.479627    38A     -0.368590    39A     -0.338596
      40A     -0.335017    41A     -0.306970

  @DF-RHF Final Energy:  -460.39746087360612

   => Energetics <=

    Nuclear Repulsion Energy =            600.0878415713658569
    One-Electron Energy =               -1811.8412921301123788
    Two-Electron Energy =                 751.3559896851403437
    Total Energy =                       -460.3974608736060645
  Basis Set: (AUG-CC-PVTZ AUX)
    Blend: AUG-CC-PVTZ-RI
    Molecular point group: c1

    Geometry (in Angstrom), charge = 0, multiplicity = 1:

       Center              X                  Y                   Z               Mass
    ------------   -----------------  -----------------  -----------------  -----------------
         C            0.740861841831     0.003108861062    -0.001255730969    12.000000000000
         C           -0.736896158169     0.003107861062    -0.001274730969    12.000000000000
         C            1.430200441831     1.081143761062    -0.443329630969    12.000000000000
         C           -1.451699158169     1.120957861062     0.457121269031    12.000000000000
         C            1.455655841831    -1.114754138938     0.457115269031    12.000000000000
         C           -1.451684158169    -1.114756138938    -0.459648730969    12.000000000000
         C            2.850700841831     1.121358861062    -0.457275730969    12.000000000000
         C           -2.846741158169     1.121356861062     0.454724269031    12.000000000000
         C            2.850696841831    -1.115155138938     0.454739269031    12.000000000000
         C           -2.846726158169    -1.115157138938    -0.457288730969    12.000000000000
         C            3.552725841831     0.003093861062    -0.001284730969    12.000000000000
         C           -3.548760158169     0.003090861062    -0.001272730969    12.000000000000
         H            0.911362841831     1.981756861062    -0.842951730969     1.007825032230
         H           -0.907407158169     1.981753861062     0.840428269031     1.007825032230
         H            0.911351841831    -1.975530138938     0.840451269031     1.007825032230
         H           -0.907375158169    -1.975532138938    -0.842978730969     1.007825032230
         H            3.391031841831     1.991913861062    -0.822235730969     1.007825032230
         H           -3.387076158169     1.991907861062     0.819688269031     1.007825032230
         H            3.391024841831    -1.985720138938     0.819680269031     1.007825032230
         H           -3.387050158169    -1.985723138938    -0.822234730969     1.007825032230
         H            4.640063841831     0.003087861062    -0.001290730969     1.007825032230
         H           -4.636098158169     0.003087861062    -0.001288730969     1.007825032230

  Basis Set: AUG-CC-PVTZ
    Blend: AUG-CC-PVTZ
  Basis Set: (AUG-CC-PVTZ AUX)
    Blend: AUG-CC-PVTZ-JKFIT
	 Reference Energy          =    -460.3974608736061214 [Eh]
	 Singles Energy            =      -0.0000000000000000 [Eh]
	 Same-Spin Energy          =      -0.5212513853914684 [Eh]
	 Opposite-Spin Energy      =      -1.6233219288280301 [Eh]
	 Correlation Energy        =      -2.1445733142194987 [Eh]
	 Total Energy              =    -462.5420341878256068 [Eh]

	 ================> DF-SCS-MP2 Energies <==================
	-----------------------------------------------------------
	 SCS Same-Spin Scale       =       0.3333333333333333 [-]
	 SCS Opposite-Spin Scale   =       1.2000000000000000 [-]
	 SCS Same-Spin Energy      =      -0.1737504617971561 [Eh]
	 SCS Opposite-Spin Energy  =      -1.9479863145936360 [Eh]
	 SCS Correlation Energy    =      -2.1217367763907919 [Eh]
	 SCS Total Energy          =    -462.5191976499968973 [Eh]
	-----------------------------------------------------------

  Dipole Moment: [D]
     X:     0.0273      Y:     0.0029      Z:     0.0008     Total:     0.0275

*** Psi4 exiting successfully. Buy a developer a beer!
