                               Psi4 1.3.2 release

  ==> Input File <==

--------------------------------------------------------------------------
#psi4
#
memory 32 gb

molecule  {
0 1
  C        0.7388790     0.0000080     0.0000160
  C       -0.7814611    -0.0218331    -0.0105252
  C        1.4536770     1.1178580    -0.4583850
  C       -1.4536820     1.1178570     0.4583930
  C        1.4536730    -1.1178550     0.4583870
  C       -1.4536670    -1.1178570    -0.4583770
  C        2.8487180     1.1182580    -0.4560040
  C       -2.8487240     1.1182560     0.4559960
  C        2.8487140    -1.1182560     0.4560110
  C       -2.8487090    -1.1182580    -0.4560170
  C        3.5507430    -0.0000070    -0.0000130
  C       -3.5507430    -0.0000100    -0.0000010
  H        0.9093800     1.9786560    -0.8416800
  H       -0.9093900     1.9786530     0.8417000
  H        0.9093690    -1.9786310     0.8417230
  H       -0.9093580    -1.9786330    -0.8417070
  H        3.3890490     1.9888130    -0.8209640
  H       -3.3890590     1.9888070     0.8209600
  H        3.3890420    -1.9888210     0.8209520
  H       -3.3890330    -1.9888240    -0.8209630
  H        4.6380810    -0.0000130    -0.0000190
  H       -4.6380810    -0.0000130    -0.0000170
units angstrom
no_reorient  #important for SAPT in psi4, default
symmetry c1  #important for SAPT in psi4, default
}

set PROPERTIES_ORIGIN ["COM"]
properties('MP2/aug-cc-pvtz', properties = ['dipole'])
--------------------------------------------------------------------------

    Molecular point group: c1
  Charge       = 0
  Multiplicity = 1
  Basis Set: AUG-CC-PVTZ
    Blend: AUG-CC-PVTZ
  Basis Set: (AUG-CC-PVTZ AUX)
    Blend: AUG-CC-PVTZ-JKFIT

    Orbital Energies [Eh]
    ---------------------

    Doubly Occupied:

       1A    -11.248580     2A    -11.245331     3A    -11.239284
       4A    -11.239012     5A    -11.238487     6A    -11.238126
       7A    -11.236757     8A    -11.236174     9A    -11.236126
      10A    -11.235728    11A    -11.235428    12A    -11.232247
      13A     -1.169954    14A     -1.141996    15A     -1.050277
      16A     -1.020643    17A     -1.011921    18A     -0.983873
      19A     -0.847302    20A     -0.842030    21A     -0.813306
      22A     -0.790100    23A     -0.717530    24A     -0.681295
      25A     -0.650648    26A     -0.638786    27A     -0.616882
      28A     -0.610695    29A     -0.592590    30A     -0.583991
      31A     -0.581422    32A     -0.521421    33A     -0.515951
      34A     -0.505393    35A     -0.492934    36A     -0.487974
      37A     -0.475498    38A     -0.365115    39A     -0.339906
      40A     -0.337493    41A     -0.307291

  @DF-RHF Final Energy:  -460.39868508295666

   => Energetics <=

    Nuclear Repulsion Energy =            599.3725459308925565
    One-Electron Energy =               -1810.4314714808676854
    Two-Electron Energy =                 750.6602404670184114
    Total Energy =                       -460.3986850829567175
  Basis Set: (AUG-CC-PVTZ AUX)
    Blend: AUG-CC-PVTZ-RI
    Molecular point group: c1

    Geometry (in Angstrom), charge = 0, multiplicity = 1:

       Center              X                  Y                   Z               Mass
    ------------   -----------------  -----------------  -----------------  -----------------
         C            0.742195400588     0.001708923047     0.000835359755    12.000000000000
         C           -0.778144699412    -0.020132176953    -0.009705840245    12.000000000000
         C            1.456993400588     1.119558923047    -0.457565640245    12.000000000000
         C           -1.450365599412     1.119557923047     0.459212359755    12.000000000000
         C            1.456989400588    -1.116154076953     0.459206359755    12.000000000000
         C           -1.450350599412    -1.116156076953    -0.457557640245    12.000000000000
         C            2.852034400588     1.119958923047    -0.455184640245    12.000000000000
         C           -2.845407599412     1.119956923047     0.456815359755    12.000000000000
         C            2.852030400588    -1.116555076953     0.456830359755    12.000000000000
         C           -2.845392599412    -1.116557076953    -0.455197640245    12.000000000000
         C            3.554059400588     0.001693923047     0.000806359755    12.000000000000
         C           -3.547426599412     0.001690923047     0.000818359755    12.000000000000
         H            0.912696400588     1.980356923047    -0.840860640245     1.007825032230
         H           -0.906073599412     1.980353923047     0.842519359755     1.007825032230
         H            0.912685400588    -1.976930076953     0.842542359755     1.007825032230
         H           -0.906041599412    -1.976932076953    -0.840887640245     1.007825032230
         H            3.392365400588     1.990513923047    -0.820144640245     1.007825032230
         H           -3.385742599412     1.990507923047     0.821779359755     1.007825032230
         H            3.392358400588    -1.987120076953     0.821771359755     1.007825032230
         H           -3.385716599412    -1.987123076953    -0.820143640245     1.007825032230
         H            4.641397400588     0.001687923047     0.000800359755     1.007825032230
         H           -4.634764599412     0.001687923047     0.000802359755     1.007825032230

  Basis Set: AUG-CC-PVTZ
    Blend: AUG-CC-PVTZ
  Basis Set: (AUG-CC-PVTZ AUX)
    Blend: AUG-CC-PVTZ-JKFIT
	 Reference Energy          =    -460.3986850829566606 [Eh]
	 Singles Energy            =      -0.0000000000000000 [Eh]
	 Same-Spin Energy          =      -0.5208200329145523 [Eh]
	 Opposite-Spin Energy      =      -1.6225485464285532 [Eh]
	 Correlation Energy        =      -2.1433685793431057 [Eh]
	 Total Energy              =    -462.5420536622997929 [Eh]

	 ================> DF-SCS-MP2 Energies <==================
	-----------------------------------------------------------
	 SCS Same-Spin Scale       =       0.3333333333333333 [-]
	 SCS Opposite-Spin Scale   =       1.2000000000000000 [-]
	 SCS Same-Spin Energy      =      -0.1736066776381841 [Eh]
	 SCS Opposite-Spin Energy  =      -1.9470582557142637 [Eh]
	 SCS Correlation Energy    =      -2.1206649333524479 [Eh]
	 SCS Total Energy          =    -462.5193500163090903 [Eh]
	-----------------------------------------------------------

  Dipole Moment: [D]
     X:    -0.0678      Y:     0.0039      Z:    -0.0009     Total:     0.0679

*** Psi4 exiting successfully. Buy a developer a beer!
