                               Psi4 1.3.2 release

  ==> Input File <==

--------------------------------------------------------------------------
#psi4
#
memory 32 gb

molecule  {
0 1
  C        0.7388790     0.0000080     0.0000160
  C       -0.8690294    -0.0613229    -0.0298436
  C        1.4536770     1.1178580    -0.4583850
  C       -1.4536820     1.1178570     0.4583930
  C        1.4536730    -1.1178550     0.4583870
  C       -1.4536670    -1.1178570    -0.4583770
  C        2.8487180     1.1182580    -0.4560040
  C       -2.8487240     1.1182560     0.4559960
  C        2.8487140    -1.1182560     0.4560110
  C       -2.8487090    -1.1182580    -0.4560170
  C        3.5507430    -0.0000070    -0.0000130
  C       -3.5507430    -0.0000100    -0.0000010
  H        0.9093800     1.9786560    -0.8416800
  H       -0.9093900     1.9786530     0.8417000
  H        0.9093690    -1.9786310     0.8417230
  H       -0.9093580    -1.9786330    -0.8417070
  H        3.3890490     1.9888130    -0.8209640
  H       -3.3890590     1.9888070     0.8209600
  H        3.3890420    -1.9888210     0.8209520
  H       -3.3890330    -1.9888240    -0.8209630
  H        4.6380810    -0.0000130    -0.0000190
  H       -4.6380810    -0.0000130    -0.0000170
units angstrom
no_reorient  #important for SAPT in psi4, default
symmetry c1  #important for SAPT in psi4, default
}

set PROPERTIES_ORIGIN ["COM"]
properties('MP2/aug-cc-pvtz', properties = ['dipole'])
--------------------------------------------------------------------------

    Molecular point group: c1
  Charge       = 0
  Multiplicity = 1
  Basis Set: AUG-CC-PVTZ
    Blend: AUG-CC-PVTZ
  Basis Set: (AUG-CC-PVTZ AUX)
    Blend: AUG-CC-PVTZ-JKFIT

    Orbital Energies [Eh]
    ---------------------

    Doubly Occupied:

       1A    -11.249918     2A    -11.242145     3A    -11.240389
       4A    -11.239671     5A    -11.237450     6A    -11.237240
       7A    -11.236537     8A    -11.235581     9A    -11.234775
      10A    -11.233817    11A    -11.233228    12A    -11.222860
      13A     -1.175283    14A     -1.143434    15A     -1.046071
      16A     -1.024700    17A     -1.011500    18A     -0.986036
      19A     -0.845610    20A     -0.837030    21A     -0.815284
      22A     -0.790457    23A     -0.718149    24A     -0.681232
      25A     -0.644920    26A     -0.639917    27A     -0.618204
      28A     -0.613938    29A     -0.595972    30A     -0.583313
      31A     -0.575181    32A     -0.521181    33A     -0.520493
      34A     -0.509984    35A     -0.495567    36A     -0.489350
      37A     -0.452822    38A     -0.365281    39A     -0.341269
      40A     -0.336172    41A     -0.312447

  @DF-RHF Final Energy:  -460.37625552538628

   => Energetics <=

    Nuclear Repulsion Energy =            599.5346584170126789
    One-Electron Energy =               -1810.7530090431646386
    Two-Electron Energy =                 750.8420951007656186
    Total Energy =                       -460.3762555253863411
  Basis Set: (AUG-CC-PVTZ AUX)
    Blend: AUG-CC-PVTZ-RI
    Molecular point group: c1

    Geometry (in Angstrom), charge = 0, multiplicity = 1:

       Center              X                  Y                   Z               Mass
    ------------   -----------------  -----------------  -----------------  -----------------
         C            0.749015439093     0.004784487567     0.002339925127    12.000000000000
         C           -0.858892960907    -0.056546412433    -0.027519674873    12.000000000000
         C            1.463813439093     1.122634487567    -0.456061074873    12.000000000000
         C           -1.443545560907     1.122633487567     0.460716925127    12.000000000000
         C            1.463809439093    -1.113078512433     0.460710925127    12.000000000000
         C           -1.443530560907    -1.113080512433    -0.456053074873    12.000000000000
         C            2.858854439093     1.123034487567    -0.453680074873    12.000000000000
         C           -2.838587560907     1.123032487567     0.458319925127    12.000000000000
         C            2.858850439093    -1.113479512433     0.458334925127    12.000000000000
         C           -2.838572560907    -1.113481512433    -0.453693074873    12.000000000000
         C            3.560879439093     0.004769487567     0.002310925127    12.000000000000
         C           -3.540606560907     0.004766487567     0.002322925127    12.000000000000
         H            0.919516439093     1.983432487567    -0.839356074873     1.007825032230
         H           -0.899253560907     1.983429487567     0.844023925127     1.007825032230
         H            0.919505439093    -1.973854512433     0.844046925127     1.007825032230
         H           -0.899221560907    -1.973856512433    -0.839383074873     1.007825032230
         H            3.399185439093     1.993589487567    -0.818640074873     1.007825032230
         H           -3.378922560907     1.993583487567     0.823283925127     1.007825032230
         H            3.399178439093    -1.984044512433     0.823275925127     1.007825032230
         H           -3.378896560907    -1.984047512433    -0.818639074873     1.007825032230
         H            4.648217439093     0.004763487567     0.002304925127     1.007825032230
         H           -4.627944560907     0.004763487567     0.002306925127     1.007825032230

  Basis Set: AUG-CC-PVTZ
    Blend: AUG-CC-PVTZ
  Basis Set: (AUG-CC-PVTZ AUX)
    Blend: AUG-CC-PVTZ-JKFIT
	 Reference Energy          =    -460.3762555253862843 [Eh]
	 Singles Energy            =      -0.0000000000000000 [Eh]
	 Same-Spin Energy          =      -0.5204320423426765 [Eh]
	 Opposite-Spin Energy      =      -1.6224636263022112 [Eh]
	 Correlation Energy        =      -2.1428956686448877 [Eh]
	 Total Energy              =    -462.5191511940311671 [Eh]

	 ================> DF-SCS-MP2 Energies <==================
	-----------------------------------------------------------
	 SCS Same-Spin Scale       =       0.3333333333333333 [-]
	 SCS Opposite-Spin Scale   =       1.2000000000000000 [-]
	 SCS Same-Spin Energy      =      -0.1734773474475588 [Eh]
	 SCS Opposite-Spin Energy  =      -1.9469563515626533 [Eh]
	 SCS Correlation Energy    =      -2.1204336990102122 [Eh]
	 SCS Total Energy          =    -462.4966892243965049 [Eh]
	-----------------------------------------------------------

  Dipole Moment: [D]
     X:    -0.2152      Y:     0.0098      Z:    -0.0034     Total:     0.2155

*** Psi4 exiting successfully. Buy a developer a beer!
