                               Psi4 1.3.2 release

  ==> Input File <==

--------------------------------------------------------------------------
#psi4
#
memory 32 gb

molecule  {
0 1
  C        0.7307845    -0.1429097    -0.0585914
  C       -0.7388790     0.0000070    -0.0000030
  C        1.4536770     1.1178580    -0.4583850
  C       -1.4536820     1.1178570     0.4583930
  C        1.4536730    -1.1178550     0.4583870
  C       -1.4536670    -1.1178570    -0.4583770
  C        2.8487180     1.1182580    -0.4560040
  C       -2.8487240     1.1182560     0.4559960
  C        2.8487140    -1.1182560     0.4560110
  C       -2.8487090    -1.1182580    -0.4560170
  C        3.5507430    -0.0000070    -0.0000130
  C       -3.5507430    -0.0000100    -0.0000010
  H        0.9093800     1.9786560    -0.8416800
  H       -0.9093900     1.9786530     0.8417000
  H        0.9093690    -1.9786310     0.8417230
  H       -0.9093580    -1.9786330    -0.8417070
  H        3.3890490     1.9888130    -0.8209640
  H       -3.3890590     1.9888070     0.8209600
  H        3.3890420    -1.9888210     0.8209520
  H       -3.3890330    -1.9888240    -0.8209630
  H        4.6380810    -0.0000130    -0.0000190
  H       -4.6380810    -0.0000130    -0.0000170
units angstrom
no_reorient  #important for SAPT in psi4, default
symmetry c1  #important for SAPT in psi4, default
}

set PROPERTIES_ORIGIN ["COM"]
properties('MP2/aug-cc-pvtz', properties = ['dipole'])
--------------------------------------------------------------------------

    Molecular point group: c1
  Charge       = 0
  Multiplicity = 1
  Basis Set: AUG-CC-PVTZ
    Blend: AUG-CC-PVTZ
  Basis Set: (AUG-CC-PVTZ AUX)
    Blend: AUG-CC-PVTZ-JKFIT

    Orbital Energies [Eh]
    ---------------------

    Doubly Occupied:

       1A    -11.247998     2A    -11.247079     3A    -11.245550
       4A    -11.240302     5A    -11.239276     6A    -11.239038
       7A    -11.238099     8A    -11.237891     9A    -11.237012
      10A    -11.236344    11A    -11.234258    12A    -11.228326
      13A     -1.170106    14A     -1.140650    15A     -1.056017
      16A     -1.019329    17A     -1.012301    18A     -0.980440
      19A     -0.853586    20A     -0.840082    21A     -0.814160
      22A     -0.786150    23A     -0.717326    24A     -0.682109
      25A     -0.655645    26A     -0.638366    27A     -0.617123
      28A     -0.609622    29A     -0.592635    30A     -0.585918
      31A     -0.576819    32A     -0.522252    33A     -0.515697
      34A     -0.504681    35A     -0.495394    36A     -0.490431
      37A     -0.465332    38A     -0.370351    39A     -0.339048
      40A     -0.336617    41A     -0.303065

  @DF-RHF Final Energy:  -460.38087386230200

   => Energetics <=

    Nuclear Repulsion Energy =            599.2543902818426886
    One-Electron Energy =               -1810.1456711644227653
    Two-Electron Energy =                 750.5104070202780804
    Total Energy =                       -460.3808738623019963
  Basis Set: (AUG-CC-PVTZ AUX)
    Blend: AUG-CC-PVTZ-RI
    Molecular point group: c1

    Geometry (in Angstrom), charge = 0, multiplicity = 1:

       Center              X                  Y                   Z               Mass
    ------------   -----------------  -----------------  -----------------  -----------------
         C            0.731414919931    -0.131778950245    -0.054027044448    12.000000000000
         C           -0.738248580069     0.011137749755     0.004561355552    12.000000000000
         C            1.454307419931     1.128988749755    -0.453820644448    12.000000000000
         C           -1.453051580069     1.128987749755     0.462957355552    12.000000000000
         C            1.454303419931    -1.106724250245     0.462951355552    12.000000000000
         C           -1.453036580069    -1.106726250245    -0.453812644448    12.000000000000
         C            2.849348419931     1.129388749755    -0.451439644448    12.000000000000
         C           -2.848093580069     1.129386749755     0.460560355552    12.000000000000
         C            2.849344419931    -1.107125250245     0.460575355552    12.000000000000
         C           -2.848078580069    -1.107127250245    -0.451452644448    12.000000000000
         C            3.551373419931     0.011123749755     0.004551355552    12.000000000000
         C           -3.550112580069     0.011120749755     0.004563355552    12.000000000000
         H            0.910010419931     1.989786749755    -0.837115644448     1.007825032230
         H           -0.908759580069     1.989783749755     0.846264355552     1.007825032230
         H            0.909999419931    -1.967500250245     0.846287355552     1.007825032230
         H           -0.908727580069    -1.967502250245    -0.837142644448     1.007825032230
         H            3.389679419931     1.999943749755    -0.816399644448     1.007825032230
         H           -3.388428580069     1.999937749755     0.825524355552     1.007825032230
         H            3.389672419931    -1.977690250245     0.825516355552     1.007825032230
         H           -3.388402580069    -1.977693250245    -0.816398644448     1.007825032230
         H            4.638711419931     0.011117749755     0.004545355552     1.007825032230
         H           -4.637450580069     0.011117749755     0.004547355552     1.007825032230

  Basis Set: AUG-CC-PVTZ
    Blend: AUG-CC-PVTZ
  Basis Set: (AUG-CC-PVTZ AUX)
    Blend: AUG-CC-PVTZ-JKFIT
	 Reference Energy          =    -460.3808738623019963 [Eh]
	 Singles Energy            =      -0.0000000000000000 [Eh]
	 Same-Spin Energy          =      -0.5212743315860622 [Eh]
	 Opposite-Spin Energy      =      -1.6245542960428478 [Eh]
	 Correlation Energy        =      -2.1458286276289100 [Eh]
	 Total Energy              =    -462.5267024899309263 [Eh]

	 ================> DF-SCS-MP2 Energies <==================
	-----------------------------------------------------------
	 SCS Same-Spin Scale       =       0.3333333333333333 [-]
	 SCS Opposite-Spin Scale   =       1.2000000000000000 [-]
	 SCS Same-Spin Energy      =      -0.1737581105286874 [Eh]
	 SCS Opposite-Spin Energy  =      -1.9494651552514173 [Eh]
	 SCS Correlation Energy    =      -2.1232232657801049 [Eh]
	 SCS Total Energy          =    -462.5040971280820941 [Eh]
	-----------------------------------------------------------

  Dipole Moment: [D]
     X:     0.0090      Y:     0.0240      Z:     0.0244     Total:     0.0354

*** Psi4 exiting successfully. Buy a developer a beer!
