                               Psi4 1.3.2 release

  ==> Input File <==

--------------------------------------------------------------------------
#psi4
#
memory 32 gb

molecule  {
0 1
  C        0.7388790     0.0000080     0.0000160
  C       -0.7179021     0.0117012     0.0048447
  C        1.4536770     1.1178580    -0.4583850
  C       -1.4536820     1.1178570     0.4583930
  C        1.4536730    -1.1178550     0.4583870
  C       -1.4536670    -1.1178570    -0.4583770
  C        2.8487180     1.1182580    -0.4560040
  C       -2.8487240     1.1182560     0.4559960
  C        2.8487140    -1.1182560     0.4560110
  C       -2.8487090    -1.1182580    -0.4560170
  C        3.5507430    -0.0000070    -0.0000130
  C       -3.5507430    -0.0000100    -0.0000010
  H        0.9093800     1.9786560    -0.8416800
  H       -0.9093900     1.9786530     0.8417000
  H        0.9093690    -1.9786310     0.8417230
  H       -0.9093580    -1.9786330    -0.8417070
  H        3.3890490     1.9888130    -0.8209640
  H       -3.3890590     1.9888070     0.8209600
  H        3.3890420    -1.9888210     0.8209520
  H       -3.3890330    -1.9888240    -0.8209630
  H        4.6380810    -0.0000130    -0.0000190
  H       -4.6380810    -0.0000130    -0.0000170
units angstrom
no_reorient  #important for SAPT in psi4, default
symmetry c1  #important for SAPT in psi4, default
}

set PROPERTIES_ORIGIN ["COM"]
properties('MP2/aug-cc-pvtz', properties = ['dipole'])
--------------------------------------------------------------------------

    Molecular point group: c1
  Charge       = 0
  Multiplicity = 1
  Basis Set: AUG-CC-PVTZ
    Blend: AUG-CC-PVTZ
  Basis Set: (AUG-CC-PVTZ AUX)
    Blend: AUG-CC-PVTZ-JKFIT

    Orbital Energies [Eh]
    ---------------------

    Doubly Occupied:

       1A    -11.248072     2A    -11.246157     3A    -11.239470
       4A    -11.239427     5A    -11.239112     6A    -11.238951
       7A    -11.238191     8A    -11.237348     9A    -11.237071
      10A    -11.236868    11A    -11.236723    12A    -11.236500
      13A     -1.169811    14A     -1.139470    15A     -1.056024
      16A     -1.019160    17A     -1.010899    18A     -0.980998
      19A     -0.854659    20A     -0.841567    21A     -0.811193
      22A     -0.788917    23A     -0.717791    24A     -0.681418
      25A     -0.656182    26A     -0.639523    27A     -0.616357
      28A     -0.608431    29A     -0.590253    30A     -0.585685
      31A     -0.582710    32A     -0.521793    33A     -0.515183
      34A     -0.503788    35A     -0.490119    36A     -0.488416
      37A     -0.482403    38A     -0.367066    39A     -0.339641
      40A     -0.337569    41A     -0.301896

  @DF-RHF Final Energy:  -460.39894137431901

   => Energetics <=

    Nuclear Repulsion Energy =            599.3524799815086226
    One-Electron Energy =               -1810.3572228959146742
    Two-Electron Energy =                 750.6058015400869863
    Total Energy =                       -460.3989413743190653
  Basis Set: (AUG-CC-PVTZ AUX)
    Blend: AUG-CC-PVTZ-RI
    Molecular point group: c1

    Geometry (in Angstrom), charge = 0, multiplicity = 1:

       Center              X                  Y                   Z               Mass
    ------------   -----------------  -----------------  -----------------  -----------------
         C            0.737245266495    -0.000902812219    -0.000361686549    12.000000000000
         C           -0.719535833505     0.010790387781     0.004467013451    12.000000000000
         C            1.452043266495     1.116947187781    -0.458762686549    12.000000000000
         C           -1.455315733505     1.116946187781     0.458015313451    12.000000000000
         C            1.452039266495    -1.118765812219     0.458009313451    12.000000000000
         C           -1.455300733505    -1.118767812219    -0.458754686549    12.000000000000
         C            2.847084266495     1.117347187781    -0.456381686549    12.000000000000
         C           -2.850357733505     1.117345187781     0.455618313451    12.000000000000
         C            2.847080266495    -1.119166812219     0.455633313451    12.000000000000
         C           -2.850342733505    -1.119168812219    -0.456394686549    12.000000000000
         C            3.549109266495    -0.000917812219    -0.000390686549    12.000000000000
         C           -3.552376733505    -0.000920812219    -0.000378686549    12.000000000000
         H            0.907746266495     1.977745187781    -0.842057686549     1.007825032230
         H           -0.911023733505     1.977742187781     0.841322313451     1.007825032230
         H            0.907735266495    -1.979541812219     0.841345313451     1.007825032230
         H           -0.910991733505    -1.979543812219    -0.842084686549     1.007825032230
         H            3.387415266495     1.987902187781    -0.821341686549     1.007825032230
         H           -3.390692733505     1.987896187781     0.820582313451     1.007825032230
         H            3.387408266495    -1.989731812219     0.820574313451     1.007825032230
         H           -3.390666733505    -1.989734812219    -0.821340686549     1.007825032230
         H            4.636447266495    -0.000923812219    -0.000396686549     1.007825032230
         H           -4.639714733505    -0.000923812219    -0.000394686549     1.007825032230

  Basis Set: AUG-CC-PVTZ
    Blend: AUG-CC-PVTZ
  Basis Set: (AUG-CC-PVTZ AUX)
    Blend: AUG-CC-PVTZ-JKFIT
	 Reference Energy          =    -460.3989413743190084 [Eh]
	 Singles Energy            =      -0.0000000000000000 [Eh]
	 Same-Spin Energy          =      -0.5215889528305184 [Eh]
	 Opposite-Spin Energy      =      -1.6237323244458681 [Eh]
	 Correlation Energy        =      -2.1453212772763868 [Eh]
	 Total Energy              =    -462.5442626515953748 [Eh]

	 ================> DF-SCS-MP2 Energies <==================
	-----------------------------------------------------------
	 SCS Same-Spin Scale       =       0.3333333333333333 [-]
	 SCS Opposite-Spin Scale   =       1.2000000000000000 [-]
	 SCS Same-Spin Energy      =      -0.1738629842768395 [Eh]
	 SCS Opposite-Spin Energy  =      -1.9484787893350417 [Eh]
	 SCS Correlation Energy    =      -2.1223417736118813 [Eh]
	 SCS Total Energy          =    -462.5212831479308875 [Eh]
	-----------------------------------------------------------

  Dipole Moment: [D]
     X:     0.0337      Y:    -0.0022      Z:     0.0005     Total:     0.0338

*** Psi4 exiting successfully. Buy a developer a beer!
