                               Psi4 1.4a3.dev225

  ==> Input File <==

--------------------------------------------------------------------------
#psi4
#
memory 32 gb

molecule  {
0 1
  C        0.7388790     0.0000080     0.0000160
  C       -0.7188790     0.0000070    -0.0000027
  C        1.4536770     1.1178580    -0.4583850
  C       -1.4536820     1.1178570     0.4583930
  C        1.4536730    -1.1178550     0.4583870
  C       -1.4536670    -1.1178570    -0.4583770
  C        2.8487180     1.1182580    -0.4560040
  C       -2.8487240     1.1182560     0.4559960
  C        2.8487140    -1.1182560     0.4560110
  C       -2.8487090    -1.1182580    -0.4560170
  C        3.5507430    -0.0000070    -0.0000130
  C       -3.5507430    -0.0000100    -0.0000010
  H        0.9093800     1.9786560    -0.8416800
  H       -0.9093900     1.9786530     0.8417000
  H        0.9093690    -1.9786310     0.8417230
  H       -0.9093580    -1.9786330    -0.8417070
  H        3.3890490     1.9888130    -0.8209640
  H       -3.3890590     1.9888070     0.8209600
  H        3.3890420    -1.9888210     0.8209520
  H       -3.3890330    -1.9888240    -0.8209630
  H        4.6380810    -0.0000130    -0.0000190
  H       -4.6380810    -0.0000130    -0.0000170
units angstrom
no_reorient  #important for SAPT in psi4, default
symmetry c1  #important for SAPT in psi4, default
}

set PROPERTIES_ORIGIN ["COM"]
properties('MP2/aug-cc-pvtz', properties = ['dipole'])
--------------------------------------------------------------------------

    Molecular point group: c1
  Charge       = 0
  Multiplicity = 1
  Basis Set: AUG-CC-PVTZ
    Blend: AUG-CC-PVTZ
  Basis Set: (AUG-CC-PVTZ AUX)
    Blend: AUG-CC-PVTZ-JKFIT

    Orbital Energies [Eh]
    ---------------------

    Doubly Occupied:

       1A    -11.248050     2A    -11.246187     3A    -11.239391
       4A    -11.239127     5A    -11.239115     6A    -11.238917
       7A    -11.237729     8A    -11.237582     9A    -11.237242
      10A    -11.237112    11A    -11.236724    12A    -11.236559
      13A     -1.169783    14A     -1.139505    15A     -1.055910
      16A     -1.019163    17A     -1.010905    18A     -0.981061
      19A     -0.854538    20A     -0.841570    21A     -0.811187
      22A     -0.788986    23A     -0.717782    24A     -0.681406
      25A     -0.656078    26A     -0.639513    27A     -0.616355
      28A     -0.608450    29A     -0.590215    30A     -0.585584
      31A     -0.582878    32A     -0.521779    33A     -0.515172
      34A     -0.503791    35A     -0.490086    36A     -0.487965
      37A     -0.482962    38A     -0.366992    39A     -0.339633
      40A     -0.337573    41A     -0.301993

  @DF-RHF Final Energy:  -460.39920498338682

   => Energetics <=

    Nuclear Repulsion Energy =            599.3516303547841062
    One-Electron Energy =               -1810.3565702503981356
    Two-Electron Energy =                 750.6057349122270352
    Total Energy =                       -460.3992049833868805
  Basis Set: (AUG-CC-PVTZ AUX)
    Blend: AUG-CC-PVTZ-RI
    Molecular point group: c1

    Geometry (in Angstrom), charge = 0, multiplicity = 1:

       Center              X                  Y                   Z               Mass
    ------------   -----------------  -----------------  -----------------  -----------------
         C            0.737321349913     0.000007961363     0.000015841103    12.000000000000
         C           -0.720436650087     0.000006961363    -0.000002858897    12.000000000000
         C            1.452119349913     1.117857961363    -0.458385158897    12.000000000000
         C           -1.455239650087     1.117856961363     0.458392841103    12.000000000000
         C            1.452115349913    -1.117855038637     0.458386841103    12.000000000000
         C           -1.455224650087    -1.117857038637    -0.458377158897    12.000000000000
         C            2.847160349913     1.118257961363    -0.456004158897    12.000000000000
         C           -2.850281650087     1.118255961363     0.455995841103    12.000000000000
         C            2.847156349913    -1.118256038637     0.456010841103    12.000000000000
         C           -2.850266650087    -1.118258038637    -0.456017158897    12.000000000000
         C            3.549185349913    -0.000007038637    -0.000013158897    12.000000000000
         C           -3.552300650087    -0.000010038637    -0.000001158897    12.000000000000
         H            0.907822349913     1.978655961363    -0.841680158897     1.007825032230
         H           -0.910947650087     1.978652961363     0.841699841103     1.007825032230
         H            0.907811349913    -1.978631038637     0.841722841103     1.007825032230
         H           -0.910915650087    -1.978633038637    -0.841707158897     1.007825032230
         H            3.387491349913     1.988812961363    -0.820964158897     1.007825032230
         H           -3.390616650087     1.988806961363     0.820959841103     1.007825032230
         H            3.387484349913    -1.988821038637     0.820951841103     1.007825032230
         H           -3.390590650087    -1.988824038637    -0.820963158897     1.007825032230
         H            4.636523349913    -0.000013038637    -0.000019158897     1.007825032230
         H           -4.639638650087    -0.000013038637    -0.000017158897     1.007825032230

  Basis Set: AUG-CC-PVTZ
    Blend: AUG-CC-PVTZ
  Basis Set: (AUG-CC-PVTZ AUX)
    Blend: AUG-CC-PVTZ-JKFIT
	 Reference Energy          =    -460.3992049833868236 [Eh]
	 Singles Energy            =      -0.0000000000000000 [Eh]
	 Same-Spin Energy          =      -0.5215789389347583 [Eh]
	 Opposite-Spin Energy      =      -1.6237007631816773 [Eh]
	 Correlation Energy        =      -2.1452797021164356 [Eh]
	 Total Energy              =    -462.5444846855032779 [Eh]

	 ================> DF-SCS-MP2 Energies <==================
	-----------------------------------------------------------
	 SCS Same-Spin Scale       =       0.3333333333333333 [-]
	 SCS Opposite-Spin Scale   =       1.2000000000000000 [-]
	 SCS Same-Spin Energy      =      -0.1738596463115861 [Eh]
	 SCS Opposite-Spin Energy  =      -1.9484409158180127 [Eh]
	 SCS Correlation Energy    =      -2.1223005621295989 [Eh]
	 SCS Total Energy          =    -462.5215055455164475 [Eh]
	-----------------------------------------------------------

  Dipole Moment: [D]
     X:     0.0320      Y:     0.0000      Z:    -0.0000     Total:     0.0320

*** Psi4 exiting successfully. Buy a developer a beer!
