                               Psi4 1.4a3.dev225

  ==> Input File <==

--------------------------------------------------------------------------
#psi4
#
memory 32 gb

molecule  {
0 1
  C        0.7388790     0.0000080     0.0000160
  C       -0.7588790     0.0000070    -0.0000033
  C        1.4536770     1.1178580    -0.4583850
  C       -1.4536820     1.1178570     0.4583930
  C        1.4536730    -1.1178550     0.4583870
  C       -1.4536670    -1.1178570    -0.4583770
  C        2.8487180     1.1182580    -0.4560040
  C       -2.8487240     1.1182560     0.4559960
  C        2.8487140    -1.1182560     0.4560110
  C       -2.8487090    -1.1182580    -0.4560170
  C        3.5507430    -0.0000070    -0.0000130
  C       -3.5507430    -0.0000100    -0.0000010
  H        0.9093800     1.9786560    -0.8416800
  H       -0.9093900     1.9786530     0.8417000
  H        0.9093690    -1.9786310     0.8417230
  H       -0.9093580    -1.9786330    -0.8417070
  H        3.3890490     1.9888130    -0.8209640
  H       -3.3890590     1.9888070     0.8209600
  H        3.3890420    -1.9888210     0.8209520
  H       -3.3890330    -1.9888240    -0.8209630
  H        4.6380810    -0.0000130    -0.0000190
  H       -4.6380810    -0.0000130    -0.0000170
units angstrom
no_reorient  #important for SAPT in psi4, default
symmetry c1  #important for SAPT in psi4, default
}

set PROPERTIES_ORIGIN ["COM"]
properties('MP2/aug-cc-pvtz', properties = ['dipole'])
--------------------------------------------------------------------------

    Molecular point group: c1
  Charge       = 0
  Multiplicity = 1
  Basis Set: AUG-CC-PVTZ
    Blend: AUG-CC-PVTZ
  Basis Set: (AUG-CC-PVTZ AUX)
    Blend: AUG-CC-PVTZ-JKFIT

    Orbital Energies [Eh]
    ---------------------

    Doubly Occupied:

       1A    -11.247909     2A    -11.246228     3A    -11.239133
       4A    -11.238876     5A    -11.238775     6A    -11.238518
       7A    -11.236425     8A    -11.236377     9A    -11.236309
      10A    -11.235944    11A    -11.235731    12A    -11.235624
      13A     -1.169555    14A     -1.141199    15A     -1.052110
      16A     -1.019878    17A     -1.011672    18A     -0.982991
      19A     -0.849757    20A     -0.841829    21A     -0.812542
      22A     -0.789836    23A     -0.717555    24A     -0.681317
      25A     -0.652487    26A     -0.638947    27A     -0.616672
      28A     -0.609782    29A     -0.591549    30A     -0.583638
      31A     -0.583273    32A     -0.521529    33A     -0.515451
      34A     -0.504597    35A     -0.491842    36A     -0.486387
      37A     -0.480792    38A     -0.365621    39A     -0.339646
      40A     -0.337658    41A     -0.305530

  @DF-RHF Final Energy:  -460.40052430014617

   => Energetics <=

    Nuclear Repulsion Energy =            599.3550803188398959
    One-Electron Energy =               -1810.3882208557761260
    Two-Electron Energy =                 750.6326162367899997
    Total Energy =                       -460.4005243001461167
  Basis Set: (AUG-CC-PVTZ AUX)
    Blend: AUG-CC-PVTZ-RI
    Molecular point group: c1

    Geometry (in Angstrom), charge = 0, multiplicity = 1:

       Center              X                  Y                   Z               Mass
    ------------   -----------------  -----------------  -----------------  -----------------
         C            0.740436650087     0.000007961363     0.000015887832    12.000000000000
         C           -0.757321349913     0.000006961363    -0.000003412168    12.000000000000
         C            1.455234650087     1.117857961363    -0.458385112168    12.000000000000
         C           -1.452124349913     1.117856961363     0.458392887832    12.000000000000
         C            1.455230650087    -1.117855038637     0.458386887832    12.000000000000
         C           -1.452109349913    -1.117857038637    -0.458377112168    12.000000000000
         C            2.850275650087     1.118257961363    -0.456004112168    12.000000000000
         C           -2.847166349913     1.118255961363     0.455995887832    12.000000000000
         C            2.850271650087    -1.118256038637     0.456010887832    12.000000000000
         C           -2.847151349913    -1.118258038637    -0.456017112168    12.000000000000
         C            3.552300650087    -0.000007038637    -0.000013112168    12.000000000000
         C           -3.549185349913    -0.000010038637    -0.000001112168    12.000000000000
         H            0.910937650087     1.978655961363    -0.841680112168     1.007825032230
         H           -0.907832349913     1.978652961363     0.841699887832     1.007825032230
         H            0.910926650087    -1.978631038637     0.841722887832     1.007825032230
         H           -0.907800349913    -1.978633038637    -0.841707112168     1.007825032230
         H            3.390606650087     1.988812961363    -0.820964112168     1.007825032230
         H           -3.387501349913     1.988806961363     0.820959887832     1.007825032230
         H            3.390599650087    -1.988821038637     0.820951887832     1.007825032230
         H           -3.387475349913    -1.988824038637    -0.820963112168     1.007825032230
         H            4.639638650087    -0.000013038637    -0.000019112168     1.007825032230
         H           -4.636523349913    -0.000013038637    -0.000017112168     1.007825032230

  Basis Set: AUG-CC-PVTZ
    Blend: AUG-CC-PVTZ
  Basis Set: (AUG-CC-PVTZ AUX)
    Blend: AUG-CC-PVTZ-JKFIT
	 Reference Energy          =    -460.4005243001461736 [Eh]
	 Singles Energy            =      -0.0000000000000000 [Eh]
	 Same-Spin Energy          =      -0.5210510745791608 [Eh]
	 Opposite-Spin Energy      =      -1.6228509212640074 [Eh]
	 Correlation Energy        =      -2.1439019958431684 [Eh]
	 Total Energy              =    -462.5444262959893535 [Eh]

	 ================> DF-SCS-MP2 Energies <==================
	-----------------------------------------------------------
	 SCS Same-Spin Scale       =       0.3333333333333333 [-]
	 SCS Opposite-Spin Scale   =       1.2000000000000000 [-]
	 SCS Same-Spin Energy      =      -0.1736836915263869 [Eh]
	 SCS Opposite-Spin Energy  =      -1.9474211055168089 [Eh]
	 SCS Correlation Energy    =      -2.1211047970431958 [Eh]
	 SCS Total Energy          =    -462.5216290971893613 [Eh]
	-----------------------------------------------------------

  Dipole Moment: [D]
     X:    -0.0319      Y:     0.0000      Z:    -0.0000     Total:     0.0319

*** Psi4 exiting successfully. Buy a developer a beer!
