                               Psi4 1.3.2 release

  ==> Input File <==

--------------------------------------------------------------------------
#psi4
#
memory 32 gb

molecule  {
0 1
  C        0.7379791    -0.0477087    -0.0195516
  C       -0.7388790     0.0000070    -0.0000030
  C        1.4536770     1.1178580    -0.4583850
  C       -1.4536820     1.1178570     0.4583930
  C        1.4536730    -1.1178550     0.4583870
  C       -1.4536670    -1.1178570    -0.4583770
  C        2.8487180     1.1182580    -0.4560040
  C       -2.8487240     1.1182560     0.4559960
  C        2.8487140    -1.1182560     0.4560110
  C       -2.8487090    -1.1182580    -0.4560170
  C        3.5507430    -0.0000070    -0.0000130
  C       -3.5507430    -0.0000100    -0.0000010
  H        0.9093800     1.9786560    -0.8416800
  H       -0.9093900     1.9786530     0.8417000
  H        0.9093690    -1.9786310     0.8417230
  H       -0.9093580    -1.9786330    -0.8417070
  H        3.3890490     1.9888130    -0.8209640
  H       -3.3890590     1.9888070     0.8209600
  H        3.3890420    -1.9888210     0.8209520
  H       -3.3890330    -1.9888240    -0.8209630
  H        4.6380810    -0.0000130    -0.0000190
  H       -4.6380810    -0.0000130    -0.0000170
units angstrom
no_reorient  #important for SAPT in psi4, default
symmetry c1  #important for SAPT in psi4, default
}

set PROPERTIES_ORIGIN ["COM"]
properties('MP2/aug-cc-pvtz', properties = ['dipole'])
--------------------------------------------------------------------------

    Molecular point group: c1
  Charge       = 0
  Multiplicity = 1
  Basis Set: AUG-CC-PVTZ
    Blend: AUG-CC-PVTZ
  Basis Set: (AUG-CC-PVTZ AUX)
    Blend: AUG-CC-PVTZ-JKFIT

    Orbital Energies [Eh]
    ---------------------

    Doubly Occupied:

       1A    -11.247531     2A    -11.246768     3A    -11.240123
       4A    -11.239375     5A    -11.239065     6A    -11.238559
       7A    -11.238303     8A    -11.237521     9A    -11.236553
      10A    -11.236494    11A    -11.235834    12A    -11.233783
      13A     -1.169605    14A     -1.140430    15A     -1.054196
      16A     -1.019413    17A     -1.011464    18A     -0.981867
      19A     -0.852294    20A     -0.841456    21A     -0.812185
      22A     -0.789018    23A     -0.717606    24A     -0.681447
      25A     -0.654421    26A     -0.639076    27A     -0.616588
      28A     -0.609150    29A     -0.591132    30A     -0.585116
      31A     -0.581981    32A     -0.521720    33A     -0.515279
      34A     -0.504164    35A     -0.490902    36A     -0.489189
      37A     -0.479226    38A     -0.366792    39A     -0.339455
      40A     -0.337582    41A     -0.303725

  @DF-RHF Final Energy:  -460.39817681112919

   => Energetics <=

    Nuclear Repulsion Energy =            599.3393311409982971
    One-Electron Energy =               -1810.3422404899524736
    Two-Electron Energy =                 750.6047325378250434
    Total Energy =                       -460.3981768111292467
  Basis Set: (AUG-CC-PVTZ AUX)
    Blend: AUG-CC-PVTZ-RI
    Molecular point group: c1

    Geometry (in Angstrom), charge = 0, multiplicity = 1:

       Center              X                  Y                   Z               Mass
    ------------   -----------------  -----------------  -----------------  -----------------
         C            0.738049186466    -0.043992442542    -0.018027761841    12.000000000000
         C           -0.738808913534     0.003723257458     0.001520838159    12.000000000000
         C            1.453747086466     1.121574257458    -0.456861161841    12.000000000000
         C           -1.453611913534     1.121573257458     0.459916838159    12.000000000000
         C            1.453743086466    -1.114138742542     0.459910838159    12.000000000000
         C           -1.453596913534    -1.114140742542    -0.456853161841    12.000000000000
         C            2.848788086466     1.121974257458    -0.454480161841    12.000000000000
         C           -2.848653913534     1.121972257458     0.457519838159    12.000000000000
         C            2.848784086466    -1.114539742542     0.457534838159    12.000000000000
         C           -2.848638913534    -1.114541742542    -0.454493161841    12.000000000000
         C            3.550813086466     0.003709257458     0.001510838159    12.000000000000
         C           -3.550672913534     0.003706257458     0.001522838159    12.000000000000
         H            0.909450086466     1.982372257458    -0.840156161841     1.007825032230
         H           -0.909319913534     1.982369257458     0.843223838159     1.007825032230
         H            0.909439086466    -1.974914742542     0.843246838159     1.007825032230
         H           -0.909287913534    -1.974916742542    -0.840183161841     1.007825032230
         H            3.389119086466     1.992529257458    -0.819440161841     1.007825032230
         H           -3.388988913534     1.992523257458     0.822483838159     1.007825032230
         H            3.389112086466    -1.985104742542     0.822475838159     1.007825032230
         H           -3.388962913534    -1.985107742542    -0.819439161841     1.007825032230
         H            4.638151086466     0.003703257458     0.001504838159     1.007825032230
         H           -4.638010913534     0.003703257458     0.001506838159     1.007825032230

  Basis Set: AUG-CC-PVTZ
    Blend: AUG-CC-PVTZ
  Basis Set: (AUG-CC-PVTZ AUX)
    Blend: AUG-CC-PVTZ-JKFIT
	 Reference Energy          =    -460.3981768111291899 [Eh]
	 Singles Energy            =      -0.0000000000000000 [Eh]
	 Same-Spin Energy          =      -0.5212821927453194 [Eh]
	 Opposite-Spin Energy      =      -1.6233796160234721 [Eh]
	 Correlation Energy        =      -2.1446618087687916 [Eh]
	 Total Energy              =    -462.5428386198979638 [Eh]

	 ================> DF-SCS-MP2 Energies <==================
	-----------------------------------------------------------
	 SCS Same-Spin Scale       =       0.3333333333333333 [-]
	 SCS Opposite-Spin Scale   =       1.2000000000000000 [-]
	 SCS Same-Spin Energy      =      -0.1737607309151065 [Eh]
	 SCS Opposite-Spin Energy  =      -1.9480555392281664 [Eh]
	 SCS Correlation Energy    =      -2.1218162701432730 [Eh]
	 SCS Total Energy          =    -462.5199930812724460 [Eh]
	-----------------------------------------------------------

  Dipole Moment: [D]
     X:     0.0010      Y:     0.0091      Z:     0.0080     Total:     0.0121

*** Psi4 exiting successfully. Buy a developer a beer!
