                               Psi4 1.3.2 release

  ==> Input File <==

--------------------------------------------------------------------------
#psi4
#
memory 32 gb

molecule  {
0 1
  C        0.7386538     0.0238700     0.0098013
  C       -0.7388790     0.0000070    -0.0000030
  C        1.4536770     1.1178580    -0.4583850
  C       -1.4536820     1.1178570     0.4583930
  C        1.4536730    -1.1178550     0.4583870
  C       -1.4536670    -1.1178570    -0.4583770
  C        2.8487180     1.1182580    -0.4560040
  C       -2.8487240     1.1182560     0.4559960
  C        2.8487140    -1.1182560     0.4560110
  C       -2.8487090    -1.1182580    -0.4560170
  C        3.5507430    -0.0000070    -0.0000130
  C       -3.5507430    -0.0000100    -0.0000010
  H        0.9093800     1.9786560    -0.8416800
  H       -0.9093900     1.9786530     0.8417000
  H        0.9093690    -1.9786310     0.8417230
  H       -0.9093580    -1.9786330    -0.8417070
  H        3.3890490     1.9888130    -0.8209640
  H       -3.3890590     1.9888070     0.8209600
  H        3.3890420    -1.9888210     0.8209520
  H       -3.3890330    -1.9888240    -0.8209630
  H        4.6380810    -0.0000130    -0.0000190
  H       -4.6380810    -0.0000130    -0.0000170
units angstrom
no_reorient  #important for SAPT in psi4, default
symmetry c1  #important for SAPT in psi4, default
}

set PROPERTIES_ORIGIN ["COM"]
properties('MP2/aug-cc-pvtz', properties = ['dipole'])
--------------------------------------------------------------------------

    Molecular point group: c1
  Charge       = 0
  Multiplicity = 1
  Basis Set: AUG-CC-PVTZ
    Blend: AUG-CC-PVTZ
  Basis Set: (AUG-CC-PVTZ AUX)
    Blend: AUG-CC-PVTZ-JKFIT

    Orbital Energies [Eh]
    ---------------------

    Doubly Occupied:

       1A    -11.247500     2A    -11.246741     3A    -11.239190
       4A    -11.239189     5A    -11.238936     6A    -11.238720
       7A    -11.237929     8A    -11.237139     9A    -11.236549
      10A    -11.236494    11A    -11.236184    12A    -11.235242
      13A     -1.169557    14A     -1.140407    15A     -1.054016
      16A     -1.019423    17A     -1.011376    18A     -0.982016
      19A     -0.852153    20A     -0.841607    21A     -0.811968
      22A     -0.789323    23A     -0.717632    24A     -0.681386
      25A     -0.654291    26A     -0.639154    27A     -0.616539
      28A     -0.609085    29A     -0.590896    30A     -0.584733
      31A     -0.582902    32A     -0.521670    33A     -0.515245
      34A     -0.504119    35A     -0.490944    36A     -0.487062
      37A     -0.482075    38A     -0.366418    39A     -0.339533
      40A     -0.337656    41A     -0.303792

  @DF-RHF Final Energy:  -460.39983359975503

   => Energetics <=

    Nuclear Repulsion Energy =            599.3470798613968782
    One-Electron Energy =               -1810.3602390030516744
    Two-Electron Energy =                 750.6133255418997123
    Total Energy =                       -460.3998335997550839
  Basis Set: (AUG-CC-PVTZ AUX)
    Blend: AUG-CC-PVTZ-RI
    Molecular point group: c1

    Geometry (in Angstrom), charge = 0, multiplicity = 1:

       Center              X                  Y                   Z               Mass
    ------------   -----------------  -----------------  -----------------  -----------------
         C            0.738671339140     0.022011529045     0.009039060798    12.000000000000
         C           -0.738861460860    -0.001851470955    -0.000765239202    12.000000000000
         C            1.453694539140     1.115999529045    -0.459147239202    12.000000000000
         C           -1.453664460860     1.115998529045     0.457630760798    12.000000000000
         C            1.453690539140    -1.119713470955     0.457624760798    12.000000000000
         C           -1.453649460860    -1.119715470955    -0.459139239202    12.000000000000
         C            2.848735539140     1.116399529045    -0.456766239202    12.000000000000
         C           -2.848706460860     1.116397529045     0.455233760798    12.000000000000
         C            2.848731539140    -1.120114470955     0.455248760798    12.000000000000
         C           -2.848691460860    -1.120116470955    -0.456779239202    12.000000000000
         C            3.550760539140    -0.001865470955    -0.000775239202    12.000000000000
         C           -3.550725460860    -0.001868470955    -0.000763239202    12.000000000000
         H            0.909397539140     1.976797529045    -0.842442239202     1.007825032230
         H           -0.909372460860     1.976794529045     0.840937760798     1.007825032230
         H            0.909386539140    -1.980489470955     0.840960760798     1.007825032230
         H           -0.909340460860    -1.980491470955    -0.842469239202     1.007825032230
         H            3.389066539140     1.986954529045    -0.821726239202     1.007825032230
         H           -3.389041460860     1.986948529045     0.820197760798     1.007825032230
         H            3.389059539140    -1.990679470955     0.820189760798     1.007825032230
         H           -3.389015460860    -1.990682470955    -0.821725239202     1.007825032230
         H            4.638098539140    -0.001871470955    -0.000781239202     1.007825032230
         H           -4.638063460860    -0.001871470955    -0.000779239202     1.007825032230

  Basis Set: AUG-CC-PVTZ
    Blend: AUG-CC-PVTZ
  Basis Set: (AUG-CC-PVTZ AUX)
    Blend: AUG-CC-PVTZ-JKFIT
	 Reference Energy          =    -460.3998335997550271 [Eh]
	 Singles Energy            =      -0.0000000000000000 [Eh]
	 Same-Spin Energy          =      -0.5212876137644127 [Eh]
	 Opposite-Spin Energy      =      -1.6232690191198285 [Eh]
	 Correlation Energy        =      -2.1445566328842411 [Eh]
	 Total Energy              =    -462.5443902326392731 [Eh]

	 ================> DF-SCS-MP2 Energies <==================
	-----------------------------------------------------------
	 SCS Same-Spin Scale       =       0.3333333333333333 [-]
	 SCS Opposite-Spin Scale   =       1.2000000000000000 [-]
	 SCS Same-Spin Energy      =      -0.1737625379214709 [Eh]
	 SCS Opposite-Spin Energy  =      -1.9479228229437942 [Eh]
	 SCS Correlation Energy    =      -2.1216853608652650 [Eh]
	 SCS Total Energy          =    -462.5215189606203126 [Eh]
	-----------------------------------------------------------

  Dipole Moment: [D]
     X:     0.0003      Y:    -0.0046      Z:    -0.0040     Total:     0.0061

*** Psi4 exiting successfully. Buy a developer a beer!
