                               Psi4 1.3.2 release

  ==> Input File <==

--------------------------------------------------------------------------
#psi4
#
memory 32 gb

molecule  {
0 1
  C        0.7388790     0.0000080     0.0000160
  C       -0.8248622    -0.0422848    -0.0204761
  C        1.4536770     1.1178580    -0.4583850
  C       -1.4536820     1.1178570     0.4583930
  C        1.4536730    -1.1178550     0.4583870
  C       -1.4536670    -1.1178570    -0.4583770
  C        2.8487180     1.1182580    -0.4560040
  C       -2.8487240     1.1182560     0.4559960
  C        2.8487140    -1.1182560     0.4560110
  C       -2.8487090    -1.1182580    -0.4560170
  C        3.5507430    -0.0000070    -0.0000130
  C       -3.5507430    -0.0000100    -0.0000010
  H        0.9093800     1.9786560    -0.8416800
  H       -0.9093900     1.9786530     0.8417000
  H        0.9093690    -1.9786310     0.8417230
  H       -0.9093580    -1.9786330    -0.8417070
  H        3.3890490     1.9888130    -0.8209640
  H       -3.3890590     1.9888070     0.8209600
  H        3.3890420    -1.9888210     0.8209520
  H       -3.3890330    -1.9888240    -0.8209630
  H        4.6380810    -0.0000130    -0.0000190
  H       -4.6380810    -0.0000130    -0.0000170
units angstrom
no_reorient  #important for SAPT in psi4, default
symmetry c1  #important for SAPT in psi4, default
}

set PROPERTIES_ORIGIN ["COM"]
properties('MP2/aug-cc-pvtz', properties = ['dipole'])
--------------------------------------------------------------------------

    Molecular point group: c1
  Charge       = 0
  Multiplicity = 1
  Basis Set: AUG-CC-PVTZ
    Blend: AUG-CC-PVTZ
  Basis Set: (AUG-CC-PVTZ AUX)
    Blend: AUG-CC-PVTZ-JKFIT

    Orbital Energies [Eh]
    ---------------------

    Doubly Occupied:

       1A    -11.249531     2A    -11.243653     3A    -11.239730
       4A    -11.239287     5A    -11.237899     6A    -11.237361
       7A    -11.236974     8A    -11.235830     9A    -11.235526
      10A    -11.234784    11A    -11.234370    12A    -11.227551
      13A     -1.171828    14A     -1.143049    15A     -1.047473
      16A     -1.022641    17A     -1.011939    18A     -0.985193
      19A     -0.844610    20A     -0.841010    21A     -0.814502
      22A     -0.790405    23A     -0.717690    24A     -0.681258
      25A     -0.647495    26A     -0.638954    27A     -0.617380
      28A     -0.612532    29A     -0.594464    30A     -0.583808
      31A     -0.578298    32A     -0.521256    33A     -0.517663
      34A     -0.507474    35A     -0.494655    36A     -0.489187
      37A     -0.464915    38A     -0.364680    39A     -0.340627
      40A     -0.336922    41A     -0.310188

  @DF-RHF Final Energy:  -460.39069411345776

   => Energetics <=

    Nuclear Repulsion Energy =            599.4342093002485399
    One-Electron Energy =               -1810.5606177585045771
    Two-Electron Energy =                 750.7357143447982253
    Total Energy =                       -460.3906941134578119
  Basis Set: (AUG-CC-PVTZ AUX)
    Blend: AUG-CC-PVTZ-RI
    Molecular point group: c1

    Geometry (in Angstrom), charge = 0, multiplicity = 1:

       Center              X                  Y                   Z               Mass
    ------------   -----------------  -----------------  -----------------  -----------------
         C            0.745575586947     0.003301752661     0.001610360767    12.000000000000
         C           -0.818165613053    -0.038991047339    -0.018881739233    12.000000000000
         C            1.460373586947     1.121151752661    -0.456790639233    12.000000000000
         C           -1.446985413053     1.121150752661     0.459987360767    12.000000000000
         C            1.460369586947    -1.114561247339     0.459981360767    12.000000000000
         C           -1.446970413053    -1.114563247339    -0.456782639233    12.000000000000
         C            2.855414586947     1.121551752661    -0.454409639233    12.000000000000
         C           -2.842027413053     1.121549752661     0.457590360767    12.000000000000
         C            2.855410586947    -1.114962247339     0.457605360767    12.000000000000
         C           -2.842012413053    -1.114964247339    -0.454422639233    12.000000000000
         C            3.557439586947     0.003286752661     0.001581360767    12.000000000000
         C           -3.544046413053     0.003283752661     0.001593360767    12.000000000000
         H            0.916076586947     1.981949752661    -0.840085639233     1.007825032230
         H           -0.902693413053     1.981946752661     0.843294360767     1.007825032230
         H            0.916065586947    -1.975337247339     0.843317360767     1.007825032230
         H           -0.902661413053    -1.975339247339    -0.840112639233     1.007825032230
         H            3.395745586947     1.992106752661    -0.819369639233     1.007825032230
         H           -3.382362413053     1.992100752661     0.822554360767     1.007825032230
         H            3.395738586947    -1.985527247339     0.822546360767     1.007825032230
         H           -3.382336413053    -1.985530247339    -0.819368639233     1.007825032230
         H            4.644777586947     0.003280752661     0.001575360767     1.007825032230
         H           -4.631384413053     0.003280752661     0.001577360767     1.007825032230

  Basis Set: AUG-CC-PVTZ
    Blend: AUG-CC-PVTZ
  Basis Set: (AUG-CC-PVTZ AUX)
    Blend: AUG-CC-PVTZ-JKFIT
	 Reference Energy          =    -460.3906941134577551 [Eh]
	 Singles Energy            =      -0.0000000000000000 [Eh]
	 Same-Spin Energy          =      -0.5205301612481960 [Eh]
	 Opposite-Spin Energy      =      -1.6222928257302507 [Eh]
	 Correlation Energy        =      -2.1428229869784468 [Eh]
	 Total Energy              =    -462.5335171004361996 [Eh]

	 ================> DF-SCS-MP2 Energies <==================
	-----------------------------------------------------------
	 SCS Same-Spin Scale       =       0.3333333333333333 [-]
	 SCS Opposite-Spin Scale   =       1.2000000000000000 [-]
	 SCS Same-Spin Energy      =      -0.1735100537493987 [Eh]
	 SCS Opposite-Spin Energy  =      -1.9467513908763008 [Eh]
	 SCS Correlation Energy    =      -2.1202614446256995 [Eh]
	 SCS Total Energy          =    -462.5109555580834808 [Eh]
	-----------------------------------------------------------

  Dipole Moment: [D]
     X:    -0.1384      Y:     0.0073      Z:    -0.0021     Total:     0.1386

*** Psi4 exiting successfully. Buy a developer a beer!
