                               Psi4 1.3.2 release

  ==> Input File <==

--------------------------------------------------------------------------
#psi4
#
memory 32 gb

molecule  {
0 1
  C        0.7388790     0.0000080     0.0000160
  C       -0.6165051     0.0751513     0.0311243
  C        1.4536770     1.1178580    -0.4583850
  C       -1.4536820     1.1178570     0.4583930
  C        1.4536730    -1.1178550     0.4583870
  C       -1.4536670    -1.1178570    -0.4583770
  C        2.8487180     1.1182580    -0.4560040
  C       -2.8487240     1.1182560     0.4559960
  C        2.8487140    -1.1182560     0.4560110
  C       -2.8487090    -1.1182580    -0.4560170
  C        3.5507430    -0.0000070    -0.0000130
  C       -3.5507430    -0.0000100    -0.0000010
  H        0.9093800     1.9786560    -0.8416800
  H       -0.9093900     1.9786530     0.8417000
  H        0.9093690    -1.9786310     0.8417230
  H       -0.9093580    -1.9786330    -0.8417070
  H        3.3890490     1.9888130    -0.8209640
  H       -3.3890590     1.9888070     0.8209600
  H        3.3890420    -1.9888210     0.8209520
  H       -3.3890330    -1.9888240    -0.8209630
  H        4.6380810    -0.0000130    -0.0000190
  H       -4.6380810    -0.0000130    -0.0000170
units angstrom
no_reorient  #important for SAPT in psi4, default
symmetry c1  #important for SAPT in psi4, default
}

set PROPERTIES_ORIGIN ["COM"]
properties('MP2/aug-cc-pvtz', properties = ['dipole'])
--------------------------------------------------------------------------

    Molecular point group: c1
  Charge       = 0
  Multiplicity = 1
  Basis Set: AUG-CC-PVTZ
    Blend: AUG-CC-PVTZ
  Basis Set: (AUG-CC-PVTZ AUX)
    Blend: AUG-CC-PVTZ-JKFIT

    Orbital Energies [Eh]
    ---------------------

    Doubly Occupied:

       1A    -11.252069     2A    -11.248320     3A    -11.241757
       4A    -11.241093     5A    -11.240535     6A    -11.239973
       7A    -11.239154     8A    -11.239039     9A    -11.238204
      10A    -11.238190    11A    -11.237528    12A    -11.236908
      13A     -1.174872    14A     -1.134541    15A     -1.067730
      16A     -1.019815    17A     -1.008718    18A     -0.974665
      19A     -0.867841    20A     -0.842437    21A     -0.808920
      22A     -0.784466    23A     -0.719336    24A     -0.681886
      25A     -0.666427    26A     -0.642162    27A     -0.615555
      28A     -0.607412    29A     -0.591913    30A     -0.588631
      31A     -0.575629    32A     -0.522699    33A     -0.517185
      34A     -0.505212    35A     -0.502511    36A     -0.485727
      37A     -0.463962    38A     -0.371444    39A     -0.341139
      40A     -0.336522    41A     -0.291283

  @DF-RHF Final Energy:  -460.36988507823133

   => Energetics <=

    Nuclear Repulsion Energy =            599.4971813055901748
    One-Electron Energy =               -1810.5273148481226144
    Two-Electron Energy =                 750.6602484643010484
    Total Energy =                       -460.3698850782313912
  Basis Set: (AUG-CC-PVTZ AUX)
    Blend: AUG-CC-PVTZ-RI
    Molecular point group: c1

    Geometry (in Angstrom), charge = 0, multiplicity = 1:

       Center              X                  Y                   Z               Mass
    ------------   -----------------  -----------------  -----------------  -----------------
         C            0.729348214202    -0.005844464908    -0.002408407610    12.000000000000
         C           -0.626035885798     0.069298835092     0.028699892390    12.000000000000
         C            1.444146214202     1.112005535092    -0.460809407610    12.000000000000
         C           -1.463212785798     1.112004535092     0.455968592390    12.000000000000
         C            1.444142214202    -1.123707464908     0.455962592390    12.000000000000
         C           -1.463197785798    -1.123709464908    -0.460801407610    12.000000000000
         C            2.839187214202     1.112405535092    -0.458428407610    12.000000000000
         C           -2.858254785798     1.112403535092     0.453571592390    12.000000000000
         C            2.839183214202    -1.124108464908     0.453586592390    12.000000000000
         C           -2.858239785798    -1.124110464908    -0.458441407610    12.000000000000
         C            3.541212214202    -0.005859464908    -0.002437407610    12.000000000000
         C           -3.560273785798    -0.005862464908    -0.002425407610    12.000000000000
         H            0.899849214202     1.972803535092    -0.844104407610     1.007825032230
         H           -0.918920785798     1.972800535092     0.839275592390     1.007825032230
         H            0.899838214202    -1.984483464908     0.839298592390     1.007825032230
         H           -0.918888785798    -1.984485464908    -0.844131407610     1.007825032230
         H            3.379518214202     1.982960535092    -0.823388407610     1.007825032230
         H           -3.398589785798     1.982954535092     0.818535592390     1.007825032230
         H            3.379511214202    -1.994673464908     0.818527592390     1.007825032230
         H           -3.398563785798    -1.994676464908    -0.823387407610     1.007825032230
         H            4.628550214202    -0.005865464908    -0.002443407610     1.007825032230
         H           -4.647611785798    -0.005865464908    -0.002441407610     1.007825032230

  Basis Set: AUG-CC-PVTZ
    Blend: AUG-CC-PVTZ
  Basis Set: (AUG-CC-PVTZ AUX)
    Blend: AUG-CC-PVTZ-JKFIT
	 Reference Energy          =    -460.3698850782313343 [Eh]
	 Singles Energy            =      -0.0000000000000000 [Eh]
	 Same-Spin Energy          =      -0.5237084085312462 [Eh]
	 Opposite-Spin Energy      =      -1.6277337074386784 [Eh]
	 Correlation Energy        =      -2.1514421159699246 [Eh]
	 Total Energy              =    -462.5213271942012625 [Eh]

	 ================> DF-SCS-MP2 Energies <==================
	-----------------------------------------------------------
	 SCS Same-Spin Scale       =       0.3333333333333333 [-]
	 SCS Opposite-Spin Scale   =       1.2000000000000000 [-]
	 SCS Same-Spin Energy      =      -0.1745694695104154 [Eh]
	 SCS Opposite-Spin Energy  =      -1.9532804489264139 [Eh]
	 SCS Correlation Energy    =      -2.1278499184368291 [Eh]
	 SCS Total Energy          =    -462.4977349966681572 [Eh]
	-----------------------------------------------------------

  Dipole Moment: [D]
     X:     0.2090      Y:    -0.0126      Z:     0.0012     Total:     0.2094

*** Psi4 exiting successfully. Buy a developer a beer!
