                               Psi4 1.3.2 release

  ==> Input File <==

--------------------------------------------------------------------------
#psi4
#
memory 32 gb

molecule  {
0 1
  C        0.7388790     0.0000080     0.0000160
  C       -0.6165601     0.0735843     0.0348598
  C        1.4536770     1.1178580    -0.4583850
  C       -1.4536820     1.1178570     0.4583930
  C        1.4536730    -1.1178550     0.4583870
  C       -1.4536670    -1.1178570    -0.4583770
  C        2.8487180     1.1182580    -0.4560040
  C       -2.8487240     1.1182560     0.4559960
  C        2.8487140    -1.1182560     0.4560110
  C       -2.8487090    -1.1182580    -0.4560170
  C        3.5507430    -0.0000070    -0.0000130
  C       -3.5507430    -0.0000100    -0.0000010
  H        0.9093800     1.9786560    -0.8416800
  H       -0.9093900     1.9786530     0.8417000
  H        0.9093690    -1.9786310     0.8417230
  H       -0.9093580    -1.9786330    -0.8417070
  H        3.3890490     1.9888130    -0.8209640
  H       -3.3890590     1.9888070     0.8209600
  H        3.3890420    -1.9888210     0.8209520
  H       -3.3890330    -1.9888240    -0.8209630
  H        4.6380810    -0.0000130    -0.0000190
  H       -4.6380810    -0.0000130    -0.0000170
units angstrom
no_reorient  #important for SAPT in psi4, default
symmetry c1  #important for SAPT in psi4, default
}

set PROPERTIES_ORIGIN ["COM"]
properties('MP2/aug-cc-pvtz', properties = ['dipole'])
--------------------------------------------------------------------------

    Molecular point group: c1
  Charge       = 0
  Multiplicity = 1
  Basis Set: AUG-CC-PVTZ
    Blend: AUG-CC-PVTZ
  Basis Set: (AUG-CC-PVTZ AUX)
    Blend: AUG-CC-PVTZ-JKFIT

    Orbital Energies [Eh]
    ---------------------

    Doubly Occupied:

       1A    -11.252061     2A    -11.248341     3A    -11.241735
       4A    -11.241085     5A    -11.240543     6A    -11.239954
       7A    -11.239149     8A    -11.239044     9A    -11.238233
      10A    -11.238184    11A    -11.237515    12A    -11.236909
      13A     -1.174861    14A     -1.134543    15A     -1.067714
      16A     -1.019819    17A     -1.008717    18A     -0.974669
      19A     -0.867824    20A     -0.842448    21A     -0.808913
      22A     -0.784464    23A     -0.719333    24A     -0.681889
      25A     -0.666419    26A     -0.642157    27A     -0.615563
      28A     -0.607374    29A     -0.591931    30A     -0.588627
      31A     -0.575640    32A     -0.522703    33A     -0.517189
      34A     -0.505211    35A     -0.502488    36A     -0.485723
      37A     -0.464009    38A     -0.371420    39A     -0.341139
      40A     -0.336550    41A     -0.291274

  @DF-RHF Final Energy:  -460.36993367894109

   => Energetics <=

    Nuclear Repulsion Energy =            599.4962990589168612
    One-Electron Energy =               -1810.5257463904572433
    Two-Electron Energy =                 750.6595136525991165
    Total Energy =                       -460.3699336789411518
  Basis Set: (AUG-CC-PVTZ AUX)
    Blend: AUG-CC-PVTZ-RI
    Molecular point group: c1

    Geometry (in Angstrom), charge = 0, multiplicity = 1:

       Center              X                  Y                   Z               Mass
    ------------   -----------------  -----------------  -----------------  -----------------
         C            0.729352497739    -0.005722423023    -0.002699337705    12.000000000000
         C           -0.626086602261     0.067853876977     0.032144462295    12.000000000000
         C            1.444150497739     1.112127576977    -0.461100337705    12.000000000000
         C           -1.463208502261     1.112126576977     0.455677662295    12.000000000000
         C            1.444146497739    -1.123585423023     0.455671662295    12.000000000000
         C           -1.463193502261    -1.123587423023    -0.461092337705    12.000000000000
         C            2.839191497739     1.112527576977    -0.458719337705    12.000000000000
         C           -2.858250502261     1.112525576977     0.453280662295    12.000000000000
         C            2.839187497739    -1.123986423023     0.453295662295    12.000000000000
         C           -2.858235502261    -1.123988423023    -0.458732337705    12.000000000000
         C            3.541216497739    -0.005737423023    -0.002728337705    12.000000000000
         C           -3.560269502261    -0.005740423023    -0.002716337705    12.000000000000
         H            0.899853497739     1.972925576977    -0.844395337705     1.007825032230
         H           -0.918916502261     1.972922576977     0.838984662295     1.007825032230
         H            0.899842497739    -1.984361423023     0.839007662295     1.007825032230
         H           -0.918884502261    -1.984363423023    -0.844422337705     1.007825032230
         H            3.379522497739     1.983082576977    -0.823679337705     1.007825032230
         H           -3.398585502261     1.983076576977     0.818244662295     1.007825032230
         H            3.379515497739    -1.994551423023     0.818236662295     1.007825032230
         H           -3.398559502261    -1.994554423023    -0.823678337705     1.007825032230
         H            4.628554497739    -0.005743423023    -0.002734337705     1.007825032230
         H           -4.647607502261    -0.005743423023    -0.002732337705     1.007825032230

  Basis Set: AUG-CC-PVTZ
    Blend: AUG-CC-PVTZ
  Basis Set: (AUG-CC-PVTZ AUX)
    Blend: AUG-CC-PVTZ-JKFIT
	 Reference Energy          =    -460.3699336789410950 [Eh]
	 Singles Energy            =      -0.0000000000000000 [Eh]
	 Same-Spin Energy          =      -0.5237052711030600 [Eh]
	 Opposite-Spin Energy      =      -1.6277284370434568 [Eh]
	 Correlation Energy        =      -2.1514337081465169 [Eh]
	 Total Energy              =    -462.5213673870875937 [Eh]

	 ================> DF-SCS-MP2 Energies <==================
	-----------------------------------------------------------
	 SCS Same-Spin Scale       =       0.3333333333333333 [-]
	 SCS Opposite-Spin Scale   =       1.2000000000000000 [-]
	 SCS Same-Spin Energy      =      -0.1745684237010200 [Eh]
	 SCS Opposite-Spin Energy  =      -1.9532741244521481 [Eh]
	 SCS Correlation Energy    =      -2.1278425481531680 [Eh]
	 SCS Total Energy          =    -462.4977762270942776 [Eh]
	-----------------------------------------------------------

  Dipole Moment: [D]
     X:     0.2088      Y:    -0.0124      Z:     0.0005     Total:     0.2092

*** Psi4 exiting successfully. Buy a developer a beer!
