                               Psi4 1.3.2 release

  ==> Input File <==

--------------------------------------------------------------------------
#psi4
#
memory 32 gb

molecule  {
0 1
  C        0.7388790     0.0000080     0.0000160
  C       -0.7600644    -0.0110850    -0.0053347
  C        1.4536770     1.1178580    -0.4583850
  C       -1.4536820     1.1178570     0.4583930
  C        1.4536730    -1.1178550     0.4583870
  C       -1.4536670    -1.1178570    -0.4583770
  C        2.8487180     1.1182580    -0.4560040
  C       -2.8487240     1.1182560     0.4559960
  C        2.8487140    -1.1182560     0.4560110
  C       -2.8487090    -1.1182580    -0.4560170
  C        3.5507430    -0.0000070    -0.0000130
  C       -3.5507430    -0.0000100    -0.0000010
  H        0.9093800     1.9786560    -0.8416800
  H       -0.9093900     1.9786530     0.8417000
  H        0.9093690    -1.9786310     0.8417230
  H       -0.9093580    -1.9786330    -0.8417070
  H        3.3890490     1.9888130    -0.8209640
  H       -3.3890590     1.9888070     0.8209600
  H        3.3890420    -1.9888210     0.8209520
  H       -3.3890330    -1.9888240    -0.8209630
  H        4.6380810    -0.0000130    -0.0000190
  H       -4.6380810    -0.0000130    -0.0000170
units angstrom
no_reorient  #important for SAPT in psi4, default
symmetry c1  #important for SAPT in psi4, default
}

set PROPERTIES_ORIGIN ["COM"]
properties('MP2/aug-cc-pvtz', properties = ['dipole'])
--------------------------------------------------------------------------

    Molecular point group: c1
  Charge       = 0
  Multiplicity = 1
  Basis Set: AUG-CC-PVTZ
    Blend: AUG-CC-PVTZ
  Basis Set: (AUG-CC-PVTZ AUX)
    Blend: AUG-CC-PVTZ-JKFIT

    Orbital Energies [Eh]
    ---------------------

    Doubly Occupied:

       1A    -11.247952     2A    -11.246167     3A    -11.239149
       4A    -11.238894     5A    -11.238776     6A    -11.238485
       7A    -11.236741     8A    -11.236483     9A    -11.236274
      10A    -11.236225    11A    -11.235903    12A    -11.234526
      13A     -1.169578    14A     -1.141252    15A     -1.052029
      16A     -1.019916    17A     -1.011699    18A     -0.983028
      19A     -0.849630    20A     -0.841832    21A     -0.812611
      22A     -0.789817    23A     -0.717553    24A     -0.681324
      25A     -0.652398    26A     -0.638927    27A     -0.616695
      28A     -0.609826    29A     -0.591635    30A     -0.583908
      31A     -0.582877    32A     -0.521530    33A     -0.515480
      34A     -0.504638    35A     -0.491926    36A     -0.486704
      37A     -0.480208    38A     -0.365630    39A     -0.339654
      40A     -0.337655    41A     -0.305618

  @DF-RHF Final Energy:  -460.40031038953180

   => Energetics <=

    Nuclear Repulsion Energy =            599.3563072953712663
    One-Electron Energy =               -1810.3909234664663472
    Two-Electron Energy =                 750.6343057815631710
    Total Energy =                       -460.4003103895317963
  Basis Set: (AUG-CC-PVTZ AUX)
    Blend: AUG-CC-PVTZ-RI
    Molecular point group: c1

    Geometry (in Angstrom), charge = 0, multiplicity = 1:

       Center              X                  Y                   Z               Mass
    ------------   -----------------  -----------------  -----------------  -----------------
         C            0.740528972008     0.000871834102     0.000431110616    12.000000000000
         C           -0.758414427992    -0.010221165898    -0.004919589384    12.000000000000
         C            1.455326972008     1.118721834102    -0.457969889384    12.000000000000
         C           -1.452032027992     1.118720834102     0.458808110616    12.000000000000
         C            1.455322972008    -1.116991165898     0.458802110616    12.000000000000
         C           -1.452017027992    -1.116993165898    -0.457961889384    12.000000000000
         C            2.850367972008     1.119121834102    -0.455588889384    12.000000000000
         C           -2.847074027992     1.119119834102     0.456411110616    12.000000000000
         C            2.850363972008    -1.117392165898     0.456426110616    12.000000000000
         C           -2.847059027992    -1.117394165898    -0.455601889384    12.000000000000
         C            3.552392972008     0.000856834102     0.000402110616    12.000000000000
         C           -3.549093027992     0.000853834102     0.000414110616    12.000000000000
         H            0.911029972008     1.979519834102    -0.841264889384     1.007825032230
         H           -0.907740027992     1.979516834102     0.842115110616     1.007825032230
         H            0.911018972008    -1.977767165898     0.842138110616     1.007825032230
         H           -0.907708027992    -1.977769165898    -0.841291889384     1.007825032230
         H            3.390698972008     1.989676834102    -0.820548889384     1.007825032230
         H           -3.387409027992     1.989670834102     0.821375110616     1.007825032230
         H            3.390691972008    -1.987957165898     0.821367110616     1.007825032230
         H           -3.387383027992    -1.987960165898    -0.820547889384     1.007825032230
         H            4.639730972008     0.000850834102     0.000396110616     1.007825032230
         H           -4.636431027992     0.000850834102     0.000398110616     1.007825032230

  Basis Set: AUG-CC-PVTZ
    Blend: AUG-CC-PVTZ
  Basis Set: (AUG-CC-PVTZ AUX)
    Blend: AUG-CC-PVTZ-JKFIT
	 Reference Energy          =    -460.4003103895317963 [Eh]
	 Singles Energy            =      -0.0000000000000000 [Eh]
	 Same-Spin Energy          =      -0.5210330001049850 [Eh]
	 Opposite-Spin Energy      =      -1.6228371512109039 [Eh]
	 Correlation Energy        =      -2.1438701513158889 [Eh]
	 Total Energy              =    -462.5441805408476625 [Eh]

	 ================> DF-SCS-MP2 Energies <==================
	-----------------------------------------------------------
	 SCS Same-Spin Scale       =       0.3333333333333333 [-]
	 SCS Opposite-Spin Scale   =       1.2000000000000000 [-]
	 SCS Same-Spin Energy      =      -0.1736776667016617 [Eh]
	 SCS Opposite-Spin Energy  =      -1.9474045814530845 [Eh]
	 SCS Correlation Energy    =      -2.1210822481547460 [Eh]
	 SCS Total Energy          =    -462.5213926376865174 [Eh]
	-----------------------------------------------------------

  Dipole Moment: [D]
     X:    -0.0337      Y:     0.0020      Z:    -0.0004     Total:     0.0338

*** Psi4 exiting successfully. Buy a developer a beer!
