                               Psi4 1.4a3.dev225

  ==> Input File <==

--------------------------------------------------------------------------
#psi4
#
memory 32 gb

molecule  {
0 1
  C        0.7388790     0.0000080     0.0000160
  C       -0.7888790     0.0000070    -0.0000036
  C        1.4536770     1.1178580    -0.4583850
  C       -1.4536820     1.1178570     0.4583930
  C        1.4536730    -1.1178550     0.4583870
  C       -1.4536670    -1.1178570    -0.4583770
  C        2.8487180     1.1182580    -0.4560040
  C       -2.8487240     1.1182560     0.4559960
  C        2.8487140    -1.1182560     0.4560110
  C       -2.8487090    -1.1182580    -0.4560170
  C        3.5507430    -0.0000070    -0.0000130
  C       -3.5507430    -0.0000100    -0.0000010
  H        0.9093800     1.9786560    -0.8416800
  H       -0.9093900     1.9786530     0.8417000
  H        0.9093690    -1.9786310     0.8417230
  H       -0.9093580    -1.9786330    -0.8417070
  H        3.3890490     1.9888130    -0.8209640
  H       -3.3890590     1.9888070     0.8209600
  H        3.3890420    -1.9888210     0.8209520
  H       -3.3890330    -1.9888240    -0.8209630
  H        4.6380810    -0.0000130    -0.0000190
  H       -4.6380810    -0.0000130    -0.0000170
units angstrom
no_reorient  #important for SAPT in psi4, default
symmetry c1  #important for SAPT in psi4, default
}

set PROPERTIES_ORIGIN ["COM"]
properties('MP2/aug-cc-pvtz', properties = ['dipole'])
--------------------------------------------------------------------------

    Molecular point group: c1
  Charge       = 0
  Multiplicity = 1
  Basis Set: AUG-CC-PVTZ
    Blend: AUG-CC-PVTZ
  Basis Set: (AUG-CC-PVTZ AUX)
    Blend: AUG-CC-PVTZ-JKFIT

    Orbital Energies [Eh]
    ---------------------

    Doubly Occupied:

       1A    -11.248739     2A    -11.245153     3A    -11.239292
       4A    -11.239067     5A    -11.238307     6A    -11.238063
       7A    -11.236098     8A    -11.235807     9A    -11.235702
      10A    -11.235349    11A    -11.234273    12A    -11.234184
      13A     -1.170076    14A     -1.142175    15A     -1.049544
      16A     -1.020938    17A     -1.011921    18A     -0.984224
      19A     -0.846402    20A     -0.842237    21A     -0.813384
      22A     -0.790394    23A     -0.717529    24A     -0.681231
      25A     -0.650007    26A     -0.638821    27A     -0.616853
      28A     -0.611068    29A     -0.592776    30A     -0.583750
      31A     -0.581397    32A     -0.521340    33A     -0.516095
      34A     -0.505689    35A     -0.493134    36A     -0.487930
      37A     -0.474712    38A     -0.364687    39A     -0.340043
      40A     -0.337405    41A     -0.307905

  @DF-RHF Final Energy:  -460.39885051780885

   => Energetics <=

    Nuclear Repulsion Energy =            599.3761516887383323
    One-Electron Energy =               -1810.4426019116499447
    Two-Electron Energy =                 750.6675997051027025
    Total Energy =                       -460.3988505178087962
  Basis Set: (AUG-CC-PVTZ AUX)
    Blend: AUG-CC-PVTZ-RI
    Molecular point group: c1

    Geometry (in Angstrom), charge = 0, multiplicity = 1:

       Center              X                  Y                   Z               Mass
    ------------   -----------------  -----------------  -----------------  -----------------
         C            0.742773125217     0.000007961363     0.000015911197    12.000000000000
         C           -0.784984874783     0.000006961363    -0.000003688803    12.000000000000
         C            1.457571125217     1.117857961363    -0.458385088803    12.000000000000
         C           -1.449787874783     1.117856961363     0.458392911197    12.000000000000
         C            1.457567125217    -1.117855038637     0.458386911197    12.000000000000
         C           -1.449772874783    -1.117857038637    -0.458377088803    12.000000000000
         C            2.852612125217     1.118257961363    -0.456004088803    12.000000000000
         C           -2.844829874783     1.118255961363     0.455995911197    12.000000000000
         C            2.852608125217    -1.118256038637     0.456010911197    12.000000000000
         C           -2.844814874783    -1.118258038637    -0.456017088803    12.000000000000
         C            3.554637125217    -0.000007038637    -0.000013088803    12.000000000000
         C           -3.546848874783    -0.000010038637    -0.000001088803    12.000000000000
         H            0.913274125217     1.978655961363    -0.841680088803     1.007825032230
         H           -0.905495874783     1.978652961363     0.841699911197     1.007825032230
         H            0.913263125217    -1.978631038637     0.841722911197     1.007825032230
         H           -0.905463874783    -1.978633038637    -0.841707088803     1.007825032230
         H            3.392943125217     1.988812961363    -0.820964088803     1.007825032230
         H           -3.385164874783     1.988806961363     0.820959911197     1.007825032230
         H            3.392936125217    -1.988821038637     0.820951911197     1.007825032230
         H           -3.385138874783    -1.988824038637    -0.820963088803     1.007825032230
         H            4.641975125217    -0.000013038637    -0.000019088803     1.007825032230
         H           -4.634186874783    -0.000013038637    -0.000017088803     1.007825032230

  Basis Set: AUG-CC-PVTZ
    Blend: AUG-CC-PVTZ
  Basis Set: (AUG-CC-PVTZ AUX)
    Blend: AUG-CC-PVTZ-JKFIT
	 Reference Energy          =    -460.3988505178088531 [Eh]
	 Singles Energy            =      -0.0000000000000000 [Eh]
	 Same-Spin Energy          =      -0.5207870028341539 [Eh]
	 Opposite-Spin Energy      =      -1.6224414120803101 [Eh]
	 Correlation Energy        =      -2.1432284149144643 [Eh]
	 Total Energy              =    -462.5420789327233138 [Eh]

	 ================> DF-SCS-MP2 Energies <==================
	-----------------------------------------------------------
	 SCS Same-Spin Scale       =       0.3333333333333333 [-]
	 SCS Opposite-Spin Scale   =       1.2000000000000000 [-]
	 SCS Same-Spin Energy      =      -0.1735956676113846 [Eh]
	 SCS Opposite-Spin Energy  =      -1.9469296944963721 [Eh]
	 SCS Correlation Energy    =      -2.1205253621077569 [Eh]
	 SCS Total Energy          =    -462.5193758799165948 [Eh]
	-----------------------------------------------------------

  Dipole Moment: [D]
     X:    -0.0801      Y:     0.0000      Z:    -0.0000     Total:     0.0801

*** Psi4 exiting successfully. Buy a developer a beer!
