                               Psi4 1.3.2 release

  ==> Input File <==

--------------------------------------------------------------------------
#psi4
#
memory 32 gb

molecule  {
0 1
  C        0.7386541    -0.0238540    -0.0097693
  C       -0.7388790     0.0000070    -0.0000030
  C        1.4536770     1.1178580    -0.4583850
  C       -1.4536820     1.1178570     0.4583930
  C        1.4536730    -1.1178550     0.4583870
  C       -1.4536670    -1.1178570    -0.4583770
  C        2.8487180     1.1182580    -0.4560040
  C       -2.8487240     1.1182560     0.4559960
  C        2.8487140    -1.1182560     0.4560110
  C       -2.8487090    -1.1182580    -0.4560170
  C        3.5507430    -0.0000070    -0.0000130
  C       -3.5507430    -0.0000100    -0.0000010
  H        0.9093800     1.9786560    -0.8416800
  H       -0.9093900     1.9786530     0.8417000
  H        0.9093690    -1.9786310     0.8417230
  H       -0.9093580    -1.9786330    -0.8417070
  H        3.3890490     1.9888130    -0.8209640
  H       -3.3890590     1.9888070     0.8209600
  H        3.3890420    -1.9888210     0.8209520
  H       -3.3890330    -1.9888240    -0.8209630
  H        4.6380810    -0.0000130    -0.0000190
  H       -4.6380810    -0.0000130    -0.0000170
units angstrom
no_reorient  #important for SAPT in psi4, default
symmetry c1  #important for SAPT in psi4, default
}

set PROPERTIES_ORIGIN ["COM"]
properties('MP2/aug-cc-pvtz', properties = ['dipole'])
--------------------------------------------------------------------------

    Molecular point group: c1
  Charge       = 0
  Multiplicity = 1
  Basis Set: AUG-CC-PVTZ
    Blend: AUG-CC-PVTZ
  Basis Set: (AUG-CC-PVTZ AUX)
    Blend: AUG-CC-PVTZ-JKFIT

    Orbital Energies [Eh]
    ---------------------

    Doubly Occupied:

       1A    -11.247500     2A    -11.246741     3A    -11.239190
       4A    -11.239189     5A    -11.238936     6A    -11.238720
       7A    -11.237929     8A    -11.237139     9A    -11.236548
      10A    -11.236494    11A    -11.236184    12A    -11.235242
      13A     -1.169557    14A     -1.140407    15A     -1.054016
      16A     -1.019423    17A     -1.011376    18A     -0.982016
      19A     -0.852153    20A     -0.841607    21A     -0.811969
      22A     -0.789323    23A     -0.717633    24A     -0.681386
      25A     -0.654291    26A     -0.639154    27A     -0.616539
      28A     -0.609085    29A     -0.590896    30A     -0.584733
      31A     -0.582902    32A     -0.521670    33A     -0.515245
      34A     -0.504119    35A     -0.490945    36A     -0.487062
      37A     -0.482075    38A     -0.366418    39A     -0.339534
      40A     -0.337656    41A     -0.303792

  @DF-RHF Final Energy:  -460.39983387998677

   => Energetics <=

    Nuclear Repulsion Energy =            599.3470976190428701
    One-Electron Energy =               -1810.3602741313206934
    Two-Electron Energy =                 750.6133426322910509
    Total Energy =                       -460.3998338799867724
  Basis Set: (AUG-CC-PVTZ AUX)
    Blend: AUG-CC-PVTZ-RI
    Molecular point group: c1

    Geometry (in Angstrom), charge = 0, multiplicity = 1:

       Center              X                  Y                   Z               Mass
    ------------   -----------------  -----------------  -----------------  -----------------
         C            0.738671615775    -0.021995606318    -0.009007331863    12.000000000000
         C           -0.738861484225     0.001865393682     0.000758968137    12.000000000000
         C            1.453694515775     1.119716393682    -0.457623031863    12.000000000000
         C           -1.453664484225     1.119715393682     0.459154968137    12.000000000000
         C            1.453690515775    -1.115996606318     0.459148968137    12.000000000000
         C           -1.453649484225    -1.115998606318    -0.457615031863    12.000000000000
         C            2.848735515775     1.120116393682    -0.455242031863    12.000000000000
         C           -2.848706484225     1.120114393682     0.456757968137    12.000000000000
         C            2.848731515775    -1.116397606318     0.456772968137    12.000000000000
         C           -2.848691484225    -1.116399606318    -0.455255031863    12.000000000000
         C            3.550760515775     0.001851393682     0.000748968137    12.000000000000
         C           -3.550725484225     0.001848393682     0.000760968137    12.000000000000
         H            0.909397515775     1.980514393682    -0.840918031863     1.007825032230
         H           -0.909372484225     1.980511393682     0.842461968137     1.007825032230
         H            0.909386515775    -1.976772606318     0.842484968137     1.007825032230
         H           -0.909340484225    -1.976774606318    -0.840945031863     1.007825032230
         H            3.389066515775     1.990671393682    -0.820202031863     1.007825032230
         H           -3.389041484225     1.990665393682     0.821721968137     1.007825032230
         H            3.389059515775    -1.986962606318     0.821713968137     1.007825032230
         H           -3.389015484225    -1.986965606318    -0.820201031863     1.007825032230
         H            4.638098515775     0.001845393682     0.000742968137     1.007825032230
         H           -4.638063484225     0.001845393682     0.000744968137     1.007825032230

  Basis Set: AUG-CC-PVTZ
    Blend: AUG-CC-PVTZ
  Basis Set: (AUG-CC-PVTZ AUX)
    Blend: AUG-CC-PVTZ-JKFIT
	 Reference Energy          =    -460.3998338799867724 [Eh]
	 Singles Energy            =      -0.0000000000000000 [Eh]
	 Same-Spin Energy          =      -0.5212875896647430 [Eh]
	 Opposite-Spin Energy      =      -1.6232689619860881 [Eh]
	 Correlation Energy        =      -2.1445565516508309 [Eh]
	 Total Energy              =    -462.5443904316376234 [Eh]

	 ================> DF-SCS-MP2 Energies <==================
	-----------------------------------------------------------
	 SCS Same-Spin Scale       =       0.3333333333333333 [-]
	 SCS Opposite-Spin Scale   =       1.2000000000000000 [-]
	 SCS Same-Spin Energy      =      -0.1737625298882476 [Eh]
	 SCS Opposite-Spin Energy  =      -1.9479227543833055 [Eh]
	 SCS Correlation Energy    =      -2.1216852842715532 [Eh]
	 SCS Total Energy          =    -462.5215191642583363 [Eh]
	-----------------------------------------------------------

  Dipole Moment: [D]
     X:     0.0003      Y:     0.0046      Z:     0.0040     Total:     0.0061

*** Psi4 exiting successfully. Buy a developer a beer!
