                               Psi4 1.3.2 release

  ==> Input File <==

--------------------------------------------------------------------------
#psi4
#
memory 32 gb

molecule  {
0 1
  C        0.7388790     0.0000080     0.0000160
  C       -0.6388790     0.0000071    -0.0000017
  C        1.4536770     1.1178580    -0.4583850
  C       -1.4536820     1.1178570     0.4583930
  C        1.4536730    -1.1178550     0.4583870
  C       -1.4536670    -1.1178570    -0.4583770
  C        2.8487180     1.1182580    -0.4560040
  C       -2.8487240     1.1182560     0.4559960
  C        2.8487140    -1.1182560     0.4560110
  C       -2.8487090    -1.1182580    -0.4560170
  C        3.5507430    -0.0000070    -0.0000130
  C       -3.5507430    -0.0000100    -0.0000010
  H        0.9093800     1.9786560    -0.8416800
  H       -0.9093900     1.9786530     0.8417000
  H        0.9093690    -1.9786310     0.8417230
  H       -0.9093580    -1.9786330    -0.8417070
  H        3.3890490     1.9888130    -0.8209640
  H       -3.3890590     1.9888070     0.8209600
  H        3.3890420    -1.9888210     0.8209520
  H       -3.3890330    -1.9888240    -0.8209630
  H        4.6380810    -0.0000130    -0.0000190
  H       -4.6380810    -0.0000130    -0.0000170
units angstrom
no_reorient  #important for SAPT in psi4, default
symmetry c1  #important for SAPT in psi4, default
}

set PROPERTIES_ORIGIN ["COM"]
properties('MP2/aug-cc-pvtz', properties = ['dipole'])
--------------------------------------------------------------------------

    Molecular point group: c1
  Charge       = 0
  Multiplicity = 1
  Basis Set: AUG-CC-PVTZ
    Blend: AUG-CC-PVTZ
  Basis Set: (AUG-CC-PVTZ AUX)
    Blend: AUG-CC-PVTZ-JKFIT

    Orbital Energies [Eh]
    ---------------------

    Doubly Occupied:

       1A    -11.251481     2A    -11.242617     3A    -11.242565
       4A    -11.242056     5A    -11.240644     6A    -11.240358
       7A    -11.238887     8A    -11.238786     9A    -11.238728
      10A    -11.238297    11A    -11.238086    12A    -11.236977
      13A     -1.173153    14A     -1.135368    15A     -1.064838
      16A     -1.019410    17A     -1.008502    18A     -0.976266
      19A     -0.864978    20A     -0.841998    21A     -0.807853
      22A     -0.786888    23A     -0.718873    24A     -0.681499
      25A     -0.663771    26A     -0.641637    27A     -0.615586
      28A     -0.606874    29A     -0.589555    30A     -0.589138
      31A     -0.579156    32A     -0.522271    33A     -0.516223
      34A     -0.503950    35A     -0.499373    36A     -0.486557
      37A     -0.472501    38A     -0.369936    39A     -0.340705
      40A     -0.336639    41A     -0.293676

  @DF-RHF Final Energy:  -460.38317912419689

   => Energetics <=

    Nuclear Repulsion Energy =            599.4409886076333578
    One-Electron Energy =               -1810.4550198499646285
    Two-Electron Energy =                 750.6308521181344986
    Total Energy =                       -460.3831791241968858
  Basis Set: (AUG-CC-PVTZ AUX)
    Blend: AUG-CC-PVTZ-RI
    Molecular point group: c1

    Geometry (in Angstrom), charge = 0, multiplicity = 1:

       Center              X                  Y                   Z               Mass
    ------------   -----------------  -----------------  -----------------  -----------------
         C            0.731090749566     0.000007953575     0.000015763220    12.000000000000
         C           -0.646667250434     0.000007053575    -0.000001936780    12.000000000000
         C            1.445888749566     1.117857953575    -0.458385236780    12.000000000000
         C           -1.461470250434     1.117856953575     0.458392763220    12.000000000000
         C            1.445884749566    -1.117855046425     0.458386763220    12.000000000000
         C           -1.461455250434    -1.117857046425    -0.458377236780    12.000000000000
         C            2.840929749566     1.118257953575    -0.456004236780    12.000000000000
         C           -2.856512250434     1.118255953575     0.455995763220    12.000000000000
         C            2.840925749566    -1.118256046425     0.456010763220    12.000000000000
         C           -2.856497250434    -1.118258046425    -0.456017236780    12.000000000000
         C            3.542954749566    -0.000007046425    -0.000013236780    12.000000000000
         C           -3.558531250434    -0.000010046425    -0.000001236780    12.000000000000
         H            0.901591749566     1.978655953575    -0.841680236780     1.007825032230
         H           -0.917178250434     1.978652953575     0.841699763220     1.007825032230
         H            0.901580749566    -1.978631046425     0.841722763220     1.007825032230
         H           -0.917146250434    -1.978633046425    -0.841707236780     1.007825032230
         H            3.381260749566     1.988812953575    -0.820964236780     1.007825032230
         H           -3.396847250434     1.988806953575     0.820959763220     1.007825032230
         H            3.381253749566    -1.988821046425     0.820951763220     1.007825032230
         H           -3.396821250434    -1.988824046425    -0.820963236780     1.007825032230
         H            4.630292749566    -0.000013046425    -0.000019236780     1.007825032230
         H           -4.645869250434    -0.000013046425    -0.000017236780     1.007825032230

  Basis Set: AUG-CC-PVTZ
    Blend: AUG-CC-PVTZ
  Basis Set: (AUG-CC-PVTZ AUX)
    Blend: AUG-CC-PVTZ-JKFIT
	 Reference Energy          =    -460.3831791241968858 [Eh]
	 Singles Energy            =      -0.0000000000000000 [Eh]
	 Same-Spin Energy          =      -0.5232568276849424 [Eh]
	 Opposite-Spin Energy      =      -1.6264536399200162 [Eh]
	 Correlation Energy        =      -2.1497104676049585 [Eh]
	 Total Energy              =    -462.5328895918018475 [Eh]

	 ================> DF-SCS-MP2 Energies <==================
	-----------------------------------------------------------
	 SCS Same-Spin Scale       =       0.3333333333333333 [-]
	 SCS Opposite-Spin Scale   =       1.2000000000000000 [-]
	 SCS Same-Spin Energy      =      -0.1744189425616475 [Eh]
	 SCS Opposite-Spin Energy  =      -1.9517443679040194 [Eh]
	 SCS Correlation Energy    =      -2.1261633104656670 [Eh]
	 SCS Total Energy          =    -462.5093424346625284 [Eh]
	-----------------------------------------------------------

  Dipole Moment: [D]
     X:     0.1655      Y:     0.0000      Z:    -0.0000     Total:     0.1655

*** Psi4 exiting successfully. Buy a developer a beer!
