                               Psi4 1.4a3.dev225

  ==> Input File <==

--------------------------------------------------------------------------
#psi4
#
memory 32 gb

molecule  {
0 1
  C        0.7388790     0.0000080     0.0000160
  C       -0.6888790     0.0000070    -0.0000024
  C        1.4536770     1.1178580    -0.4583850
  C       -1.4536820     1.1178570     0.4583930
  C        1.4536730    -1.1178550     0.4583870
  C       -1.4536670    -1.1178570    -0.4583770
  C        2.8487180     1.1182580    -0.4560040
  C       -2.8487240     1.1182560     0.4559960
  C        2.8487140    -1.1182560     0.4560110
  C       -2.8487090    -1.1182580    -0.4560170
  C        3.5507430    -0.0000070    -0.0000130
  C       -3.5507430    -0.0000100    -0.0000010
  H        0.9093800     1.9786560    -0.8416800
  H       -0.9093900     1.9786530     0.8417000
  H        0.9093690    -1.9786310     0.8417230
  H       -0.9093580    -1.9786330    -0.8417070
  H        3.3890490     1.9888130    -0.8209640
  H       -3.3890590     1.9888070     0.8209600
  H        3.3890420    -1.9888210     0.8209520
  H       -3.3890330    -1.9888240    -0.8209630
  H        4.6380810    -0.0000130    -0.0000190
  H       -4.6380810    -0.0000130    -0.0000170
units angstrom
no_reorient  #important for SAPT in psi4, default
symmetry c1  #important for SAPT in psi4, default
}

set PROPERTIES_ORIGIN ["COM"]
properties('MP2/aug-cc-pvtz', properties = ['dipole'])
--------------------------------------------------------------------------

    Molecular point group: c1
  Charge       = 0
  Multiplicity = 1
  Basis Set: AUG-CC-PVTZ
    Blend: AUG-CC-PVTZ
  Basis Set: (AUG-CC-PVTZ AUX)
    Blend: AUG-CC-PVTZ-JKFIT

    Orbital Energies [Eh]
    ---------------------

    Doubly Occupied:

       1A    -11.249306     2A    -11.244810     3A    -11.239918
       4A    -11.239888     5A    -11.239855     6A    -11.239566
       7A    -11.238567     8A    -11.238113     9A    -11.237860
      10A    -11.237723    11A    -11.237310    12A    -11.236762
      13A     -1.170606    14A     -1.138026    15A     -1.059052
      16A     -1.019056    17A     -1.010083    18A     -0.979404
      19A     -0.858333    20A     -0.841585    21A     -0.810021
      22A     -0.788263    23A     -0.718095    24A     -0.681455
      25A     -0.658921    26A     -0.640171    27A     -0.616078
      28A     -0.607713    29A     -0.589670    30A     -0.587111
      31A     -0.581754    32A     -0.521966    33A     -0.515342
      34A     -0.503615    35A     -0.492676    36A     -0.488781
      37A     -0.479485    38A     -0.368085    39A     -0.339941
      40A     -0.337265    41A     -0.299066

  @DF-RHF Final Energy:  -460.39538257996543

   => Energetics <=

    Nuclear Repulsion Energy =            599.3692315289262069
    One-Electron Energy =               -1810.3666334453007494
    Two-Electron Energy =                 750.6020193364091710
    Total Energy =                       -460.3953825799654851
  Basis Set: (AUG-CC-PVTZ AUX)
    Blend: AUG-CC-PVTZ-RI
    Molecular point group: c1

    Geometry (in Angstrom), charge = 0, multiplicity = 1:

       Center              X                  Y                   Z               Mass
    ------------   -----------------  -----------------  -----------------  -----------------
         C            0.734984874783     0.000007961363     0.000015817738    12.000000000000
         C           -0.692773125217     0.000006961363    -0.000002582262    12.000000000000
         C            1.449782874783     1.117857961363    -0.458385182262    12.000000000000
         C           -1.457576125217     1.117856961363     0.458392817738    12.000000000000
         C            1.449778874783    -1.117855038637     0.458386817738    12.000000000000
         C           -1.457561125217    -1.117857038637    -0.458377182262    12.000000000000
         C            2.844823874783     1.118257961363    -0.456004182262    12.000000000000
         C           -2.852618125217     1.118255961363     0.455995817738    12.000000000000
         C            2.844819874783    -1.118256038637     0.456010817738    12.000000000000
         C           -2.852603125217    -1.118258038637    -0.456017182262    12.000000000000
         C            3.546848874783    -0.000007038637    -0.000013182262    12.000000000000
         C           -3.554637125217    -0.000010038637    -0.000001182262    12.000000000000
         H            0.905485874783     1.978655961363    -0.841680182262     1.007825032230
         H           -0.913284125217     1.978652961363     0.841699817738     1.007825032230
         H            0.905474874783    -1.978631038637     0.841722817738     1.007825032230
         H           -0.913252125217    -1.978633038637    -0.841707182262     1.007825032230
         H            3.385154874783     1.988812961363    -0.820964182262     1.007825032230
         H           -3.392953125217     1.988806961363     0.820959817738     1.007825032230
         H            3.385147874783    -1.988821038637     0.820951817738     1.007825032230
         H           -3.392927125217    -1.988824038637    -0.820963182262     1.007825032230
         H            4.634186874783    -0.000013038637    -0.000019182262     1.007825032230
         H           -4.641975125217    -0.000013038637    -0.000017182262     1.007825032230

  Basis Set: AUG-CC-PVTZ
    Blend: AUG-CC-PVTZ
  Basis Set: (AUG-CC-PVTZ AUX)
    Blend: AUG-CC-PVTZ-JKFIT
	 Reference Energy          =    -460.3953825799654282 [Eh]
	 Singles Energy            =      -0.0000000000000000 [Eh]
	 Same-Spin Energy          =      -0.5221095782621490 [Eh]
	 Opposite-Spin Energy      =      -1.6245682299097961 [Eh]
	 Correlation Energy        =      -2.1466778081719449 [Eh]
	 Total Energy              =    -462.5420603881373722 [Eh]

	 ================> DF-SCS-MP2 Energies <==================
	-----------------------------------------------------------
	 SCS Same-Spin Scale       =       0.3333333333333333 [-]
	 SCS Opposite-Spin Scale   =       1.2000000000000000 [-]
	 SCS Same-Spin Energy      =      -0.1740365260873830 [Eh]
	 SCS Opposite-Spin Energy  =      -1.9494818758917551 [Eh]
	 SCS Correlation Energy    =      -2.1235184019791382 [Eh]
	 SCS Total Energy          =    -462.5189009819445687 [Eh]
	-----------------------------------------------------------

  Dipole Moment: [D]
     X:     0.0807      Y:     0.0000      Z:    -0.0000     Total:     0.0807

*** Psi4 exiting successfully. Buy a developer a beer!
