                               Psi4 1.3.2 release

  ==> Input File <==

--------------------------------------------------------------------------
#psi4
#
memory 32 gb

molecule  {
0 1
  C        0.7388790     0.0000080     0.0000160
  C       -0.5388790     0.0000071    -0.0000004
  C        1.4536770     1.1178580    -0.4583850
  C       -1.4536820     1.1178570     0.4583930
  C        1.4536730    -1.1178550     0.4583870
  C       -1.4536670    -1.1178570    -0.4583770
  C        2.8487180     1.1182580    -0.4560040
  C       -2.8487240     1.1182560     0.4559960
  C        2.8487140    -1.1182560     0.4560110
  C       -2.8487090    -1.1182580    -0.4560170
  C        3.5507430    -0.0000070    -0.0000130
  C       -3.5507430    -0.0000100    -0.0000010
  H        0.9093800     1.9786560    -0.8416800
  H       -0.9093900     1.9786530     0.8417000
  H        0.9093690    -1.9786310     0.8417230
  H       -0.9093580    -1.9786330    -0.8417070
  H        3.3890490     1.9888130    -0.8209640
  H       -3.3890590     1.9888070     0.8209600
  H        3.3890420    -1.9888210     0.8209520
  H       -3.3890330    -1.9888240    -0.8209630
  H        4.6380810    -0.0000130    -0.0000190
  H       -4.6380810    -0.0000130    -0.0000170
units angstrom
no_reorient  #important for SAPT in psi4, default
symmetry c1  #important for SAPT in psi4, default
}

set PROPERTIES_ORIGIN ["COM"]
properties('MP2/aug-cc-pvtz', properties = ['dipole'])
--------------------------------------------------------------------------

    Molecular point group: c1
  Charge       = 0
  Multiplicity = 1
  Basis Set: AUG-CC-PVTZ
    Blend: AUG-CC-PVTZ
  Basis Set: (AUG-CC-PVTZ AUX)
    Blend: AUG-CC-PVTZ-JKFIT

    Orbital Energies [Eh]
    ---------------------

    Doubly Occupied:

       1A    -11.255360     2A    -11.248121     3A    -11.248076
       4A    -11.242716     5A    -11.242397     6A    -11.241759
       7A    -11.241151     8A    -11.240588     9A    -11.238683
      10A    -11.237844    11A    -11.236983    12A    -11.234280
      13A     -1.182712    14A     -1.130122    15A     -1.078057
      16A     -1.021256    17A     -1.005281    18A     -0.968819
      19A     -0.878767    20A     -0.844241    21A     -0.802962
      22A     -0.783519    23A     -0.721143    24A     -0.681382
      25A     -0.672923    26A     -0.645848    27A     -0.614854
      28A     -0.606224    29A     -0.590845    30A     -0.590750
      31A     -0.573605    32A     -0.522752    33A     -0.519840
      34A     -0.509280    35A     -0.506275    36A     -0.482000
      37A     -0.456562    38A     -0.372810    39A     -0.342739
      40A     -0.335435    41A     -0.281064

  @DF-RHF Final Energy:  -460.33379562503916

   => Energetics <=

    Nuclear Repulsion Energy =            599.7668064579088423
    One-Electron Energy =               -1810.9411532679732773
    Two-Electron Energy =                 750.8405511850253333
    Total Energy =                       -460.3337956250391017
  Basis Set: (AUG-CC-PVTZ AUX)
    Blend: AUG-CC-PVTZ-RI
    Molecular point group: c1

    Geometry (in Angstrom), charge = 0, multiplicity = 1:

       Center              X                  Y                   Z               Mass
    ------------   -----------------  -----------------  -----------------  -----------------
         C            0.723302499131     0.000007953575     0.000015661973    12.000000000000
         C           -0.554455500869     0.000007053575    -0.000000738027    12.000000000000
         C            1.438100499131     1.117857953575    -0.458385338027    12.000000000000
         C           -1.469258500869     1.117856953575     0.458392661973    12.000000000000
         C            1.438096499131    -1.117855046425     0.458386661973    12.000000000000
         C           -1.469243500869    -1.117857046425    -0.458377338027    12.000000000000
         C            2.833141499131     1.118257953575    -0.456004338027    12.000000000000
         C           -2.864300500869     1.118255953575     0.455995661973    12.000000000000
         C            2.833137499131    -1.118256046425     0.456010661973    12.000000000000
         C           -2.864285500869    -1.118258046425    -0.456017338027    12.000000000000
         C            3.535166499131    -0.000007046425    -0.000013338027    12.000000000000
         C           -3.566319500869    -0.000010046425    -0.000001338027    12.000000000000
         H            0.893803499131     1.978655953575    -0.841680338027     1.007825032230
         H           -0.924966500869     1.978652953575     0.841699661973     1.007825032230
         H            0.893792499131    -1.978631046425     0.841722661973     1.007825032230
         H           -0.924934500869    -1.978633046425    -0.841707338027     1.007825032230
         H            3.373472499131     1.988812953575    -0.820964338027     1.007825032230
         H           -3.404635500869     1.988806953575     0.820959661973     1.007825032230
         H            3.373465499131    -1.988821046425     0.820951661973     1.007825032230
         H           -3.404609500869    -1.988824046425    -0.820963338027     1.007825032230
         H            4.622504499131    -0.000013046425    -0.000019338027     1.007825032230
         H           -4.653657500869    -0.000013046425    -0.000017338027     1.007825032230

  Basis Set: AUG-CC-PVTZ
    Blend: AUG-CC-PVTZ
  Basis Set: (AUG-CC-PVTZ AUX)
    Blend: AUG-CC-PVTZ-JKFIT
	 Reference Energy          =    -460.3337956250391585 [Eh]
	 Singles Energy            =      -0.0000000000000000 [Eh]
	 Same-Spin Energy          =      -0.5265656448456359 [Eh]
	 Opposite-Spin Energy      =      -1.6318676701199279 [Eh]
	 Correlation Energy        =      -2.1584333149655639 [Eh]
	 Total Energy              =    -462.4922289400047362 [Eh]

	 ================> DF-SCS-MP2 Energies <==================
	-----------------------------------------------------------
	 SCS Same-Spin Scale       =       0.3333333333333333 [-]
	 SCS Opposite-Spin Scale   =       1.2000000000000000 [-]
	 SCS Same-Spin Energy      =      -0.1755218816152120 [Eh]
	 SCS Opposite-Spin Energy  =      -1.9582412041439134 [Eh]
	 SCS Correlation Energy    =      -2.1337630857591252 [Eh]
	 SCS Total Energy          =    -462.4675587107983006 [Eh]
	-----------------------------------------------------------

  Dipole Moment: [D]
     X:     0.3539      Y:     0.0000      Z:    -0.0000     Total:     0.3539

*** Psi4 exiting successfully. Buy a developer a beer!
