                               Psi4 1.3.2 release

  ==> Input File <==

--------------------------------------------------------------------------
#psi4
#
memory 32 gb

molecule  {
0 1
  C        0.7388790     0.0000080     0.0000160
  C       -0.8248989    -0.0433305    -0.0179832
  C        1.4536770     1.1178580    -0.4583850
  C       -1.4536820     1.1178570     0.4583930
  C        1.4536730    -1.1178550     0.4583870
  C       -1.4536670    -1.1178570    -0.4583770
  C        2.8487180     1.1182580    -0.4560040
  C       -2.8487240     1.1182560     0.4559960
  C        2.8487140    -1.1182560     0.4560110
  C       -2.8487090    -1.1182580    -0.4560170
  C        3.5507430    -0.0000070    -0.0000130
  C       -3.5507430    -0.0000100    -0.0000010
  H        0.9093800     1.9786560    -0.8416800
  H       -0.9093900     1.9786530     0.8417000
  H        0.9093690    -1.9786310     0.8417230
  H       -0.9093580    -1.9786330    -0.8417070
  H        3.3890490     1.9888130    -0.8209640
  H       -3.3890590     1.9888070     0.8209600
  H        3.3890420    -1.9888210     0.8209520
  H       -3.3890330    -1.9888240    -0.8209630
  H        4.6380810    -0.0000130    -0.0000190
  H       -4.6380810    -0.0000130    -0.0000170
units angstrom
no_reorient  #important for SAPT in psi4, default
symmetry c1  #important for SAPT in psi4, default
}

set PROPERTIES_ORIGIN ["COM"]
properties('MP2/aug-cc-pvtz', properties = ['dipole'])
--------------------------------------------------------------------------

    Molecular point group: c1
  Charge       = 0
  Multiplicity = 1
  Basis Set: AUG-CC-PVTZ
    Blend: AUG-CC-PVTZ
  Basis Set: (AUG-CC-PVTZ AUX)
    Blend: AUG-CC-PVTZ-JKFIT

    Orbital Energies [Eh]
    ---------------------

    Doubly Occupied:

       1A    -11.249532     2A    -11.243652     3A    -11.239731
       4A    -11.239286     5A    -11.237910     6A    -11.237349
       7A    -11.236965     8A    -11.235830     9A    -11.235551
      10A    -11.234779    11A    -11.234345    12A    -11.227556
      13A     -1.171832    14A     -1.143050    15A     -1.047474
      16A     -1.022640    17A     -1.011940    18A     -0.985194
      19A     -0.844628    20A     -0.840986    21A     -0.814506
      22A     -0.790406    23A     -0.717691    24A     -0.681257
      25A     -0.647492    26A     -0.638957    27A     -0.617377
      28A     -0.612545    29A     -0.594461    30A     -0.583807
      31A     -0.578294    32A     -0.521254    33A     -0.517667
      34A     -0.507481    35A     -0.494643    36A     -0.489207
      37A     -0.464888    38A     -0.364692    39A     -0.340611
      40A     -0.336921    41A     -0.310199

  @DF-RHF Final Energy:  -460.39067916703505

   => Energetics <=

    Nuclear Repulsion Energy =            599.4345333162979159
    One-Electron Energy =               -1810.5612454509459894
    Two-Electron Energy =                 750.7360329676131414
    Total Energy =                       -460.3906791670350458
  Basis Set: (AUG-CC-PVTZ AUX)
    Blend: AUG-CC-PVTZ-RI
    Molecular point group: c1

    Geometry (in Angstrom), charge = 0, multiplicity = 1:

       Center              X                  Y                   Z               Mass
    ------------   -----------------  -----------------  -----------------  -----------------
         C            0.745578445235     0.003383194395     0.001416207472    12.000000000000
         C           -0.818199454765    -0.039955305605    -0.016582992528    12.000000000000
         C            1.460376445235     1.121233194395    -0.456984792528    12.000000000000
         C           -1.446982554765     1.121232194395     0.459793207472    12.000000000000
         C            1.460372445235    -1.114479805605     0.459787207472    12.000000000000
         C           -1.446967554765    -1.114481805605    -0.456976792528    12.000000000000
         C            2.855417445235     1.121633194395    -0.454603792528    12.000000000000
         C           -2.842024554765     1.121631194395     0.457396207472    12.000000000000
         C            2.855413445235    -1.114880805605     0.457411207472    12.000000000000
         C           -2.842009554765    -1.114882805605    -0.454616792528    12.000000000000
         C            3.557442445235     0.003368194395     0.001387207472    12.000000000000
         C           -3.544043554765     0.003365194395     0.001399207472    12.000000000000
         H            0.916079445235     1.982031194395    -0.840279792528     1.007825032230
         H           -0.902690554765     1.982028194395     0.843100207472     1.007825032230
         H            0.916068445235    -1.975255805605     0.843123207472     1.007825032230
         H           -0.902658554765    -1.975257805605    -0.840306792528     1.007825032230
         H            3.395748445235     1.992188194395    -0.819563792528     1.007825032230
         H           -3.382359554765     1.992182194395     0.822360207472     1.007825032230
         H            3.395741445235    -1.985445805605     0.822352207472     1.007825032230
         H           -3.382333554765    -1.985448805605    -0.819562792528     1.007825032230
         H            4.644780445235     0.003362194395     0.001381207472     1.007825032230
         H           -4.631381554765     0.003362194395     0.001383207472     1.007825032230

  Basis Set: AUG-CC-PVTZ
    Blend: AUG-CC-PVTZ
  Basis Set: (AUG-CC-PVTZ AUX)
    Blend: AUG-CC-PVTZ-JKFIT
	 Reference Energy          =    -460.3906791670350458 [Eh]
	 Singles Energy            =      -0.0000000000000000 [Eh]
	 Same-Spin Energy          =      -0.5205301860271025 [Eh]
	 Opposite-Spin Energy      =      -1.6222931932239373 [Eh]
	 Correlation Energy        =      -2.1428233792510398 [Eh]
	 Total Energy              =    -462.5335025462860585 [Eh]

	 ================> DF-SCS-MP2 Energies <==================
	-----------------------------------------------------------
	 SCS Same-Spin Scale       =       0.3333333333333333 [-]
	 SCS Opposite-Spin Scale   =       1.2000000000000000 [-]
	 SCS Same-Spin Energy      =      -0.1735100620090342 [Eh]
	 SCS Opposite-Spin Energy  =      -1.9467518318687247 [Eh]
	 SCS Correlation Energy    =      -2.1202618938777587 [Eh]
	 SCS Total Energy          =    -462.5109410609127849 [Eh]
	-----------------------------------------------------------

  Dipole Moment: [D]
     X:    -0.1385      Y:     0.0075      Z:    -0.0025     Total:     0.1387

*** Psi4 exiting successfully. Buy a developer a beer!
