                               Psi4 1.3.2 release

  ==> Input File <==

--------------------------------------------------------------------------
#psi4
#
memory 32 gb

molecule  {
0 1
  C        0.7352787     0.0953833     0.0391272
  C       -0.7388790     0.0000070    -0.0000030
  C        1.4536770     1.1178580    -0.4583850
  C       -1.4536820     1.1178570     0.4583930
  C        1.4536730    -1.1178550     0.4583870
  C       -1.4536670    -1.1178570    -0.4583770
  C        2.8487180     1.1182580    -0.4560040
  C       -2.8487240     1.1182560     0.4559960
  C        2.8487140    -1.1182560     0.4560110
  C       -2.8487090    -1.1182580    -0.4560170
  C        3.5507430    -0.0000070    -0.0000130
  C       -3.5507430    -0.0000100    -0.0000010
  H        0.9093800     1.9786560    -0.8416800
  H       -0.9093900     1.9786530     0.8417000
  H        0.9093690    -1.9786310     0.8417230
  H       -0.9093580    -1.9786330    -0.8417070
  H        3.3890490     1.9888130    -0.8209640
  H       -3.3890590     1.9888070     0.8209600
  H        3.3890420    -1.9888210     0.8209520
  H       -3.3890330    -1.9888240    -0.8209630
  H        4.6380810    -0.0000130    -0.0000190
  H       -4.6380810    -0.0000130    -0.0000170
units angstrom
no_reorient  #important for SAPT in psi4, default
symmetry c1  #important for SAPT in psi4, default
}

set PROPERTIES_ORIGIN ["COM"]
properties('MP2/aug-cc-pvtz', properties = ['dipole'])
--------------------------------------------------------------------------

    Molecular point group: c1
  Charge       = 0
  Multiplicity = 1
  Basis Set: AUG-CC-PVTZ
    Blend: AUG-CC-PVTZ
  Basis Set: (AUG-CC-PVTZ AUX)
    Blend: AUG-CC-PVTZ-JKFIT

    Orbital Energies [Eh]
    ---------------------

    Doubly Occupied:

       1A    -11.247680     2A    -11.246874     3A    -11.242893
       4A    -11.239806     5A    -11.239174     6A    -11.238371
       7A    -11.238206     8A    -11.238142     9A    -11.236782
      10A    -11.236430    11A    -11.235047    12A    -11.230931
      13A     -1.169795    14A     -1.140515    15A     -1.054900
      16A     -1.019376    17A     -1.011799    18A     -0.981298
      19A     -0.852817    20A     -0.840894    21A     -0.812989
      22A     -0.787866    23A     -0.717500    24A     -0.681694
      25A     -0.654912    26A     -0.638786    27A     -0.616787
      28A     -0.609369    29A     -0.591860    30A     -0.585631
      31A     -0.579593    32A     -0.521919    33A     -0.515425
      34A     -0.504350    35A     -0.492747    36A     -0.490729
      37A     -0.472778    38A     -0.368213    39A     -0.339228
      40A     -0.337247    41A     -0.303468

  @DF-RHF Final Energy:  -460.39160721315875

   => Energetics <=

    Nuclear Repulsion Energy =            599.3078439747235961
    One-Electron Energy =               -1810.2692534637760673
    Two-Electron Energy =                 750.5698022758938350
    Total Energy =                       -460.3916072131587498
  Basis Set: (AUG-CC-PVTZ AUX)
    Blend: AUG-CC-PVTZ-RI
    Molecular point group: c1

    Geometry (in Angstrom), charge = 0, multiplicity = 1:

       Center              X                  Y                   Z               Mass
    ------------   -----------------  -----------------  -----------------  -----------------
         C            0.735559100380     0.087955194147     0.036080986264    12.000000000000
         C           -0.738598599620    -0.007421105853    -0.003049213736    12.000000000000
         C            1.453957400380     1.110429894147    -0.461431213736    12.000000000000
         C           -1.453401599620     1.110428894147     0.455346786264    12.000000000000
         C            1.453953400380    -1.125283105853     0.455340786264    12.000000000000
         C           -1.453386599620    -1.125285105853    -0.461423213736    12.000000000000
         C            2.848998400380     1.110829894147    -0.459050213736    12.000000000000
         C           -2.848443599620     1.110827894147     0.452949786264    12.000000000000
         C            2.848994400380    -1.125684105853     0.452964786264    12.000000000000
         C           -2.848428599620    -1.125686105853    -0.459063213736    12.000000000000
         C            3.551023400380    -0.007435105853    -0.003059213736    12.000000000000
         C           -3.550462599620    -0.007438105853    -0.003047213736    12.000000000000
         H            0.909660400380     1.971227894147    -0.844726213736     1.007825032230
         H           -0.909109599620     1.971224894147     0.838653786264     1.007825032230
         H            0.909649400380    -1.986059105853     0.838676786264     1.007825032230
         H           -0.909077599620    -1.986061105853    -0.844753213736     1.007825032230
         H            3.389329400380     1.981384894147    -0.824010213736     1.007825032230
         H           -3.388778599620     1.981378894147     0.817913786264     1.007825032230
         H            3.389322400380    -1.996249105853     0.817905786264     1.007825032230
         H           -3.388752599620    -1.996252105853    -0.824009213736     1.007825032230
         H            4.638361400380    -0.007441105853    -0.003065213736     1.007825032230
         H           -4.637800599620    -0.007441105853    -0.003063213736     1.007825032230

  Basis Set: AUG-CC-PVTZ
    Blend: AUG-CC-PVTZ
  Basis Set: (AUG-CC-PVTZ AUX)
    Blend: AUG-CC-PVTZ-JKFIT
	 Reference Energy          =    -460.3916072131587498 [Eh]
	 Singles Energy            =      -0.0000000000000000 [Eh]
	 Same-Spin Energy          =      -0.5212690352119635 [Eh]
	 Opposite-Spin Energy      =      -1.6238219859463512 [Eh]
	 Correlation Energy        =      -2.1450910211583150 [Eh]
	 Total Energy              =    -462.5366982343170434 [Eh]

	 ================> DF-SCS-MP2 Energies <==================
	-----------------------------------------------------------
	 SCS Same-Spin Scale       =       0.3333333333333333 [-]
	 SCS Opposite-Spin Scale   =       1.2000000000000000 [-]
	 SCS Same-Spin Energy      =      -0.1737563450706545 [Eh]
	 SCS Opposite-Spin Energy  =      -1.9485863831356214 [Eh]
	 SCS Correlation Energy    =      -2.1223427282062759 [Eh]
	 SCS Total Energy          =    -462.5139499413650128 [Eh]
	-----------------------------------------------------------

  Dipole Moment: [D]
     X:     0.0041      Y:    -0.0173      Z:    -0.0160     Total:     0.0240

*** Psi4 exiting successfully. Buy a developer a beer!
