                               Psi4 1.3.2 release

  ==> Input File <==

--------------------------------------------------------------------------
#psi4
#
memory 32 gb

molecule  {
0 1
  C        0.7388790     0.0000080     0.0000160
  C       -0.7388790     0.0000070    -0.0000030
  C        1.4027582     1.0382277    -0.4257307
  C       -1.4536820     1.1178570     0.4583930
  C        1.4536730    -1.1178550     0.4583870
  C       -1.4536670    -1.1178570    -0.4583770
  C        2.8487180     1.1182580    -0.4560040
  C       -2.8487240     1.1182560     0.4559960
  C        2.8487140    -1.1182560     0.4560110
  C       -2.8487090    -1.1182580    -0.4560170
  C        3.5507430    -0.0000070    -0.0000130
  C       -3.5507430    -0.0000100    -0.0000010
  H        0.9093800     1.9786560    -0.8416800
  H       -0.9093900     1.9786530     0.8417000
  H        0.9093690    -1.9786310     0.8417230
  H       -0.9093580    -1.9786330    -0.8417070
  H        3.3890490     1.9888130    -0.8209640
  H       -3.3890590     1.9888070     0.8209600
  H        3.3890420    -1.9888210     0.8209520
  H       -3.3890330    -1.9888240    -0.8209630
  H        4.6380810    -0.0000130    -0.0000190
  H       -4.6380810    -0.0000130    -0.0000170
units angstrom
no_reorient  #important for SAPT in psi4, default
symmetry c1  #important for SAPT in psi4, default
}

set PROPERTIES_ORIGIN ["COM"]
properties('MP2/aug-cc-pvtz', properties = ['dipole'])
--------------------------------------------------------------------------

    Molecular point group: c1
  Charge       = 0
  Multiplicity = 1
  Basis Set: AUG-CC-PVTZ
    Blend: AUG-CC-PVTZ
  Basis Set: (AUG-CC-PVTZ AUX)
    Blend: AUG-CC-PVTZ-JKFIT

    Orbital Energies [Eh]
    ---------------------

    Doubly Occupied:

       1A    -11.246345     2A    -11.243684     3A    -11.238727
       4A    -11.238621     5A    -11.238340     6A    -11.237666
       7A    -11.236723     8A    -11.236320     9A    -11.236122
      10A    -11.235830    11A    -11.235793    12A    -11.233893
      13A     -1.175676    14A     -1.141759    15A     -1.058324
      16A     -1.017171    17A     -1.006296    18A     -0.988100
      19A     -0.849256    20A     -0.844225    21A     -0.814160
      22A     -0.788242    23A     -0.718635    24A     -0.679333
      25A     -0.651120    26A     -0.641347    27A     -0.619508
      28A     -0.610228    29A     -0.588142    30A     -0.587513
      31A     -0.576570    32A     -0.520191    33A     -0.517725
      34A     -0.504814    35A     -0.493102    36A     -0.488866
      37A     -0.472300    38A     -0.371826    39A     -0.338191
      40A     -0.332051    41A     -0.310002

  @DF-RHF Final Energy:  -460.38736549997691

   => Energetics <=

    Nuclear Repulsion Energy =            600.8678926492960954
    One-Electron Energy =               -1813.3850375147169416
    Two-Electron Energy =                 752.1297793654440511
    Total Energy =                       -460.3873654999769087
  Basis Set: (AUG-CC-PVTZ AUX)
    Blend: AUG-CC-PVTZ-RI
    Molecular point group: c1

    Geometry (in Angstrom), charge = 0, multiplicity = 1:

       Center              X                  Y                   Z               Mass
    ------------   -----------------  -----------------  -----------------  -----------------
         C            0.742844683662     0.006209768549    -0.002527334194    12.000000000000
         C           -0.734913316338     0.006208768549    -0.002546334194    12.000000000000
         C            1.406723883662     1.044429468549    -0.428274034194    12.000000000000
         C           -1.449716316338     1.124058768549     0.455849665806    12.000000000000
         C            1.457638683662    -1.111653231451     0.455843665806    12.000000000000
         C           -1.449701316338    -1.111655231451    -0.460920334194    12.000000000000
         C            2.852683683662     1.124459768549    -0.458547334194    12.000000000000
         C           -2.844758316338     1.124457768549     0.453452665806    12.000000000000
         C            2.852679683662    -1.112054231451     0.453467665806    12.000000000000
         C           -2.844743316338    -1.112056231451    -0.458560334194    12.000000000000
         C            3.554708683662     0.006194768549    -0.002556334194    12.000000000000
         C           -3.546777316338     0.006191768549    -0.002544334194    12.000000000000
         H            0.913345683662     1.984857768549    -0.844223334194     1.007825032230
         H           -0.905424316338     1.984854768549     0.839156665806     1.007825032230
         H            0.913334683662    -1.972429231451     0.839179665806     1.007825032230
         H           -0.905392316338    -1.972431231451    -0.844250334194     1.007825032230
         H            3.393014683662     1.995014768549    -0.823507334194     1.007825032230
         H           -3.385093316338     1.995008768549     0.818416665806     1.007825032230
         H            3.393007683662    -1.982619231451     0.818408665806     1.007825032230
         H           -3.385067316338    -1.982622231451    -0.823506334194     1.007825032230
         H            4.642046683662     0.006188768549    -0.002562334194     1.007825032230
         H           -4.634115316338     0.006188768549    -0.002560334194     1.007825032230

  Basis Set: AUG-CC-PVTZ
    Blend: AUG-CC-PVTZ
  Basis Set: (AUG-CC-PVTZ AUX)
    Blend: AUG-CC-PVTZ-JKFIT
	 Reference Energy          =    -460.3873654999769087 [Eh]
	 Singles Energy            =      -0.0000000000000000 [Eh]
	 Same-Spin Energy          =      -0.5211310523162975 [Eh]
	 Opposite-Spin Energy      =      -1.6236741223765292 [Eh]
	 Correlation Energy        =      -2.1448051746928267 [Eh]
	 Total Energy              =    -462.5321706746697146 [Eh]

	 ================> DF-SCS-MP2 Energies <==================
	-----------------------------------------------------------
	 SCS Same-Spin Scale       =       0.3333333333333333 [-]
	 SCS Opposite-Spin Scale   =       1.2000000000000000 [-]
	 SCS Same-Spin Energy      =      -0.1737103507720992 [Eh]
	 SCS Opposite-Spin Energy  =      -1.9484089468518349 [Eh]
	 SCS Correlation Energy    =      -2.1221192976239340 [Eh]
	 SCS Total Energy          =    -462.5094847976008623 [Eh]
	-----------------------------------------------------------

  Dipole Moment: [D]
     X:     0.0595      Y:     0.0025      Z:     0.0029     Total:     0.0596

*** Psi4 exiting successfully. Buy a developer a beer!
