                               Psi4 1.3.2 release

  ==> Input File <==

--------------------------------------------------------------------------
#psi4
#
memory 32 gb

molecule  {
0 1
  C        0.7388790     0.0000080     0.0000160
  C       -0.7814795    -0.0223563    -0.0092780
  C        1.4536770     1.1178580    -0.4583850
  C       -1.4536820     1.1178570     0.4583930
  C        1.4536730    -1.1178550     0.4583870
  C       -1.4536670    -1.1178570    -0.4583770
  C        2.8487180     1.1182580    -0.4560040
  C       -2.8487240     1.1182560     0.4559960
  C        2.8487140    -1.1182560     0.4560110
  C       -2.8487090    -1.1182580    -0.4560170
  C        3.5507430    -0.0000070    -0.0000130
  C       -3.5507430    -0.0000100    -0.0000010
  H        0.9093800     1.9786560    -0.8416800
  H       -0.9093900     1.9786530     0.8417000
  H        0.9093690    -1.9786310     0.8417230
  H       -0.9093580    -1.9786330    -0.8417070
  H        3.3890490     1.9888130    -0.8209640
  H       -3.3890590     1.9888070     0.8209600
  H        3.3890420    -1.9888210     0.8209520
  H       -3.3890330    -1.9888240    -0.8209630
  H        4.6380810    -0.0000130    -0.0000190
  H       -4.6380810    -0.0000130    -0.0000170
units angstrom
no_reorient  #important for SAPT in psi4, default
symmetry c1  #important for SAPT in psi4, default
}

set PROPERTIES_ORIGIN ["COM"]
properties('MP2/aug-cc-pvtz', properties = ['dipole'])
--------------------------------------------------------------------------

    Molecular point group: c1
  Charge       = 0
  Multiplicity = 1
  Basis Set: AUG-CC-PVTZ
    Blend: AUG-CC-PVTZ
  Basis Set: (AUG-CC-PVTZ AUX)
    Blend: AUG-CC-PVTZ-JKFIT

    Orbital Energies [Eh]
    ---------------------

    Doubly Occupied:

       1A    -11.248580     2A    -11.245330     3A    -11.239284
       4A    -11.239011     5A    -11.238491     6A    -11.238122
       7A    -11.236752     8A    -11.236186     9A    -11.236125
      10A    -11.235722    11A    -11.235420    12A    -11.232251
      13A     -1.169955    14A     -1.141996    15A     -1.050276
      16A     -1.020643    17A     -1.011921    18A     -0.983873
      19A     -0.847303    20A     -0.842026    21A     -0.813307
      22A     -0.790100    23A     -0.717530    24A     -0.681294
      25A     -0.650646    26A     -0.638787    27A     -0.616882
      28A     -0.610699    29A     -0.592590    30A     -0.583991
      31A     -0.581420    32A     -0.521421    33A     -0.515952
      34A     -0.505395    35A     -0.492928    36A     -0.487988
      37A     -0.475485    38A     -0.365117    39A     -0.339902
      40A     -0.337493    41A     -0.307295

  @DF-RHF Final Energy:  -460.39868149317499

   => Energetics <=

    Nuclear Repulsion Energy =            599.3726311617909914
    One-Electron Energy =               -1810.4316416314218259
    Two-Electron Energy =                 750.6603289764557303
    Total Energy =                       -460.3986814931749905
  Basis Set: (AUG-CC-PVTZ AUX)
    Blend: AUG-CC-PVTZ-RI
    Molecular point group: c1

    Geometry (in Angstrom), charge = 0, multiplicity = 1:

       Center              X                  Y                   Z               Mass
    ------------   -----------------  -----------------  -----------------  -----------------
         C            0.742196833626     0.001749671173     0.000738224695    12.000000000000
         C           -0.778161666374    -0.020614628827    -0.008555775305    12.000000000000
         C            1.456994833626     1.119599671173    -0.457662775305    12.000000000000
         C           -1.450364166374     1.119598671173     0.459115224695    12.000000000000
         C            1.456990833626    -1.116113328827     0.459109224695    12.000000000000
         C           -1.450349166374    -1.116115328827    -0.457654775305    12.000000000000
         C            2.852035833626     1.119999671173    -0.455281775305    12.000000000000
         C           -2.845406166374     1.119997671173     0.456718224695    12.000000000000
         C            2.852031833626    -1.116514328827     0.456733224695    12.000000000000
         C           -2.845391166374    -1.116516328827    -0.455294775305    12.000000000000
         C            3.554060833626     0.001734671173     0.000709224695    12.000000000000
         C           -3.547425166374     0.001731671173     0.000721224695    12.000000000000
         H            0.912697833626     1.980397671173    -0.840957775305     1.007825032230
         H           -0.906072166374     1.980394671173     0.842422224695     1.007825032230
         H            0.912686833626    -1.976889328827     0.842445224695     1.007825032230
         H           -0.906040166374    -1.976891328827    -0.840984775305     1.007825032230
         H            3.392366833626     1.990554671173    -0.820241775305     1.007825032230
         H           -3.385741166374     1.990548671173     0.821682224695     1.007825032230
         H            3.392359833626    -1.987079328827     0.821674224695     1.007825032230
         H           -3.385715166374    -1.987082328827    -0.820240775305     1.007825032230
         H            4.641398833626     0.001728671173     0.000703224695     1.007825032230
         H           -4.634763166374     0.001728671173     0.000705224695     1.007825032230

  Basis Set: AUG-CC-PVTZ
    Blend: AUG-CC-PVTZ
  Basis Set: (AUG-CC-PVTZ AUX)
    Blend: AUG-CC-PVTZ-JKFIT
	 Reference Energy          =    -460.3986814931749905 [Eh]
	 Singles Energy            =      -0.0000000000000000 [Eh]
	 Same-Spin Energy          =      -0.5208199369598596 [Eh]
	 Opposite-Spin Energy      =      -1.6225484709668339 [Eh]
	 Correlation Energy        =      -2.1433684079266935 [Eh]
	 Total Energy              =    -462.5420499011016773 [Eh]

	 ================> DF-SCS-MP2 Energies <==================
	-----------------------------------------------------------
	 SCS Same-Spin Scale       =       0.3333333333333333 [-]
	 SCS Opposite-Spin Scale   =       1.2000000000000000 [-]
	 SCS Same-Spin Energy      =      -0.1736066456532865 [Eh]
	 SCS Opposite-Spin Energy  =      -1.9470581651602006 [Eh]
	 SCS Correlation Energy    =      -2.1206648108134871 [Eh]
	 SCS Total Energy          =    -462.5193463039884705 [Eh]
	-----------------------------------------------------------

  Dipole Moment: [D]
     X:    -0.0678      Y:     0.0041      Z:    -0.0012     Total:     0.0680

*** Psi4 exiting successfully. Buy a developer a beer!
