                               Psi4 1.3.2 release

  ==> Input File <==

--------------------------------------------------------------------------
#psi4
#
memory 32 gb

molecule  {
0 1
  C        0.7388790     0.0000080     0.0000160
  C       -0.8388790     0.0000069    -0.0000043
  C        1.4536770     1.1178580    -0.4583850
  C       -1.4536820     1.1178570     0.4583930
  C        1.4536730    -1.1178550     0.4583870
  C       -1.4536670    -1.1178570    -0.4583770
  C        2.8487180     1.1182580    -0.4560040
  C       -2.8487240     1.1182560     0.4559960
  C        2.8487140    -1.1182560     0.4560110
  C       -2.8487090    -1.1182580    -0.4560170
  C        3.5507430    -0.0000070    -0.0000130
  C       -3.5507430    -0.0000100    -0.0000010
  H        0.9093800     1.9786560    -0.8416800
  H       -0.9093900     1.9786530     0.8417000
  H        0.9093690    -1.9786310     0.8417230
  H       -0.9093580    -1.9786330    -0.8417070
  H        3.3890490     1.9888130    -0.8209640
  H       -3.3890590     1.9888070     0.8209600
  H        3.3890420    -1.9888210     0.8209520
  H       -3.3890330    -1.9888240    -0.8209630
  H        4.6380810    -0.0000130    -0.0000190
  H       -4.6380810    -0.0000130    -0.0000170
units angstrom
no_reorient  #important for SAPT in psi4, default
symmetry c1  #important for SAPT in psi4, default
}

set PROPERTIES_ORIGIN ["COM"]
properties('MP2/aug-cc-pvtz', properties = ['dipole'])
--------------------------------------------------------------------------

    Molecular point group: c1
  Charge       = 0
  Multiplicity = 1
  Basis Set: AUG-CC-PVTZ
    Blend: AUG-CC-PVTZ
  Basis Set: (AUG-CC-PVTZ AUX)
    Blend: AUG-CC-PVTZ-JKFIT

    Orbital Energies [Eh]
    ---------------------

    Doubly Occupied:

       1A    -11.249611     2A    -11.243626     3A    -11.239731
       4A    -11.239558     5A    -11.237488     6A    -11.237264
       7A    -11.235701     8A    -11.234739     9A    -11.234649
      10A    -11.234315    11A    -11.232058    12A    -11.231955
      13A     -1.172285    14A     -1.143116    15A     -1.045769
      16A     -1.023679    17A     -1.011765    18A     -0.985867
      19A     -0.843317    20A     -0.841272    21A     -0.814414
      22A     -0.791186    23A     -0.717757    24A     -0.681042
      25A     -0.646373    26A     -0.639427    27A     -0.617018
      28A     -0.613629    29A     -0.594649    30A     -0.583437
      31A     -0.578156    32A     -0.521019    33A     -0.518086
      34A     -0.508337    35A     -0.494762    36A     -0.488989
      37A     -0.463225    38A     -0.363359    39A     -0.341151
      40A     -0.336674    41A     -0.311318

  @DF-RHF Final Energy:  -460.39134457010221

   => Energetics <=

    Nuclear Repulsion Energy =            599.4426311374735405
    One-Electron Energy =               -1810.5844008969086190
    Two-Electron Energy =                 750.7504251893329865
    Total Energy =                       -460.3913445701022056
  Basis Set: (AUG-CC-PVTZ AUX)
    Blend: AUG-CC-PVTZ-RI
    Molecular point group: c1

    Geometry (in Angstrom), charge = 0, multiplicity = 1:

       Center              X                  Y                   Z               Mass
    ------------   -----------------  -----------------  -----------------  -----------------
         C            0.746667250434     0.000007969152     0.000015965715    12.000000000000
         C           -0.831090749566     0.000006869152    -0.000004334285    12.000000000000
         C            1.461465250434     1.117857969152    -0.458385034285    12.000000000000
         C           -1.445893749566     1.117856969152     0.458392965715    12.000000000000
         C            1.461461250434    -1.117855030848     0.458386965715    12.000000000000
         C           -1.445878749566    -1.117857030848    -0.458377034285    12.000000000000
         C            2.856506250434     1.118257969152    -0.456004034285    12.000000000000
         C           -2.840935749566     1.118255969152     0.455995965715    12.000000000000
         C            2.856502250434    -1.118256030848     0.456010965715    12.000000000000
         C           -2.840920749566    -1.118258030848    -0.456017034285    12.000000000000
         C            3.558531250434    -0.000007030848    -0.000013034285    12.000000000000
         C           -3.542954749566    -0.000010030848    -0.000001034285    12.000000000000
         H            0.917168250434     1.978655969152    -0.841680034285     1.007825032230
         H           -0.901601749566     1.978652969152     0.841699965715     1.007825032230
         H            0.917157250434    -1.978631030848     0.841722965715     1.007825032230
         H           -0.901569749566    -1.978633030848    -0.841707034285     1.007825032230
         H            3.396837250434     1.988812969152    -0.820964034285     1.007825032230
         H           -3.381270749566     1.988806969152     0.820959965715     1.007825032230
         H            3.396830250434    -1.988821030848     0.820951965715     1.007825032230
         H           -3.381244749566    -1.988824030848    -0.820963034285     1.007825032230
         H            4.645869250434    -0.000013030848    -0.000019034285     1.007825032230
         H           -4.630292749566    -0.000013030848    -0.000017034285     1.007825032230

  Basis Set: AUG-CC-PVTZ
    Blend: AUG-CC-PVTZ
  Basis Set: (AUG-CC-PVTZ AUX)
    Blend: AUG-CC-PVTZ-JKFIT
	 Reference Energy          =    -460.3913445701022056 [Eh]
	 Singles Energy            =      -0.0000000000000000 [Eh]
	 Same-Spin Energy          =      -0.5205909241442275 [Eh]
	 Opposite-Spin Energy      =      -1.6221833157789480 [Eh]
	 Correlation Energy        =      -2.1427742399231757 [Eh]
	 Total Energy              =    -462.5341188100254044 [Eh]

	 ================> DF-SCS-MP2 Energies <==================
	-----------------------------------------------------------
	 SCS Same-Spin Scale       =       0.3333333333333333 [-]
	 SCS Opposite-Spin Scale   =       1.2000000000000000 [-]
	 SCS Same-Spin Energy      =      -0.1735303080480758 [Eh]
	 SCS Opposite-Spin Energy  =      -1.9466199789347376 [Eh]
	 SCS Correlation Energy    =      -2.1201502869828133 [Eh]
	 SCS Total Energy          =    -462.5114948570850402 [Eh]
	-----------------------------------------------------------

  Dipole Moment: [D]
     X:    -0.1635      Y:     0.0000      Z:    -0.0000     Total:     0.1635

*** Psi4 exiting successfully. Buy a developer a beer!
