                               Psi4 1.4a3.dev225

  ==> Input File <==

--------------------------------------------------------------------------
#psi4
#
memory 32 gb

molecule  {
0 1
  C        0.7388790     0.0000080     0.0000160
  C       -0.7388790     0.0000070    -0.0000030
  C        1.4434932     1.1019319    -0.4518541
  C       -1.4536820     1.1178570     0.4583930
  C        1.4536730    -1.1178550     0.4583870
  C       -1.4536670    -1.1178570    -0.4583770
  C        2.8487180     1.1182580    -0.4560040
  C       -2.8487240     1.1182560     0.4559960
  C        2.8487140    -1.1182560     0.4560110
  C       -2.8487090    -1.1182580    -0.4560170
  C        3.5507430    -0.0000070    -0.0000130
  C       -3.5507430    -0.0000100    -0.0000010
  H        0.9093800     1.9786560    -0.8416800
  H       -0.9093900     1.9786530     0.8417000
  H        0.9093690    -1.9786310     0.8417230
  H       -0.9093580    -1.9786330    -0.8417070
  H        3.3890490     1.9888130    -0.8209640
  H       -3.3890590     1.9888070     0.8209600
  H        3.3890420    -1.9888210     0.8209520
  H       -3.3890330    -1.9888240    -0.8209630
  H        4.6380810    -0.0000130    -0.0000190
  H       -4.6380810    -0.0000130    -0.0000170
units angstrom
no_reorient  #important for SAPT in psi4, default
symmetry c1  #important for SAPT in psi4, default
}

set PROPERTIES_ORIGIN ["COM"]
properties('MP2/aug-cc-pvtz', properties = ['dipole'])
--------------------------------------------------------------------------

    Molecular point group: c1
  Charge       = 0
  Multiplicity = 1
  Basis Set: AUG-CC-PVTZ
    Blend: AUG-CC-PVTZ
  Basis Set: (AUG-CC-PVTZ AUX)
    Blend: AUG-CC-PVTZ-JKFIT

    Orbital Energies [Eh]
    ---------------------

    Doubly Occupied:

       1A    -11.247018     2A    -11.244875     3A    -11.239853
       4A    -11.238989     5A    -11.238820     6A    -11.238722
       7A    -11.236944     8A    -11.236724     9A    -11.236597
      10A    -11.236592    11A    -11.236375    12A    -11.236229
      13A     -1.170502    14A     -1.140648    15A     -1.054652
      16A     -1.018792    17A     -1.010453    18A     -0.983261
      19A     -0.851357    20A     -0.842226    21A     -0.812231
      22A     -0.789485    23A     -0.717838    24A     -0.680814
      25A     -0.653565    26A     -0.639491    27A     -0.616927
      28A     -0.609384    29A     -0.590028    30A     -0.585196
      31A     -0.582322    32A     -0.520900    33A     -0.515600
      34A     -0.504332    35A     -0.491259    36A     -0.486186
      37A     -0.482867    38A     -0.367102    39A     -0.339010
      40A     -0.336763    41A     -0.305078

  @DF-RHF Final Energy:  -460.40000349879722

   => Energetics <=

    Nuclear Repulsion Energy =            599.6403265187626630
    One-Electron Energy =               -1810.9486421696476555
    Two-Electron Energy =                 750.9083121520878876
    Total Energy =                       -460.4000034987972185
  Basis Set: (AUG-CC-PVTZ AUX)
    Blend: AUG-CC-PVTZ-RI
    Molecular point group: c1

    Geometry (in Angstrom), charge = 0, multiplicity = 1:

       Center              X                  Y                   Z               Mass
    ------------   -----------------  -----------------  -----------------  -----------------
         C            0.739672139848     0.001248325916    -0.000492778380    12.000000000000
         C           -0.738085860152     0.001247325916    -0.000511778380    12.000000000000
         C            1.444286339848     1.103172225916    -0.452362878380    12.000000000000
         C           -1.452888860152     1.119097325916     0.457884221620    12.000000000000
         C            1.454466139848    -1.116614674084     0.457878221620    12.000000000000
         C           -1.452873860152    -1.116616674084    -0.458885778380    12.000000000000
         C            2.849511139848     1.119498325916    -0.456512778380    12.000000000000
         C           -2.847930860152     1.119496325916     0.455487221620    12.000000000000
         C            2.849507139848    -1.117015674084     0.455502221620    12.000000000000
         C           -2.847915860152    -1.117017674084    -0.456525778380    12.000000000000
         C            3.551536139848     0.001233325916    -0.000521778380    12.000000000000
         C           -3.549949860152     0.001230325916    -0.000509778380    12.000000000000
         H            0.910173139848     1.979896325916    -0.842188778380     1.007825032230
         H           -0.908596860152     1.979893325916     0.841191221620     1.007825032230
         H            0.910162139848    -1.977390674084     0.841214221620     1.007825032230
         H           -0.908564860152    -1.977392674084    -0.842215778380     1.007825032230
         H            3.389842139848     1.990053325916    -0.821472778380     1.007825032230
         H           -3.388265860152     1.990047325916     0.820451221620     1.007825032230
         H            3.389835139848    -1.987580674084     0.820443221620     1.007825032230
         H           -3.388239860152    -1.987583674084    -0.821471778380     1.007825032230
         H            4.638874139848     0.001227325916    -0.000527778380     1.007825032230
         H           -4.637287860152     0.001227325916    -0.000525778380     1.007825032230

  Basis Set: AUG-CC-PVTZ
    Blend: AUG-CC-PVTZ
  Basis Set: (AUG-CC-PVTZ AUX)
    Blend: AUG-CC-PVTZ-JKFIT
	 Reference Energy          =    -460.4000034987972185 [Eh]
	 Singles Energy            =      -0.0000000000000000 [Eh]
	 Same-Spin Energy          =      -0.5212844482937148 [Eh]
	 Opposite-Spin Energy      =      -1.6232353329919293 [Eh]
	 Correlation Energy        =      -2.1445197812856440 [Eh]
	 Total Energy              =    -462.5445232800828421 [Eh]

	 ================> DF-SCS-MP2 Energies <==================
	-----------------------------------------------------------
	 SCS Same-Spin Scale       =       0.3333333333333333 [-]
	 SCS Opposite-Spin Scale   =       1.2000000000000000 [-]
	 SCS Same-Spin Energy      =      -0.1737614827645716 [Eh]
	 SCS Opposite-Spin Energy  =      -1.9478823995903152 [Eh]
	 SCS Correlation Energy    =      -2.1216438823548867 [Eh]
	 SCS Total Energy          =    -462.5216473811520927 [Eh]
	-----------------------------------------------------------

  Dipole Moment: [D]
     X:     0.0103      Y:     0.0015      Z:     0.0002     Total:     0.0104

*** Psi4 exiting successfully. Buy a developer a beer!
