                               Psi4 1.3.2 release

  ==> Input File <==

--------------------------------------------------------------------------
#psi4
#
memory 32 gb

molecule  {
0 1
  C        0.7388790     0.0000080     0.0000160
  C       -0.6563782     0.0477448     0.0227033
  C        1.4536770     1.1178580    -0.4583850
  C       -1.4536820     1.1178570     0.4583930
  C        1.4536730    -1.1178550     0.4583870
  C       -1.4536670    -1.1178570    -0.4583770
  C        2.8487180     1.1182580    -0.4560040
  C       -2.8487240     1.1182560     0.4559960
  C        2.8487140    -1.1182560     0.4560110
  C       -2.8487090    -1.1182580    -0.4560170
  C        3.5507430    -0.0000070    -0.0000130
  C       -3.5507430    -0.0000100    -0.0000010
  H        0.9093800     1.9786560    -0.8416800
  H       -0.9093900     1.9786530     0.8417000
  H        0.9093690    -1.9786310     0.8417230
  H       -0.9093580    -1.9786330    -0.8417070
  H        3.3890490     1.9888130    -0.8209640
  H       -3.3890590     1.9888070     0.8209600
  H        3.3890420    -1.9888210     0.8209520
  H       -3.3890330    -1.9888240    -0.8209630
  H        4.6380810    -0.0000130    -0.0000190
  H       -4.6380810    -0.0000130    -0.0000170
units angstrom
no_reorient  #important for SAPT in psi4, default
symmetry c1  #important for SAPT in psi4, default
}

set PROPERTIES_ORIGIN ["COM"]
properties('MP2/aug-cc-pvtz', properties = ['dipole'])
--------------------------------------------------------------------------

    Molecular point group: c1
  Charge       = 0
  Multiplicity = 1
  Basis Set: AUG-CC-PVTZ
    Blend: AUG-CC-PVTZ
  Basis Set: (AUG-CC-PVTZ AUX)
    Blend: AUG-CC-PVTZ-JKFIT

    Orbital Energies [Eh]
    ---------------------

    Doubly Occupied:

       1A    -11.250505     2A    -11.245045     3A    -11.243263
       4A    -11.240599     5A    -11.239924     6A    -11.239034
       7A    -11.239028     8A    -11.238219     9A    -11.238157
      10A    -11.237675    11A    -11.237248    12A    -11.236840
      13A     -1.172182    14A     -1.136490    15A     -1.062846
      16A     -1.019294    17A     -1.009468    18A     -0.977321
      19A     -0.862533    20A     -0.841847    21A     -0.809498
      22A     -0.786602    23A     -0.718575    24A     -0.681659
      25A     -0.662300    26A     -0.640951    27A     -0.615870
      28A     -0.607379    29A     -0.590784    30A     -0.587987
      31A     -0.578862    32A     -0.522300    33A     -0.515981
      34A     -0.503959    35A     -0.498213    36A     -0.487396
      37A     -0.472337    38A     -0.369717    39A     -0.340431
      40A     -0.336949    41A     -0.295655

  @DF-RHF Final Energy:  -460.38576692144488

   => Energetics <=

    Nuclear Repulsion Energy =            599.4144300039848758
    One-Electron Energy =               -1810.4185436153832143
    Two-Electron Energy =                 750.6183466899533414
    Total Energy =                       -460.3857669214448833
  Basis Set: (AUG-CC-PVTZ AUX)
    Blend: AUG-CC-PVTZ-RI
    Molecular point group: c1

    Geometry (in Angstrom), charge = 0, multiplicity = 1:

       Center              X                  Y                   Z               Mass
    ------------   -----------------  -----------------  -----------------  -----------------
         C            0.732453631086    -0.003709978052    -0.001752559041    12.000000000000
         C           -0.662803568914     0.044026821948     0.020934740959    12.000000000000
         C            1.447251631086     1.114140021948    -0.460153559041    12.000000000000
         C           -1.460107368914     1.114139021948     0.456624440959    12.000000000000
         C            1.447247631086    -1.121572978052     0.456618440959    12.000000000000
         C           -1.460092368914    -1.121574978052    -0.460145559041    12.000000000000
         C            2.842292631086     1.114540021948    -0.457772559041    12.000000000000
         C           -2.855149368914     1.114538021948     0.454227440959    12.000000000000
         C            2.842288631086    -1.121973978052     0.454242440959    12.000000000000
         C           -2.855134368914    -1.121975978052    -0.457785559041    12.000000000000
         C            3.544317631086    -0.003724978052    -0.001781559041    12.000000000000
         C           -3.557168368914    -0.003727978052    -0.001769559041    12.000000000000
         H            0.902954631086     1.974938021948    -0.843448559041     1.007825032230
         H           -0.915815368914     1.974935021948     0.839931440959     1.007825032230
         H            0.902943631086    -1.982348978052     0.839954440959     1.007825032230
         H           -0.915783368914    -1.982350978052    -0.843475559041     1.007825032230
         H            3.382623631086     1.985095021948    -0.822732559041     1.007825032230
         H           -3.395484368914     1.985089021948     0.819191440959     1.007825032230
         H            3.382616631086    -1.992538978052     0.819183440959     1.007825032230
         H           -3.395458368914    -1.992541978052    -0.822731559041     1.007825032230
         H            4.631655631086    -0.003730978052    -0.001787559041     1.007825032230
         H           -4.644506368914    -0.003730978052    -0.001785559041     1.007825032230

  Basis Set: AUG-CC-PVTZ
    Blend: AUG-CC-PVTZ
  Basis Set: (AUG-CC-PVTZ AUX)
    Blend: AUG-CC-PVTZ-JKFIT
	 Reference Energy          =    -460.3857669214448833 [Eh]
	 Singles Energy            =      -0.0000000000000000 [Eh]
	 Same-Spin Energy          =      -0.5227356728295429 [Eh]
	 Opposite-Spin Energy      =      -1.6258406975221493 [Eh]
	 Correlation Energy        =      -2.1485763703516922 [Eh]
	 Total Energy              =    -462.5343432917965742 [Eh]

	 ================> DF-SCS-MP2 Energies <==================
	-----------------------------------------------------------
	 SCS Same-Spin Scale       =       0.3333333333333333 [-]
	 SCS Opposite-Spin Scale   =       1.2000000000000000 [-]
	 SCS Same-Spin Energy      =      -0.1742452242765143 [Eh]
	 SCS Opposite-Spin Energy  =      -1.9510088370265790 [Eh]
	 SCS Correlation Energy    =      -2.1252540613030932 [Eh]
	 SCS Total Energy          =    -462.5110209827479935 [Eh]
	-----------------------------------------------------------

  Dipole Moment: [D]
     X:     0.1368      Y:    -0.0086      Z:     0.0008     Total:     0.1370

*** Psi4 exiting successfully. Buy a developer a beer!
