                               Psi4 1.3.2 release

  ==> Input File <==

--------------------------------------------------------------------------
#psi4
#
memory 32 gb

molecule  {
0 1
  C        0.7388790     0.0000080     0.0000160
  C       -0.8690844    -0.0628899    -0.0261080
  C        1.4536770     1.1178580    -0.4583850
  C       -1.4536820     1.1178570     0.4583930
  C        1.4536730    -1.1178550     0.4583870
  C       -1.4536670    -1.1178570    -0.4583770
  C        2.8487180     1.1182580    -0.4560040
  C       -2.8487240     1.1182560     0.4559960
  C        2.8487140    -1.1182560     0.4560110
  C       -2.8487090    -1.1182580    -0.4560170
  C        3.5507430    -0.0000070    -0.0000130
  C       -3.5507430    -0.0000100    -0.0000010
  H        0.9093800     1.9786560    -0.8416800
  H       -0.9093900     1.9786530     0.8417000
  H        0.9093690    -1.9786310     0.8417230
  H       -0.9093580    -1.9786330    -0.8417070
  H        3.3890490     1.9888130    -0.8209640
  H       -3.3890590     1.9888070     0.8209600
  H        3.3890420    -1.9888210     0.8209520
  H       -3.3890330    -1.9888240    -0.8209630
  H        4.6380810    -0.0000130    -0.0000190
  H       -4.6380810    -0.0000130    -0.0000170
units angstrom
no_reorient  #important for SAPT in psi4, default
symmetry c1  #important for SAPT in psi4, default
}

set PROPERTIES_ORIGIN ["COM"]
properties('MP2/aug-cc-pvtz', properties = ['dipole'])
--------------------------------------------------------------------------

    Molecular point group: c1
  Charge       = 0
  Multiplicity = 1
  Basis Set: AUG-CC-PVTZ
    Blend: AUG-CC-PVTZ
  Basis Set: (AUG-CC-PVTZ AUX)
    Blend: AUG-CC-PVTZ-JKFIT

    Orbital Energies [Eh]
    ---------------------

    Doubly Occupied:

       1A    -11.249919     2A    -11.242143     3A    -11.240391
       4A    -11.239671     5A    -11.237438     6A    -11.237256
       7A    -11.236518     8A    -11.235582     9A    -11.234812
      10A    -11.233812    11A    -11.233187    12A    -11.222867
      13A     -1.175292    14A     -1.143433    15A     -1.046078
      16A     -1.024696    17A     -1.011500    18A     -0.986037
      19A     -0.845627    20A     -0.837006    21A     -0.815292
      22A     -0.790459    23A     -0.718152    24A     -0.681228
      25A     -0.644916    26A     -0.639925    27A     -0.618200
      28A     -0.613957    29A     -0.595966    30A     -0.583312
      31A     -0.575176    32A     -0.521174    33A     -0.520506
      34A     -0.509995    35A     -0.495551    36A     -0.489371
      37A     -0.452779    38A     -0.365307    39A     -0.341235
      40A     -0.336170    41A     -0.312469

  @DF-RHF Final Energy:  -460.37622194837888

   => Energetics <=

    Nuclear Repulsion Energy =            599.5353585142595421
    One-Electron Energy =               -1810.7543524449222332
    Two-Electron Energy =                 750.8427719822838071
    Total Energy =                       -460.3762219483788840
  Basis Set: (AUG-CC-PVTZ AUX)
    Blend: AUG-CC-PVTZ-RI
    Molecular point group: c1

    Geometry (in Angstrom), charge = 0, multiplicity = 1:

       Center              X                  Y                   Z               Mass
    ------------   -----------------  -----------------  -----------------  -----------------
         C            0.749019722631     0.004906529451     0.002048987243    12.000000000000
         C           -0.858943677369    -0.057991370549    -0.024075012757    12.000000000000
         C            1.463817722631     1.122756529451    -0.456352012757    12.000000000000
         C           -1.443541277369     1.122755529451     0.460425987243    12.000000000000
         C            1.463813722631    -1.112956470549     0.460419987243    12.000000000000
         C           -1.443526277369    -1.112958470549    -0.456344012757    12.000000000000
         C            2.858858722631     1.123156529451    -0.453971012757    12.000000000000
         C           -2.838583277369     1.123154529451     0.458028987243    12.000000000000
         C            2.858854722631    -1.113357470549     0.458043987243    12.000000000000
         C           -2.838568277369    -1.113359470549    -0.453984012757    12.000000000000
         C            3.560883722631     0.004891529451     0.002019987243    12.000000000000
         C           -3.540602277369     0.004888529451     0.002031987243    12.000000000000
         H            0.919520722631     1.983554529451    -0.839647012757     1.007825032230
         H           -0.899249277369     1.983551529451     0.843732987243     1.007825032230
         H            0.919509722631    -1.973732470549     0.843755987243     1.007825032230
         H           -0.899217277369    -1.973734470549    -0.839674012757     1.007825032230
         H            3.399189722631     1.993711529451    -0.818931012757     1.007825032230
         H           -3.378918277369     1.993705529451     0.822992987243     1.007825032230
         H            3.399182722631    -1.983922470549     0.822984987243     1.007825032230
         H           -3.378892277369    -1.983925470549    -0.818930012757     1.007825032230
         H            4.648221722631     0.004885529451     0.002013987243     1.007825032230
         H           -4.627940277369     0.004885529451     0.002015987243     1.007825032230

  Basis Set: AUG-CC-PVTZ
    Blend: AUG-CC-PVTZ
  Basis Set: (AUG-CC-PVTZ AUX)
    Blend: AUG-CC-PVTZ-JKFIT
	 Reference Energy          =    -460.3762219483788840 [Eh]
	 Singles Energy            =      -0.0000000000000000 [Eh]
	 Same-Spin Energy          =      -0.5204323176850845 [Eh]
	 Opposite-Spin Energy      =      -1.6224647862671966 [Eh]
	 Correlation Energy        =      -2.1428971039522811 [Eh]
	 Total Energy              =    -462.5191190523311775 [Eh]

	 ================> DF-SCS-MP2 Energies <==================
	-----------------------------------------------------------
	 SCS Same-Spin Scale       =       0.3333333333333333 [-]
	 SCS Opposite-Spin Scale   =       1.2000000000000000 [-]
	 SCS Same-Spin Energy      =      -0.1734774392283615 [Eh]
	 SCS Opposite-Spin Energy  =      -1.9469577435206358 [Eh]
	 SCS Correlation Energy    =      -2.1204351827489973 [Eh]
	 SCS Total Energy          =    -462.4966571311279040 [Eh]
	-----------------------------------------------------------

  Dipole Moment: [D]
     X:    -0.2154      Y:     0.0101      Z:    -0.0040     Total:     0.2157

*** Psi4 exiting successfully. Buy a developer a beer!
