                               Psi4 1.3.2 release

  ==> Input File <==

--------------------------------------------------------------------------
#psi4
#
memory 32 gb

molecule  {
0 1
  C        0.7388790     0.0000080     0.0000160
  C       -0.6971494     0.0237323     0.0098305
  C        1.4536770     1.1178580    -0.4583850
  C       -1.4536820     1.1178570     0.4583930
  C        1.4536730    -1.1178550     0.4583870
  C       -1.4536670    -1.1178570    -0.4583770
  C        2.8487180     1.1182580    -0.4560040
  C       -2.8487240     1.1182560     0.4559960
  C        2.8487140    -1.1182560     0.4560110
  C       -2.8487090    -1.1182580    -0.4560170
  C        3.5507430    -0.0000070    -0.0000130
  C       -3.5507430    -0.0000100    -0.0000010
  H        0.9093800     1.9786560    -0.8416800
  H       -0.9093900     1.9786530     0.8417000
  H        0.9093690    -1.9786310     0.8417230
  H       -0.9093580    -1.9786330    -0.8417070
  H        3.3890490     1.9888130    -0.8209640
  H       -3.3890590     1.9888070     0.8209600
  H        3.3890420    -1.9888210     0.8209520
  H       -3.3890330    -1.9888240    -0.8209630
  H        4.6380810    -0.0000130    -0.0000190
  H       -4.6380810    -0.0000130    -0.0000170
units angstrom
no_reorient  #important for SAPT in psi4, default
symmetry c1  #important for SAPT in psi4, default
}

set PROPERTIES_ORIGIN ["COM"]
properties('MP2/aug-cc-pvtz', properties = ['dipole'])
--------------------------------------------------------------------------

    Molecular point group: c1
  Charge       = 0
  Multiplicity = 1
  Basis Set: AUG-CC-PVTZ
    Blend: AUG-CC-PVTZ
  Basis Set: (AUG-CC-PVTZ AUX)
    Blend: AUG-CC-PVTZ-JKFIT

    Orbital Energies [Eh]
    ---------------------

    Doubly Occupied:

       1A    -11.248885     2A    -11.245261     3A    -11.241266
       4A    -11.239802     5A    -11.239382     6A    -11.238979
       7A    -11.238302     8A    -11.237913     9A    -11.237427
      10A    -11.237063    11A    -11.236989    12A    -11.236620
      13A     -1.170359    14A     -1.138491    15A     -1.058211
      16A     -1.019077    17A     -1.010410    18A     -0.979838
      19A     -0.857261    20A     -0.841568    21A     -0.810541
      22A     -0.788277    23A     -0.718000    24A     -0.681485
      25A     -0.658184    26A     -0.639940    27A     -0.616193
      28A     -0.607941    29A     -0.590068    30A     -0.586731
      31A     -0.581676    32A     -0.521948    33A     -0.515303
      34A     -0.503669    35A     -0.492172    36A     -0.489078
      37A     -0.479447    38A     -0.367919    39A     -0.339842
      40A     -0.337377    41A     -0.299884

  @DF-RHF Final Energy:  -460.39599928358939

   => Energetics <=

    Nuclear Repulsion Energy =            599.3644974708067821
    One-Electron Energy =               -1810.3634389804788043
    Two-Electron Energy =                 750.6029422260826323
    Total Energy =                       -460.3959992835893900
  Basis Set: (AUG-CC-PVTZ AUX)
    Blend: AUG-CC-PVTZ-RI
    Molecular point group: c1

    Geometry (in Angstrom), charge = 0, multiplicity = 1:

       Center              X                  Y                   Z               Mass
    ------------   -----------------  -----------------  -----------------  -----------------
         C            0.735628994247    -0.001839824417    -0.000749993139    12.000000000000
         C           -0.700399405753     0.021884475583     0.009064506861    12.000000000000
         C            1.450426994247     1.116010175583    -0.459150993139    12.000000000000
         C           -1.456932005753     1.116009175583     0.457627006861    12.000000000000
         C            1.450422994247    -1.119702824417     0.457621006861    12.000000000000
         C           -1.456917005753    -1.119704824417    -0.459142993139    12.000000000000
         C            2.845467994247     1.116410175583    -0.456769993139    12.000000000000
         C           -2.851974005753     1.116408175583     0.455230006861    12.000000000000
         C            2.845463994247    -1.120103824417     0.455245006861    12.000000000000
         C           -2.851959005753    -1.120105824417    -0.456782993139    12.000000000000
         C            3.547492994247    -0.001854824417    -0.000778993139    12.000000000000
         C           -3.553993005753    -0.001857824417    -0.000766993139    12.000000000000
         H            0.906129994247     1.976808175583    -0.842445993139     1.007825032230
         H           -0.912640005753     1.976805175583     0.840934006861     1.007825032230
         H            0.906118994247    -1.980478824417     0.840957006861     1.007825032230
         H           -0.912608005753    -1.980480824417    -0.842472993139     1.007825032230
         H            3.385798994247     1.986965175583    -0.821729993139     1.007825032230
         H           -3.392309005753     1.986959175583     0.820194006861     1.007825032230
         H            3.385791994247    -1.990668824417     0.820186006861     1.007825032230
         H           -3.392283005753    -1.990671824417    -0.821728993139     1.007825032230
         H            4.634830994247    -0.001860824417    -0.000784993139     1.007825032230
         H           -4.641331005753    -0.001860824417    -0.000782993139     1.007825032230

  Basis Set: AUG-CC-PVTZ
    Blend: AUG-CC-PVTZ
  Basis Set: (AUG-CC-PVTZ AUX)
    Blend: AUG-CC-PVTZ-JKFIT
	 Reference Energy          =    -460.3959992835893900 [Eh]
	 Singles Energy            =      -0.0000000000000000 [Eh]
	 Same-Spin Energy          =      -0.5219302790313615 [Eh]
	 Opposite-Spin Energy      =      -1.6243358075066638 [Eh]
	 Correlation Energy        =      -2.1462660865380254 [Eh]
	 Total Energy              =    -462.5422653701274385 [Eh]

	 ================> DF-SCS-MP2 Energies <==================
	-----------------------------------------------------------
	 SCS Same-Spin Scale       =       0.3333333333333333 [-]
	 SCS Opposite-Spin Scale   =       1.2000000000000000 [-]
	 SCS Same-Spin Energy      =      -0.1739767596771205 [Eh]
	 SCS Opposite-Spin Energy  =      -1.9492029690079966 [Eh]
	 SCS Correlation Energy    =      -2.1231797286851171 [Eh]
	 SCS Total Energy          =    -462.5191790122744919 [Eh]
	-----------------------------------------------------------

  Dipole Moment: [D]
     X:     0.0676      Y:    -0.0044      Z:     0.0008     Total:     0.0677

*** Psi4 exiting successfully. Buy a developer a beer!
