                               Psi4 1.3.2 release

  ==> Input File <==

--------------------------------------------------------------------------
#psi4
#
memory 32 gb

molecule  {
0 1
  C        0.7379785     0.0477247     0.0195835
  C       -0.7388790     0.0000070    -0.0000030
  C        1.4536770     1.1178580    -0.4583850
  C       -1.4536820     1.1178570     0.4583930
  C        1.4536730    -1.1178550     0.4583870
  C       -1.4536670    -1.1178570    -0.4583770
  C        2.8487180     1.1182580    -0.4560040
  C       -2.8487240     1.1182560     0.4559960
  C        2.8487140    -1.1182560     0.4560110
  C       -2.8487090    -1.1182580    -0.4560170
  C        3.5507430    -0.0000070    -0.0000130
  C       -3.5507430    -0.0000100    -0.0000010
  H        0.9093800     1.9786560    -0.8416800
  H       -0.9093900     1.9786530     0.8417000
  H        0.9093690    -1.9786310     0.8417230
  H       -0.9093580    -1.9786330    -0.8417070
  H        3.3890490     1.9888130    -0.8209640
  H       -3.3890590     1.9888070     0.8209600
  H        3.3890420    -1.9888210     0.8209520
  H       -3.3890330    -1.9888240    -0.8209630
  H        4.6380810    -0.0000130    -0.0000190
  H       -4.6380810    -0.0000130    -0.0000170
units angstrom
no_reorient  #important for SAPT in psi4, default
symmetry c1  #important for SAPT in psi4, default
}

set PROPERTIES_ORIGIN ["COM"]
properties('MP2/aug-cc-pvtz', properties = ['dipole'])
--------------------------------------------------------------------------

    Molecular point group: c1
  Charge       = 0
  Multiplicity = 1
  Basis Set: AUG-CC-PVTZ
    Blend: AUG-CC-PVTZ
  Basis Set: (AUG-CC-PVTZ AUX)
    Blend: AUG-CC-PVTZ-JKFIT

    Orbital Energies [Eh]
    ---------------------

    Doubly Occupied:

       1A    -11.247531     2A    -11.246768     3A    -11.240123
       4A    -11.239375     5A    -11.239065     6A    -11.238559
       7A    -11.238303     8A    -11.237520     9A    -11.236553
      10A    -11.236494    11A    -11.235834    12A    -11.233783
      13A     -1.169605    14A     -1.140429    15A     -1.054196
      16A     -1.019413    17A     -1.011464    18A     -0.981867
      19A     -0.852294    20A     -0.841456    21A     -0.812185
      22A     -0.789018    23A     -0.717606    24A     -0.681447
      25A     -0.654421    26A     -0.639076    27A     -0.616588
      28A     -0.609150    29A     -0.591132    30A     -0.585116
      31A     -0.581981    32A     -0.521720    33A     -0.515279
      34A     -0.504164    35A     -0.490902    36A     -0.489189
      37A     -0.479226    38A     -0.366792    39A     -0.339455
      40A     -0.337582    41A     -0.303725

  @DF-RHF Final Energy:  -460.39817622569353

   => Energetics <=

    Nuclear Repulsion Energy =            599.3392957163233632
    One-Electron Energy =               -1810.3421703924195754
    Two-Electron Energy =                 750.6046984504027932
    Total Energy =                       -460.3981762256935326
  Basis Set: (AUG-CC-PVTZ AUX)
    Blend: AUG-CC-PVTZ-RI
    Molecular point group: c1

    Geometry (in Angstrom), charge = 0, multiplicity = 1:

       Center              X                  Y                   Z               Mass
    ------------   -----------------  -----------------  -----------------  -----------------
         C            0.738048633195     0.044008365268     0.018059398564    12.000000000000
         C           -0.738808866805    -0.003709334732    -0.001527101436    12.000000000000
         C            1.453747133195     1.114141665268    -0.459909101436    12.000000000000
         C           -1.453611866805     1.114140665268     0.456868898564    12.000000000000
         C            1.453743133195    -1.121571334732     0.456862898564    12.000000000000
         C           -1.453596866805    -1.121573334732    -0.459901101436    12.000000000000
         C            2.848788133195     1.114541665268    -0.457528101436    12.000000000000
         C           -2.848653866805     1.114539665268     0.454471898564    12.000000000000
         C            2.848784133195    -1.121972334732     0.454486898564    12.000000000000
         C           -2.848638866805    -1.121974334732    -0.457541101436    12.000000000000
         C            3.550813133195    -0.003723334732    -0.001537101436    12.000000000000
         C           -3.550672866805    -0.003726334732    -0.001525101436    12.000000000000
         H            0.909450133195     1.974939665268    -0.843204101436     1.007825032230
         H           -0.909319866805     1.974936665268     0.840175898564     1.007825032230
         H            0.909439133195    -1.982347334732     0.840198898564     1.007825032230
         H           -0.909287866805    -1.982349334732    -0.843231101436     1.007825032230
         H            3.389119133195     1.985096665268    -0.822488101436     1.007825032230
         H           -3.388988866805     1.985090665268     0.819435898564     1.007825032230
         H            3.389112133195    -1.992537334732     0.819427898564     1.007825032230
         H           -3.388962866805    -1.992540334732    -0.822487101436     1.007825032230
         H            4.638151133195    -0.003729334732    -0.001543101436     1.007825032230
         H           -4.638010866805    -0.003729334732    -0.001541101436     1.007825032230

  Basis Set: AUG-CC-PVTZ
    Blend: AUG-CC-PVTZ
  Basis Set: (AUG-CC-PVTZ AUX)
    Blend: AUG-CC-PVTZ-JKFIT
	 Reference Energy          =    -460.3981762256935326 [Eh]
	 Singles Energy            =      -0.0000000000000000 [Eh]
	 Same-Spin Energy          =      -0.5212822408375423 [Eh]
	 Opposite-Spin Energy      =      -1.6233797320269057 [Eh]
	 Correlation Energy        =      -2.1446619728644478 [Eh]
	 Total Energy              =    -462.5428381985580017 [Eh]

	 ================> DF-SCS-MP2 Energies <==================
	-----------------------------------------------------------
	 SCS Same-Spin Scale       =       0.3333333333333333 [-]
	 SCS Opposite-Spin Scale   =       1.2000000000000000 [-]
	 SCS Same-Spin Energy      =      -0.1737607469458474 [Eh]
	 SCS Opposite-Spin Energy  =      -1.9480556784322867 [Eh]
	 SCS Correlation Energy    =      -2.1218164253781340 [Eh]
	 SCS Total Energy          =    -462.5199926510716750 [Eh]
	-----------------------------------------------------------

  Dipole Moment: [D]
     X:     0.0010      Y:    -0.0091      Z:    -0.0080     Total:     0.0121

*** Psi4 exiting successfully. Buy a developer a beer!
