                               Psi4 1.3.2 release

  ==> Input File <==

--------------------------------------------------------------------------
#psi4
#
memory 32 gb

molecule  {
0 1
  C        0.7388790     0.0000080     0.0000160
  C       -0.7179113     0.0114395     0.0054684
  C        1.4536770     1.1178580    -0.4583850
  C       -1.4536820     1.1178570     0.4583930
  C        1.4536730    -1.1178550     0.4583870
  C       -1.4536670    -1.1178570    -0.4583770
  C        2.8487180     1.1182580    -0.4560040
  C       -2.8487240     1.1182560     0.4559960
  C        2.8487140    -1.1182560     0.4560110
  C       -2.8487090    -1.1182580    -0.4560170
  C        3.5507430    -0.0000070    -0.0000130
  C       -3.5507430    -0.0000100    -0.0000010
  H        0.9093800     1.9786560    -0.8416800
  H       -0.9093900     1.9786530     0.8417000
  H        0.9093690    -1.9786310     0.8417230
  H       -0.9093580    -1.9786330    -0.8417070
  H        3.3890490     1.9888130    -0.8209640
  H       -3.3890590     1.9888070     0.8209600
  H        3.3890420    -1.9888210     0.8209520
  H       -3.3890330    -1.9888240    -0.8209630
  H        4.6380810    -0.0000130    -0.0000190
  H       -4.6380810    -0.0000130    -0.0000170
units angstrom
no_reorient  #important for SAPT in psi4, default
symmetry c1  #important for SAPT in psi4, default
}

set PROPERTIES_ORIGIN ["COM"]
properties('MP2/aug-cc-pvtz', properties = ['dipole'])
--------------------------------------------------------------------------

    Molecular point group: c1
  Charge       = 0
  Multiplicity = 1
  Basis Set: AUG-CC-PVTZ
    Blend: AUG-CC-PVTZ
  Basis Set: (AUG-CC-PVTZ AUX)
    Blend: AUG-CC-PVTZ-JKFIT

    Orbital Energies [Eh]
    ---------------------

    Doubly Occupied:

       1A    -11.248072     2A    -11.246157     3A    -11.239471
       4A    -11.239425     5A    -11.239113     6A    -11.238950
       7A    -11.238192     8A    -11.237343     9A    -11.237074
      10A    -11.236866    11A    -11.236724    12A    -11.236499
      13A     -1.169811    14A     -1.139470    15A     -1.056023
      16A     -1.019160    17A     -1.010899    18A     -0.980999
      19A     -0.854657    20A     -0.841567    21A     -0.811193
      22A     -0.788917    23A     -0.717791    24A     -0.681418
      25A     -0.656181    26A     -0.639523    27A     -0.616358
      28A     -0.608430    29A     -0.590254    30A     -0.585685
      31A     -0.582710    32A     -0.521793    33A     -0.515183
      34A     -0.503788    35A     -0.490128    36A     -0.488400
      37A     -0.482410    38A     -0.367065    39A     -0.339641
      40A     -0.337570    41A     -0.301896

  @DF-RHF Final Energy:  -460.39894281771296

   => Energetics <=

    Nuclear Repulsion Energy =            599.3524588816351297
    One-Electron Energy =               -1810.3571897543718023
    Two-Electron Energy =                 750.6057880550237087
    Total Energy =                       -460.3989428177129639
  Basis Set: (AUG-CC-PVTZ AUX)
    Blend: AUG-CC-PVTZ-RI
    Molecular point group: c1

    Geometry (in Angstrom), charge = 0, multiplicity = 1:

       Center              X                  Y                   Z               Mass
    ------------   -----------------  -----------------  -----------------  -----------------
         C            0.737245983014    -0.000882430367    -0.000410261867    12.000000000000
         C           -0.719544316986     0.010549069633     0.005042138133    12.000000000000
         C            1.452043983014     1.116967569633    -0.458811261867    12.000000000000
         C           -1.455315016986     1.116966569633     0.457966738133    12.000000000000
         C            1.452039983014    -1.118745430367     0.457960738133    12.000000000000
         C           -1.455300016986    -1.118747430367    -0.458803261867    12.000000000000
         C            2.847084983014     1.117367569633    -0.456430261867    12.000000000000
         C           -2.850357016986     1.117365569633     0.455569738133    12.000000000000
         C            2.847080983014    -1.119146430367     0.455584738133    12.000000000000
         C           -2.850342016986    -1.119148430367    -0.456443261867    12.000000000000
         C            3.549109983014    -0.000897430367    -0.000439261867    12.000000000000
         C           -3.552376016986    -0.000900430367    -0.000427261867    12.000000000000
         H            0.907746983014     1.977765569633    -0.842106261867     1.007825032230
         H           -0.911023016986     1.977762569633     0.841273738133     1.007825032230
         H            0.907735983014    -1.979521430367     0.841296738133     1.007825032230
         H           -0.910991016986    -1.979523430367    -0.842133261867     1.007825032230
         H            3.387415983014     1.987922569633    -0.821390261867     1.007825032230
         H           -3.390692016986     1.987916569633     0.820533738133     1.007825032230
         H            3.387408983014    -1.989711430367     0.820525738133     1.007825032230
         H           -3.390666016986    -1.989714430367    -0.821389261867     1.007825032230
         H            4.636447983014    -0.000903430367    -0.000445261867     1.007825032230
         H           -4.639714016986    -0.000903430367    -0.000443261867     1.007825032230

  Basis Set: AUG-CC-PVTZ
    Blend: AUG-CC-PVTZ
  Basis Set: (AUG-CC-PVTZ AUX)
    Blend: AUG-CC-PVTZ-JKFIT
	 Reference Energy          =    -460.3989428177129639 [Eh]
	 Singles Energy            =      -0.0000000000000000 [Eh]
	 Same-Spin Energy          =      -0.5215887850812069 [Eh]
	 Opposite-Spin Energy      =      -1.6237320390844372 [Eh]
	 Correlation Energy        =      -2.1453208241656441 [Eh]
	 Total Energy              =    -462.5442636418786151 [Eh]

	 ================> DF-SCS-MP2 Energies <==================
	-----------------------------------------------------------
	 SCS Same-Spin Scale       =       0.3333333333333333 [-]
	 SCS Opposite-Spin Scale   =       1.2000000000000000 [-]
	 SCS Same-Spin Energy      =      -0.1738629283604023 [Eh]
	 SCS Opposite-Spin Energy  =      -1.9484784469013245 [Eh]
	 SCS Correlation Energy    =      -2.1223413752617271 [Eh]
	 SCS Total Energy          =    -462.5212841929746901 [Eh]
	-----------------------------------------------------------

  Dipole Moment: [D]
     X:     0.0337      Y:    -0.0021      Z:     0.0003     Total:     0.0337

*** Psi4 exiting successfully. Buy a developer a beer!
