                               Psi4 1.3.2 release

  ==> Input File <==

--------------------------------------------------------------------------
#psi4
#
memory 32 gb

molecule  {
0 1
  C        0.7352798    -0.0953673    -0.0390953
  C       -0.7388790     0.0000070    -0.0000030
  C        1.4536770     1.1178580    -0.4583850
  C       -1.4536820     1.1178570     0.4583930
  C        1.4536730    -1.1178550     0.4583870
  C       -1.4536670    -1.1178570    -0.4583770
  C        2.8487180     1.1182580    -0.4560040
  C       -2.8487240     1.1182560     0.4559960
  C        2.8487140    -1.1182560     0.4560110
  C       -2.8487090    -1.1182580    -0.4560170
  C        3.5507430    -0.0000070    -0.0000130
  C       -3.5507430    -0.0000100    -0.0000010
  H        0.9093800     1.9786560    -0.8416800
  H       -0.9093900     1.9786530     0.8417000
  H        0.9093690    -1.9786310     0.8417230
  H       -0.9093580    -1.9786330    -0.8417070
  H        3.3890490     1.9888130    -0.8209640
  H       -3.3890590     1.9888070     0.8209600
  H        3.3890420    -1.9888210     0.8209520
  H       -3.3890330    -1.9888240    -0.8209630
  H        4.6380810    -0.0000130    -0.0000190
  H       -4.6380810    -0.0000130    -0.0000170
units angstrom
no_reorient  #important for SAPT in psi4, default
symmetry c1  #important for SAPT in psi4, default
}

set PROPERTIES_ORIGIN ["COM"]
properties('MP2/aug-cc-pvtz', properties = ['dipole'])
--------------------------------------------------------------------------

    Molecular point group: c1
  Charge       = 0
  Multiplicity = 1
  Basis Set: AUG-CC-PVTZ
    Blend: AUG-CC-PVTZ
  Basis Set: (AUG-CC-PVTZ AUX)
    Blend: AUG-CC-PVTZ-JKFIT

    Orbital Energies [Eh]
    ---------------------

    Doubly Occupied:

       1A    -11.247680     2A    -11.246873     3A    -11.242893
       4A    -11.239806     5A    -11.239174     6A    -11.238372
       7A    -11.238206     8A    -11.238142     9A    -11.236781
      10A    -11.236430    11A    -11.235046    12A    -11.230931
      13A     -1.169795    14A     -1.140515    15A     -1.054900
      16A     -1.019376    17A     -1.011799    18A     -0.981298
      19A     -0.852817    20A     -0.840894    21A     -0.812989
      22A     -0.787866    23A     -0.717500    24A     -0.681694
      25A     -0.654912    26A     -0.638787    27A     -0.616787
      28A     -0.609370    29A     -0.591860    30A     -0.585631
      31A     -0.579594    32A     -0.521919    33A     -0.515425
      34A     -0.504350    35A     -0.492747    36A     -0.490730
      37A     -0.472778    38A     -0.368213    39A     -0.339229
      40A     -0.337247    41A     -0.303468

  @DF-RHF Final Energy:  -460.39160832538067

   => Energetics <=

    Nuclear Repulsion Energy =            599.3079148617783858
    One-Electron Energy =               -1810.2693936786190534
    Two-Electron Energy =                 750.5698704914599375
    Total Energy =                       -460.3916083253806164
  Basis Set: (AUG-CC-PVTZ AUX)
    Blend: AUG-CC-PVTZ-RI
    Molecular point group: c1

    Geometry (in Angstrom), charge = 0, multiplicity = 1:

       Center              X                  Y                   Z               Mass
    ------------   -----------------  -----------------  -----------------  -----------------
         C            0.735560114710    -0.087939271420    -0.036049349540    12.000000000000
         C           -0.738598685290     0.007435028580     0.003042950460    12.000000000000
         C            1.453957314710     1.125286028580    -0.455339049540    12.000000000000
         C           -1.453401685290     1.125285028580     0.461438950460    12.000000000000
         C            1.453953314710    -1.110426971420     0.461432950460    12.000000000000
         C           -1.453386685290    -1.110428971420    -0.455331049540    12.000000000000
         C            2.848998314710     1.125686028580    -0.452958049540    12.000000000000
         C           -2.848443685290     1.125684028580     0.459041950460    12.000000000000
         C            2.848994314710    -1.110827971420     0.459056950460    12.000000000000
         C           -2.848428685290    -1.110829971420    -0.452971049540    12.000000000000
         C            3.551023314710     0.007421028580     0.003032950460    12.000000000000
         C           -3.550462685290     0.007418028580     0.003044950460    12.000000000000
         H            0.909660314710     1.986084028580    -0.838634049540     1.007825032230
         H           -0.909109685290     1.986081028580     0.844745950460     1.007825032230
         H            0.909649314710    -1.971202971420     0.844768950460     1.007825032230
         H           -0.909077685290    -1.971204971420    -0.838661049540     1.007825032230
         H            3.389329314710     1.996241028580    -0.817918049540     1.007825032230
         H           -3.388778685290     1.996235028580     0.824005950460     1.007825032230
         H            3.389322314710    -1.981392971420     0.823997950460     1.007825032230
         H           -3.388752685290    -1.981395971420    -0.817917049540     1.007825032230
         H            4.638361314710     0.007415028580     0.003026950460     1.007825032230
         H           -4.637800685290     0.007415028580     0.003028950460     1.007825032230

  Basis Set: AUG-CC-PVTZ
    Blend: AUG-CC-PVTZ
  Basis Set: (AUG-CC-PVTZ AUX)
    Blend: AUG-CC-PVTZ-JKFIT
	 Reference Energy          =    -460.3916083253806733 [Eh]
	 Singles Energy            =      -0.0000000000000000 [Eh]
	 Same-Spin Energy          =      -0.5212689385615858 [Eh]
	 Opposite-Spin Energy      =      -1.6238217432532760 [Eh]
	 Correlation Energy        =      -2.1450906818148621 [Eh]
	 Total Energy              =    -462.5366990071955229 [Eh]

	 ================> DF-SCS-MP2 Energies <==================
	-----------------------------------------------------------
	 SCS Same-Spin Scale       =       0.3333333333333333 [-]
	 SCS Opposite-Spin Scale   =       1.2000000000000000 [-]
	 SCS Same-Spin Energy      =      -0.1737563128538619 [Eh]
	 SCS Opposite-Spin Energy  =      -1.9485860919039311 [Eh]
	 SCS Correlation Energy    =      -2.1223424047577932 [Eh]
	 SCS Total Energy          =    -462.5139507301384469 [Eh]
	-----------------------------------------------------------

  Dipole Moment: [D]
     X:     0.0041      Y:     0.0173      Z:     0.0160     Total:     0.0240

*** Psi4 exiting successfully. Buy a developer a beer!
