                               Psi4 1.3.2 release

  ==> Input File <==

--------------------------------------------------------------------------
#psi4
#
memory 32 gb

molecule  {
0 1
  C        0.7388790     0.0000080     0.0000160
  C       -0.9388790     0.0000069    -0.0000056
  C        1.4536770     1.1178580    -0.4583850
  C       -1.4536820     1.1178570     0.4583930
  C        1.4536730    -1.1178550     0.4583870
  C       -1.4536670    -1.1178570    -0.4583770
  C        2.8487180     1.1182580    -0.4560040
  C       -2.8487240     1.1182560     0.4559960
  C        2.8487140    -1.1182560     0.4560110
  C       -2.8487090    -1.1182580    -0.4560170
  C        3.5507430    -0.0000070    -0.0000130
  C       -3.5507430    -0.0000100    -0.0000010
  H        0.9093800     1.9786560    -0.8416800
  H       -0.9093900     1.9786530     0.8417000
  H        0.9093690    -1.9786310     0.8417230
  H       -0.9093580    -1.9786330    -0.8417070
  H        3.3890490     1.9888130    -0.8209640
  H       -3.3890590     1.9888070     0.8209600
  H        3.3890420    -1.9888210     0.8209520
  H       -3.3890330    -1.9888240    -0.8209630
  H        4.6380810    -0.0000130    -0.0000190
  H       -4.6380810    -0.0000130    -0.0000170
units angstrom
no_reorient  #important for SAPT in psi4, default
symmetry c1  #important for SAPT in psi4, default
}

set PROPERTIES_ORIGIN ["COM"]
properties('MP2/aug-cc-pvtz', properties = ['dipole'])
--------------------------------------------------------------------------

    Molecular point group: c1
  Charge       = 0
  Multiplicity = 1
  Basis Set: AUG-CC-PVTZ
    Blend: AUG-CC-PVTZ
  Basis Set: (AUG-CC-PVTZ AUX)
    Blend: AUG-CC-PVTZ-JKFIT

    Orbital Energies [Eh]
    ---------------------

    Doubly Occupied:

       1A    -11.248992     2A    -11.242400     3A    -11.241322
       4A    -11.241215     5A    -11.235575     6A    -11.235382
       7A    -11.235185     8A    -11.232288     9A    -11.232209
      10A    -11.231944    11A    -11.228930    12A    -11.228792
      13A     -1.181142    14A     -1.142603    15A     -1.039871
      16A     -1.032176    17A     -1.010128    18A     -0.987647
      19A     -0.846800    20A     -0.832746    21A     -0.814967
      22A     -0.792310    23A     -0.719209    24A     -0.680399
      25A     -0.645567    26A     -0.641145    27A     -0.617901
      28A     -0.616708    29A     -0.596610    30A     -0.581873
      31A     -0.572041    32A     -0.525320    33A     -0.520285
      34A     -0.514948    35A     -0.495188    36A     -0.488263
      37A     -0.435601    38A     -0.361794    39A     -0.344408
      40A     -0.334686    41A     -0.316004

  @DF-RHF Final Energy:  -460.36054607621281

   => Energetics <=

    Nuclear Repulsion Energy =            599.6718481224710331
    One-Electron Energy =               -1811.0196382983499461
    Two-Electron Energy =                 750.9872440996659861
    Total Energy =                       -460.3605460762128132
  Basis Set: (AUG-CC-PVTZ AUX)
    Blend: AUG-CC-PVTZ-RI
    Molecular point group: c1

    Geometry (in Angstrom), charge = 0, multiplicity = 1:

       Center              X                  Y                   Z               Mass
    ------------   -----------------  -----------------  -----------------  -----------------
         C            0.754455500869     0.000007969152     0.000016066962    12.000000000000
         C           -0.923302499131     0.000006869152    -0.000005533038    12.000000000000
         C            1.469253500869     1.117857969152    -0.458384933038    12.000000000000
         C           -1.438105499131     1.117856969152     0.458393066962    12.000000000000
         C            1.469249500869    -1.117855030848     0.458387066962    12.000000000000
         C           -1.438090499131    -1.117857030848    -0.458376933038    12.000000000000
         C            2.864294500869     1.118257969152    -0.456003933038    12.000000000000
         C           -2.833147499131     1.118255969152     0.455996066962    12.000000000000
         C            2.864290500869    -1.118256030848     0.456011066962    12.000000000000
         C           -2.833132499131    -1.118258030848    -0.456016933038    12.000000000000
         C            3.566319500869    -0.000007030848    -0.000012933038    12.000000000000
         C           -3.535166499131    -0.000010030848    -0.000000933038    12.000000000000
         H            0.924956500869     1.978655969152    -0.841679933038     1.007825032230
         H           -0.893813499131     1.978652969152     0.841700066962     1.007825032230
         H            0.924945500869    -1.978631030848     0.841723066962     1.007825032230
         H           -0.893781499131    -1.978633030848    -0.841706933038     1.007825032230
         H            3.404625500869     1.988812969152    -0.820963933038     1.007825032230
         H           -3.373482499131     1.988806969152     0.820960066962     1.007825032230
         H            3.404618500869    -1.988821030848     0.820952066962     1.007825032230
         H           -3.373456499131    -1.988824030848    -0.820962933038     1.007825032230
         H            4.653657500869    -0.000013030848    -0.000018933038     1.007825032230
         H           -4.622504499131    -0.000013030848    -0.000016933038     1.007825032230

  Basis Set: AUG-CC-PVTZ
    Blend: AUG-CC-PVTZ
  Basis Set: (AUG-CC-PVTZ AUX)
    Blend: AUG-CC-PVTZ-JKFIT
	 Reference Energy          =    -460.3605460762128132 [Eh]
	 Singles Energy            =      -0.0000000000000000 [Eh]
	 Same-Spin Energy          =      -0.5210708501516635 [Eh]
	 Opposite-Spin Energy      =      -1.6231653461840596 [Eh]
	 Correlation Energy        =      -2.1442361963357230 [Eh]
	 Total Energy              =    -462.5047822725485389 [Eh]

	 ================> DF-SCS-MP2 Energies <==================
	-----------------------------------------------------------
	 SCS Same-Spin Scale       =       0.3333333333333333 [-]
	 SCS Opposite-Spin Scale   =       1.2000000000000000 [-]
	 SCS Same-Spin Energy      =      -0.1736902833838878 [Eh]
	 SCS Opposite-Spin Energy  =      -1.9477984154208714 [Eh]
	 SCS Correlation Energy    =      -2.1214886988047592 [Eh]
	 SCS Total Energy          =    -462.4820347750175529 [Eh]
	-----------------------------------------------------------

  Dipole Moment: [D]
     X:    -0.3553      Y:     0.0000      Z:    -0.0000     Total:     0.3553

*** Psi4 exiting successfully. Buy a developer a beer!
