                               Psi4 1.3.2 release

  ==> Input File <==

--------------------------------------------------------------------------
#psi4
#
memory 32 gb

molecule  {
0 1
  C        0.7388790     0.0000080     0.0000160
  C       -0.7388790     0.0000070    -0.0000030
  C        1.5045958     1.1974883    -0.4910393
  C       -1.4536820     1.1178570     0.4583930
  C        1.4536730    -1.1178550     0.4583870
  C       -1.4536670    -1.1178570    -0.4583770
  C        2.8487180     1.1182580    -0.4560040
  C       -2.8487240     1.1182560     0.4559960
  C        2.8487140    -1.1182560     0.4560110
  C       -2.8487090    -1.1182580    -0.4560170
  C        3.5507430    -0.0000070    -0.0000130
  C       -3.5507430    -0.0000100    -0.0000010
  H        0.9093800     1.9786560    -0.8416800
  H       -0.9093900     1.9786530     0.8417000
  H        0.9093690    -1.9786310     0.8417230
  H       -0.9093580    -1.9786330    -0.8417070
  H        3.3890490     1.9888130    -0.8209640
  H       -3.3890590     1.9888070     0.8209600
  H        3.3890420    -1.9888210     0.8209520
  H       -3.3890330    -1.9888240    -0.8209630
  H        4.6380810    -0.0000130    -0.0000190
  H       -4.6380810    -0.0000130    -0.0000170
units angstrom
no_reorient  #important for SAPT in psi4, default
symmetry c1  #important for SAPT in psi4, default
}

set PROPERTIES_ORIGIN ["COM"]
properties('MP2/aug-cc-pvtz', properties = ['dipole'])
--------------------------------------------------------------------------

    Molecular point group: c1
  Charge       = 0
  Multiplicity = 1
  Basis Set: AUG-CC-PVTZ
    Blend: AUG-CC-PVTZ
  Basis Set: (AUG-CC-PVTZ AUX)
    Blend: AUG-CC-PVTZ-JKFIT

    Orbital Energies [Eh]
    ---------------------

    Doubly Occupied:

       1A    -11.256110     2A    -11.247829     3A    -11.239879
       4A    -11.239520     5A    -11.239233     6A    -11.237927
       7A    -11.237383     8A    -11.237179     9A    -11.236797
      10A    -11.236572    11A    -11.235838    12A    -11.233557
      13A     -1.166088    14A     -1.139416    15A     -1.051660
      16A     -1.024193    17A     -1.014200    18A     -0.976709
      19A     -0.855943    20A     -0.839424    21A     -0.811342
      22A     -0.787535    23A     -0.716572    24A     -0.685363
      25A     -0.658405    26A     -0.638749    27A     -0.617088
      28A     -0.607448    29A     -0.594499    30A     -0.585959
      31A     -0.579535    32A     -0.527144    33A     -0.513866
      34A     -0.503033    35A     -0.490615    36A     -0.489334
      37A     -0.472530    38A     -0.364430    39A     -0.345301
      40A     -0.338969    41A     -0.297814

  @DF-RHF Final Energy:  -460.38882621656899

   => Energetics <=

    Nuclear Repulsion Energy =            597.9740618875757718
    One-Electron Energy =               -1807.5838057125192790
    Two-Electron Energy =                 749.2209176083745206
    Total Energy =                       -460.3888262165689866
  Basis Set: (AUG-CC-PVTZ AUX)
    Blend: AUG-CC-PVTZ-RI
    Molecular point group: c1

    Geometry (in Angstrom), charge = 0, multiplicity = 1:

       Center              X                  Y                   Z               Mass
    ------------   -----------------  -----------------  -----------------  -----------------
         C            0.734913316338    -0.006193845822     0.002559063129    12.000000000000
         C           -0.742844683662    -0.006194845822     0.002540063129    12.000000000000
         C            1.500630116338     1.191286454178    -0.488496236871    12.000000000000
         C           -1.457647683662     1.111655154178     0.460936063129    12.000000000000
         C            1.449707316338    -1.124056845822     0.460930063129    12.000000000000
         C           -1.457632683662    -1.124058845822    -0.455833936871    12.000000000000
         C            2.844752316338     1.112056154178    -0.453460936871    12.000000000000
         C           -2.852689683662     1.112054154178     0.458539063129    12.000000000000
         C            2.844748316338    -1.124457845822     0.458554063129    12.000000000000
         C           -2.852674683662    -1.124459845822    -0.453473936871    12.000000000000
         C            3.546777316338    -0.006208845822     0.002530063129    12.000000000000
         C           -3.554708683662    -0.006211845822     0.002542063129    12.000000000000
         H            0.905414316338     1.972454154178    -0.839136936871     1.007825032230
         H           -0.913355683662     1.972451154178     0.844243063129     1.007825032230
         H            0.905403316338    -1.984832845822     0.844266063129     1.007825032230
         H           -0.913323683662    -1.984834845822    -0.839163936871     1.007825032230
         H            3.385083316338     1.982611154178    -0.818420936871     1.007825032230
         H           -3.393024683662     1.982605154178     0.823503063129     1.007825032230
         H            3.385076316338    -1.995022845822     0.823495063129     1.007825032230
         H           -3.392998683662    -1.995025845822    -0.818419936871     1.007825032230
         H            4.634115316338    -0.006214845822     0.002524063129     1.007825032230
         H           -4.642046683662    -0.006214845822     0.002526063129     1.007825032230

  Basis Set: AUG-CC-PVTZ
    Blend: AUG-CC-PVTZ
  Basis Set: (AUG-CC-PVTZ AUX)
    Blend: AUG-CC-PVTZ-JKFIT
	 Reference Energy          =    -460.3888262165689866 [Eh]
	 Singles Energy            =      -0.0000000000000000 [Eh]
	 Same-Spin Energy          =      -0.5211637131785859 [Eh]
	 Opposite-Spin Energy      =      -1.6238803734160694 [Eh]
	 Correlation Energy        =      -2.1450440865946554 [Eh]
	 Total Energy              =    -462.5338703031636669 [Eh]

	 ================> DF-SCS-MP2 Energies <==================
	-----------------------------------------------------------
	 SCS Same-Spin Scale       =       0.3333333333333333 [-]
	 SCS Opposite-Spin Scale   =       1.2000000000000000 [-]
	 SCS Same-Spin Energy      =      -0.1737212377261953 [Eh]
	 SCS Opposite-Spin Energy  =      -1.9486564480992832 [Eh]
	 SCS Correlation Energy    =      -2.1223776858254784 [Eh]
	 SCS Total Energy          =    -462.5112039023944703 [Eh]
	-----------------------------------------------------------

  Dipole Moment: [D]
     X:    -0.0374      Y:    -0.0105      Z:     0.0002     Total:     0.0388

*** Psi4 exiting successfully. Buy a developer a beer!
