                               Psi4 1.3.2 release

  ==> Input File <==

--------------------------------------------------------------------------
#psi4
#
memory 32 gb

molecule  {
0 1
  C        0.7388790     0.0000080     0.0000160
  C       -0.7600736    -0.0113467    -0.0047110
  C        1.4536770     1.1178580    -0.4583850
  C       -1.4536820     1.1178570     0.4583930
  C        1.4536730    -1.1178550     0.4583870
  C       -1.4536670    -1.1178570    -0.4583770
  C        2.8487180     1.1182580    -0.4560040
  C       -2.8487240     1.1182560     0.4559960
  C        2.8487140    -1.1182560     0.4560110
  C       -2.8487090    -1.1182580    -0.4560170
  C        3.5507430    -0.0000070    -0.0000130
  C       -3.5507430    -0.0000100    -0.0000010
  H        0.9093800     1.9786560    -0.8416800
  H       -0.9093900     1.9786530     0.8417000
  H        0.9093690    -1.9786310     0.8417230
  H       -0.9093580    -1.9786330    -0.8417070
  H        3.3890490     1.9888130    -0.8209640
  H       -3.3890590     1.9888070     0.8209600
  H        3.3890420    -1.9888210     0.8209520
  H       -3.3890330    -1.9888240    -0.8209630
  H        4.6380810    -0.0000130    -0.0000190
  H       -4.6380810    -0.0000130    -0.0000170
units angstrom
no_reorient  #important for SAPT in psi4, default
symmetry c1  #important for SAPT in psi4, default
}

set PROPERTIES_ORIGIN ["COM"]
properties('MP2/aug-cc-pvtz', properties = ['dipole'])
--------------------------------------------------------------------------

    Molecular point group: c1
  Charge       = 0
  Multiplicity = 1
  Basis Set: AUG-CC-PVTZ
    Blend: AUG-CC-PVTZ
  Basis Set: (AUG-CC-PVTZ AUX)
    Blend: AUG-CC-PVTZ-JKFIT

    Orbital Energies [Eh]
    ---------------------

    Doubly Occupied:

       1A    -11.247952     2A    -11.246166     3A    -11.239149
       4A    -11.238894     5A    -11.238777     6A    -11.238484
       7A    -11.236738     8A    -11.236489     9A    -11.236274
      10A    -11.236221    11A    -11.235901    12A    -11.234527
      13A     -1.169579    14A     -1.141253    15A     -1.052028
      16A     -1.019916    17A     -1.011700    18A     -0.983029
      19A     -0.849630    20A     -0.841831    21A     -0.812612
      22A     -0.789817    23A     -0.717553    24A     -0.681324
      25A     -0.652397    26A     -0.638927    27A     -0.616695
      28A     -0.609827    29A     -0.591636    30A     -0.583909
      31A     -0.582876    32A     -0.521529    33A     -0.515481
      34A     -0.504638    35A     -0.491925    36A     -0.486711
      37A     -0.480201    38A     -0.365630    39A     -0.339654
      40A     -0.337654    41A     -0.305620

  @DF-RHF Final Energy:  -460.40030963694477

   => Energetics <=

    Nuclear Repulsion Energy =            599.3563295433366420
    One-Electron Energy =               -1810.3909705920434590
    Two-Electron Energy =                 750.6343314117621048
    Total Energy =                       -460.4003096369447121
  Basis Set: (AUG-CC-PVTZ AUX)
    Blend: AUG-CC-PVTZ-RI
    Molecular point group: c1

    Geometry (in Angstrom), charge = 0, multiplicity = 1:

       Center              X                  Y                   Z               Mass
    ------------   -----------------  -----------------  -----------------  -----------------
         C            0.740529688527     0.000892215953     0.000382535298    12.000000000000
         C           -0.758422911473    -0.010462484047    -0.004344464702    12.000000000000
         C            1.455327688527     1.118742215953    -0.458018464702    12.000000000000
         C           -1.452031311473     1.118741215953     0.458759535298    12.000000000000
         C            1.455323688527    -1.116970784047     0.458753535298    12.000000000000
         C           -1.452016311473    -1.116972784047    -0.458010464702    12.000000000000
         C            2.850368688527     1.119142215953    -0.455637464702    12.000000000000
         C           -2.847073311473     1.119140215953     0.456362535298    12.000000000000
         C            2.850364688527    -1.117371784047     0.456377535298    12.000000000000
         C           -2.847058311473    -1.117373784047    -0.455650464702    12.000000000000
         C            3.552393688527     0.000877215953     0.000353535298    12.000000000000
         C           -3.549092311473     0.000874215953     0.000365535298    12.000000000000
         H            0.911030688527     1.979540215953    -0.841313464702     1.007825032230
         H           -0.907739311473     1.979537215953     0.842066535298     1.007825032230
         H            0.911019688527    -1.977746784047     0.842089535298     1.007825032230
         H           -0.907707311473    -1.977748784047    -0.841340464702     1.007825032230
         H            3.390699688527     1.989697215953    -0.820597464702     1.007825032230
         H           -3.387408311473     1.989691215953     0.821326535298     1.007825032230
         H            3.390692688527    -1.987936784047     0.821318535298     1.007825032230
         H           -3.387382311473    -1.987939784047    -0.820596464702     1.007825032230
         H            4.639731688527     0.000871215953     0.000347535298     1.007825032230
         H           -4.636430311473     0.000871215953     0.000349535298     1.007825032230

  Basis Set: AUG-CC-PVTZ
    Blend: AUG-CC-PVTZ
  Basis Set: (AUG-CC-PVTZ AUX)
    Blend: AUG-CC-PVTZ-JKFIT
	 Reference Energy          =    -460.4003096369447690 [Eh]
	 Singles Energy            =      -0.0000000000000000 [Eh]
	 Same-Spin Energy          =      -0.5210329179987798 [Eh]
	 Opposite-Spin Energy      =      -1.6228370379567323 [Eh]
	 Correlation Energy        =      -2.1438699559555121 [Eh]
	 Total Energy              =    -462.5441795929002637 [Eh]

	 ================> DF-SCS-MP2 Energies <==================
	-----------------------------------------------------------
	 SCS Same-Spin Scale       =       0.3333333333333333 [-]
	 SCS Opposite-Spin Scale   =       1.2000000000000000 [-]
	 SCS Same-Spin Energy      =      -0.1736776393329266 [Eh]
	 SCS Opposite-Spin Energy  =      -1.9474044455480786 [Eh]
	 SCS Correlation Energy    =      -2.1210820848810052 [Eh]
	 SCS Total Energy          =    -462.5213917218257507 [Eh]
	-----------------------------------------------------------

  Dipole Moment: [D]
     X:    -0.0337      Y:     0.0021      Z:    -0.0005     Total:     0.0338

*** Psi4 exiting successfully. Buy a developer a beer!
