                               Psi4 1.4a3.dev225

  ==> Input File <==

--------------------------------------------------------------------------
#psi4
#
memory 32 gb

molecule  {
0 1
  C        0.7388790     0.0000080     0.0000160
  C       -0.7388790     0.0000070    -0.0000030
  C        1.4791364     1.1576731    -0.4747121
  C       -1.4536820     1.1178570     0.4583930
  C        1.4536730    -1.1178550     0.4583870
  C       -1.4536670    -1.1178570    -0.4583770
  C        2.8487180     1.1182580    -0.4560040
  C       -2.8487240     1.1182560     0.4559960
  C        2.8487140    -1.1182560     0.4560110
  C       -2.8487090    -1.1182580    -0.4560170
  C        3.5507430    -0.0000070    -0.0000130
  C       -3.5507430    -0.0000100    -0.0000010
  H        0.9093800     1.9786560    -0.8416800
  H       -0.9093900     1.9786530     0.8417000
  H        0.9093690    -1.9786310     0.8417230
  H       -0.9093580    -1.9786330    -0.8417070
  H        3.3890490     1.9888130    -0.8209640
  H       -3.3890590     1.9888070     0.8209600
  H        3.3890420    -1.9888210     0.8209520
  H       -3.3890330    -1.9888240    -0.8209630
  H        4.6380810    -0.0000130    -0.0000190
  H       -4.6380810    -0.0000130    -0.0000170
units angstrom
no_reorient  #important for SAPT in psi4, default
symmetry c1  #important for SAPT in psi4, default
}

set PROPERTIES_ORIGIN ["COM"]
properties('MP2/aug-cc-pvtz', properties = ['dipole'])
--------------------------------------------------------------------------

    Molecular point group: c1
  Charge       = 0
  Multiplicity = 1
  Basis Set: AUG-CC-PVTZ
    Blend: AUG-CC-PVTZ
  Basis Set: (AUG-CC-PVTZ AUX)
    Blend: AUG-CC-PVTZ-JKFIT

    Orbital Energies [Eh]
    ---------------------

    Doubly Occupied:

       1A    -11.252036     2A    -11.247470     3A    -11.239355
       4A    -11.239313     5A    -11.239040     6A    -11.237744
       7A    -11.237115     8A    -11.236969     9A    -11.236807
      10A    -11.236583    11A    -11.236267    12A    -11.235531
      13A     -1.167574    14A     -1.139849    15A     -1.052571
      16A     -1.021518    17A     -1.013097    18A     -0.979239
      19A     -0.854038    20A     -0.840405    21A     -0.811392
      22A     -0.788737    23A     -0.717129    24A     -0.683088
      25A     -0.656156    26A     -0.638737    27A     -0.616273
      28A     -0.608166    29A     -0.592957    30A     -0.585073
      31A     -0.582270    32A     -0.524200    33A     -0.514475
      34A     -0.503517    35A     -0.490555    36A     -0.487685
      37A     -0.479697    38A     -0.364893    39A     -0.342276
      40A     -0.338618    41A     -0.300721

  @DF-RHF Final Energy:  -460.39721563737822

   => Energetics <=

    Nuclear Repulsion Energy =            598.6470857305972686
    One-Electron Energy =               -1808.9503246258434501
    Two-Electron Energy =                 749.9060232578679006
    Total Energy =                       -460.3972156373781672
  Basis Set: (AUG-CC-PVTZ AUX)
    Blend: AUG-CC-PVTZ-RI
    Molecular point group: c1

    Geometry (in Angstrom), charge = 0, multiplicity = 1:

       Center              X                  Y                   Z               Mass
    ------------   -----------------  -----------------  -----------------  -----------------
         C            0.736896158169    -0.003092938335     0.001287459904    12.000000000000
         C           -0.740861841831    -0.003093938335     0.001268459904    12.000000000000
         C            1.477153558169     1.154572161665    -0.473440640096    12.000000000000
         C           -1.455664841831     1.114756061665     0.459664459904    12.000000000000
         C            1.451690158169    -1.120955938335     0.459658459904    12.000000000000
         C           -1.455649841831    -1.120957938335    -0.457105540096    12.000000000000
         C            2.846735158169     1.115157061665    -0.454732540096    12.000000000000
         C           -2.850706841831     1.115155061665     0.457267459904    12.000000000000
         C            2.846731158169    -1.121356938335     0.457282459904    12.000000000000
         C           -2.850691841831    -1.121358938335    -0.454745540096    12.000000000000
         C            3.548760158169    -0.003107938335     0.001258459904    12.000000000000
         C           -3.552725841831    -0.003110938335     0.001270459904    12.000000000000
         H            0.907397158169     1.975555061665    -0.840408540096     1.007825032230
         H           -0.911372841831     1.975552061665     0.842971459904     1.007825032230
         H            0.907386158169    -1.981731938335     0.842994459904     1.007825032230
         H           -0.911340841831    -1.981733938335    -0.840435540096     1.007825032230
         H            3.387066158169     1.985712061665    -0.819692540096     1.007825032230
         H           -3.391041841831     1.985706061665     0.822231459904     1.007825032230
         H            3.387059158169    -1.991921938335     0.822223459904     1.007825032230
         H           -3.391015841831    -1.991924938335    -0.819691540096     1.007825032230
         H            4.636098158169    -0.003113938335     0.001252459904     1.007825032230
         H           -4.640063841831    -0.003113938335     0.001254459904     1.007825032230

  Basis Set: AUG-CC-PVTZ
    Blend: AUG-CC-PVTZ
  Basis Set: (AUG-CC-PVTZ AUX)
    Blend: AUG-CC-PVTZ-JKFIT
	 Reference Energy          =    -460.3972156373782241 [Eh]
	 Singles Energy            =      -0.0000000000000000 [Eh]
	 Same-Spin Energy          =      -0.5212509726979038 [Eh]
	 Opposite-Spin Energy      =      -1.6234194650211045 [Eh]
	 Correlation Energy        =      -2.1446704377190082 [Eh]
	 Total Energy              =    -462.5418860750972385 [Eh]

	 ================> DF-SCS-MP2 Energies <==================
	-----------------------------------------------------------
	 SCS Same-Spin Scale       =       0.3333333333333333 [-]
	 SCS Opposite-Spin Scale   =       1.2000000000000000 [-]
	 SCS Same-Spin Energy      =      -0.1737503242326346 [Eh]
	 SCS Opposite-Spin Energy  =      -1.9481033580253253 [Eh]
	 SCS Correlation Energy    =      -2.1218536822579597 [Eh]
	 SCS Total Energy          =    -462.5190693196361735 [Eh]
	-----------------------------------------------------------

  Dipole Moment: [D]
     X:    -0.0217      Y:    -0.0048      Z:    -0.0000     Total:     0.0223

*** Psi4 exiting successfully. Buy a developer a beer!
