                               Psi4 1.3.2 release

  ==> Input File <==

--------------------------------------------------------------------------
#psi4
#
memory 32 gb

molecule  {
0 1
  C        0.7307828     0.1429257     0.0586232
  C       -0.7388790     0.0000070    -0.0000030
  C        1.4536770     1.1178580    -0.4583850
  C       -1.4536820     1.1178570     0.4583930
  C        1.4536730    -1.1178550     0.4583870
  C       -1.4536670    -1.1178570    -0.4583770
  C        2.8487180     1.1182580    -0.4560040
  C       -2.8487240     1.1182560     0.4559960
  C        2.8487140    -1.1182560     0.4560110
  C       -2.8487090    -1.1182580    -0.4560170
  C        3.5507430    -0.0000070    -0.0000130
  C       -3.5507430    -0.0000100    -0.0000010
  H        0.9093800     1.9786560    -0.8416800
  H       -0.9093900     1.9786530     0.8417000
  H        0.9093690    -1.9786310     0.8417230
  H       -0.9093580    -1.9786330    -0.8417070
  H        3.3890490     1.9888130    -0.8209640
  H       -3.3890590     1.9888070     0.8209600
  H        3.3890420    -1.9888210     0.8209520
  H       -3.3890330    -1.9888240    -0.8209630
  H        4.6380810    -0.0000130    -0.0000190
  H       -4.6380810    -0.0000130    -0.0000170
units angstrom
no_reorient  #important for SAPT in psi4, default
symmetry c1  #important for SAPT in psi4, default
}

set PROPERTIES_ORIGIN ["COM"]
properties('MP2/aug-cc-pvtz', properties = ['dipole'])
--------------------------------------------------------------------------

    Molecular point group: c1
  Charge       = 0
  Multiplicity = 1
  Basis Set: AUG-CC-PVTZ
    Blend: AUG-CC-PVTZ
  Basis Set: (AUG-CC-PVTZ AUX)
    Blend: AUG-CC-PVTZ-JKFIT

    Orbital Energies [Eh]
    ---------------------

    Doubly Occupied:

       1A    -11.247998     2A    -11.247080     3A    -11.245550
       4A    -11.240302     5A    -11.239276     6A    -11.239037
       7A    -11.238099     8A    -11.237891     9A    -11.237013
      10A    -11.236344    11A    -11.234258    12A    -11.228327
      13A     -1.170106    14A     -1.140650    15A     -1.056017
      16A     -1.019329    17A     -1.012301    18A     -0.980440
      19A     -0.853586    20A     -0.840082    21A     -0.814160
      22A     -0.786150    23A     -0.717325    24A     -0.682109
      25A     -0.655645    26A     -0.638366    27A     -0.617123
      28A     -0.609622    29A     -0.592635    30A     -0.585918
      31A     -0.576819    32A     -0.522252    33A     -0.515697
      34A     -0.504681    35A     -0.495394    36A     -0.490431
      37A     -0.465331    38A     -0.370351    39A     -0.339048
      40A     -0.336617    41A     -0.303065

  @DF-RHF Final Energy:  -460.38087228014501

   => Energetics <=

    Nuclear Repulsion Energy =            599.2542841374494174
    One-Electron Energy =               -1810.1454612324764639
    Two-Electron Energy =                 750.5103048148821472
    Total Energy =                       -460.3808722801450131
  Basis Set: (AUG-CC-PVTZ AUX)
    Blend: AUG-CC-PVTZ-RI
    Molecular point group: c1

    Geometry (in Angstrom), charge = 0, multiplicity = 1:

       Center              X                  Y                   Z               Mass
    ------------   -----------------  -----------------  -----------------  -----------------
         C            0.731413352332     0.131794872972     0.054058588959    12.000000000000
         C           -0.738248447668    -0.011123827028    -0.004567611041    12.000000000000
         C            1.454307552332     1.106727172972    -0.462949611041    12.000000000000
         C           -1.453051447668     1.106726172972     0.453828388959    12.000000000000
         C            1.454303552332    -1.128985827028     0.453822388959    12.000000000000
         C           -1.453036447668    -1.128987827028    -0.462941611041    12.000000000000
         C            2.849348552332     1.107127172972    -0.460568611041    12.000000000000
         C           -2.848093447668     1.107125172972     0.451431388959    12.000000000000
         C            2.849344552332    -1.129386827028     0.451446388959    12.000000000000
         C           -2.848078447668    -1.129388827028    -0.460581611041    12.000000000000
         C            3.551373552332    -0.011137827028    -0.004577611041    12.000000000000
         C           -3.550112447668    -0.011140827028    -0.004565611041    12.000000000000
         H            0.910010552332     1.967525172972    -0.846244611041     1.007825032230
         H           -0.908759447668     1.967522172972     0.837135388959     1.007825032230
         H            0.909999552332    -1.989761827028     0.837158388959     1.007825032230
         H           -0.908727447668    -1.989763827028    -0.846271611041     1.007825032230
         H            3.389679552332     1.977682172972    -0.825528611041     1.007825032230
         H           -3.388428447668     1.977676172972     0.816395388959     1.007825032230
         H            3.389672552332    -1.999951827028     0.816387388959     1.007825032230
         H           -3.388402447668    -1.999954827028    -0.825527611041     1.007825032230
         H            4.638711552332    -0.011143827028    -0.004583611041     1.007825032230
         H           -4.637450447668    -0.011143827028    -0.004581611041     1.007825032230

  Basis Set: AUG-CC-PVTZ
    Blend: AUG-CC-PVTZ
  Basis Set: (AUG-CC-PVTZ AUX)
    Blend: AUG-CC-PVTZ-JKFIT
	 Reference Energy          =    -460.3808722801450131 [Eh]
	 Singles Energy            =      -0.0000000000000000 [Eh]
	 Same-Spin Energy          =      -0.5212744813614356 [Eh]
	 Opposite-Spin Energy      =      -1.6245546732848073 [Eh]
	 Correlation Energy        =      -2.1458291546462429 [Eh]
	 Total Energy              =    -462.5267014347912777 [Eh]

	 ================> DF-SCS-MP2 Energies <==================
	-----------------------------------------------------------
	 SCS Same-Spin Scale       =       0.3333333333333333 [-]
	 SCS Opposite-Spin Scale   =       1.2000000000000000 [-]
	 SCS Same-Spin Energy      =      -0.1737581604538119 [Eh]
	 SCS Opposite-Spin Energy  =      -1.9494656079417687 [Eh]
	 SCS Correlation Energy    =      -2.1232237683955804 [Eh]
	 SCS Total Energy          =    -462.5040960485405890 [Eh]
	-----------------------------------------------------------

  Dipole Moment: [D]
     X:     0.0091      Y:    -0.0240      Z:    -0.0244     Total:     0.0354

*** Psi4 exiting successfully. Buy a developer a beer!
