                               Psi4 1.4a3.dev225

  ==> Input File <==

--------------------------------------------------------------------------
#psi4
#
memory 32 gb

molecule  {
0 1
  C        0.7388790     0.0000080     0.0000160
  C       -0.7388790     0.0000070    -0.0000030
  C        1.4638608     1.1337841    -0.4649159
  C       -1.4536820     1.1178570     0.4583930
  C        1.4536730    -1.1178550     0.4583870
  C       -1.4536670    -1.1178570    -0.4583770
  C        2.8487180     1.1182580    -0.4560040
  C       -2.8487240     1.1182560     0.4559960
  C        2.8487140    -1.1182560     0.4560110
  C       -2.8487090    -1.1182580    -0.4560170
  C        3.5507430    -0.0000070    -0.0000130
  C       -3.5507430    -0.0000100    -0.0000010
  H        0.9093800     1.9786560    -0.8416800
  H       -0.9093900     1.9786530     0.8417000
  H        0.9093690    -1.9786310     0.8417230
  H       -0.9093580    -1.9786330    -0.8417070
  H        3.3890490     1.9888130    -0.8209640
  H       -3.3890590     1.9888070     0.8209600
  H        3.3890420    -1.9888210     0.8209520
  H       -3.3890330    -1.9888240    -0.8209630
  H        4.6380810    -0.0000130    -0.0000190
  H       -4.6380810    -0.0000130    -0.0000170
units angstrom
no_reorient  #important for SAPT in psi4, default
symmetry c1  #important for SAPT in psi4, default
}

set PROPERTIES_ORIGIN ["COM"]
properties('MP2/aug-cc-pvtz', properties = ['dipole'])
--------------------------------------------------------------------------

    Molecular point group: c1
  Charge       = 0
  Multiplicity = 1
  Basis Set: AUG-CC-PVTZ
    Blend: AUG-CC-PVTZ
  Basis Set: (AUG-CC-PVTZ AUX)
    Blend: AUG-CC-PVTZ-JKFIT

    Orbital Energies [Eh]
    ---------------------

    Doubly Occupied:

       1A    -11.249235     2A    -11.247197     3A    -11.239177
       4A    -11.239113     5A    -11.238909     6A    -11.238190
       7A    -11.236946     8A    -11.236904     9A    -11.236820
      10A    -11.236561    11A    -11.236437    12A    -11.236182
      13A     -1.168686    14A     -1.140167    15A     -1.053342
      16A     -1.020178    17A     -1.012133    18A     -0.980904
      19A     -0.852874    20A     -0.841126    21A     -0.811635
      22A     -0.789236    23A     -0.717441    24A     -0.681993
      25A     -0.654973    26A     -0.638945    27A     -0.616286
      28A     -0.608708    29A     -0.591674    30A     -0.584184
      31A     -0.583649    32A     -0.522582    33A     -0.514908
      34A     -0.503865    35A     -0.490744    36A     -0.486040
      37A     -0.482999    38A     -0.365624    39A     -0.340493
      40A     -0.338222    41A     -0.302561

  @DF-RHF Final Energy:  -460.39979788539307

   => Energetics <=

    Nuclear Repulsion Energy =            599.0647094941089108
    One-Electron Energy =               -1809.7933314356196206
    Two-Electron Energy =                 750.3288240561176963
    Total Energy =                       -460.3997978853930135
  Basis Set: (AUG-CC-PVTZ AUX)
    Blend: AUG-CC-PVTZ-RI
    Molecular point group: c1

    Geometry (in Angstrom), charge = 0, multiplicity = 1:

       Center              X                  Y                   Z               Mass
    ------------   -----------------  -----------------  -----------------  -----------------
         C            0.738085860152    -0.001232403189     0.000524507315    12.000000000000
         C           -0.739672139848    -0.001233403189     0.000505507315    12.000000000000
         C            1.463067660152     1.132543696811    -0.464407392685    12.000000000000
         C           -1.454475139848     1.116616596811     0.458901507315    12.000000000000
         C            1.452879860152    -1.119095403189     0.458895507315    12.000000000000
         C           -1.454460139848    -1.119097403189    -0.457868492685    12.000000000000
         C            2.847924860152     1.117017596811    -0.455495492685    12.000000000000
         C           -2.849517139848     1.117015596811     0.456504507315    12.000000000000
         C            2.847920860152    -1.119496403189     0.456519507315    12.000000000000
         C           -2.849502139848    -1.119498403189    -0.455508492685    12.000000000000
         C            3.549949860152    -0.001247403189     0.000495507315    12.000000000000
         C           -3.551536139848    -0.001250403189     0.000507507315    12.000000000000
         H            0.908586860152     1.977415596811    -0.841171492685     1.007825032230
         H           -0.910183139848     1.977412596811     0.842208507315     1.007825032230
         H            0.908575860152    -1.979871403189     0.842231507315     1.007825032230
         H           -0.910151139848    -1.979873403189    -0.841198492685     1.007825032230
         H            3.388255860152     1.987572596811    -0.820455492685     1.007825032230
         H           -3.389852139848     1.987566596811     0.821468507315     1.007825032230
         H            3.388248860152    -1.990061403189     0.821460507315     1.007825032230
         H           -3.389826139848    -1.990064403189    -0.820454492685     1.007825032230
         H            4.637287860152    -0.001253403189     0.000489507315     1.007825032230
         H           -4.638874139848    -0.001253403189     0.000491507315     1.007825032230

  Basis Set: AUG-CC-PVTZ
    Blend: AUG-CC-PVTZ
  Basis Set: (AUG-CC-PVTZ AUX)
    Blend: AUG-CC-PVTZ-JKFIT
	 Reference Energy          =    -460.3997978853930704 [Eh]
	 Singles Energy            =      -0.0000000000000000 [Eh]
	 Same-Spin Energy          =      -0.5212822154633781 [Eh]
	 Opposite-Spin Energy      =      -1.6232735422493105 [Eh]
	 Correlation Energy        =      -2.1445557577126886 [Eh]
	 Total Energy              =    -462.5443536431057510 [Eh]

	 ================> DF-SCS-MP2 Energies <==================
	-----------------------------------------------------------
	 SCS Same-Spin Scale       =       0.3333333333333333 [-]
	 SCS Opposite-Spin Scale   =       1.2000000000000000 [-]
	 SCS Same-Spin Energy      =      -0.1737607384877927 [Eh]
	 SCS Opposite-Spin Energy  =      -1.9479282506991726 [Eh]
	 SCS Correlation Energy    =      -2.1216889891869655 [Eh]
	 SCS Total Energy          =    -462.5214868745800345 [Eh]
	-----------------------------------------------------------

  Dipole Moment: [D]
     X:    -0.0094      Y:    -0.0018      Z:    -0.0001     Total:     0.0096

*** Psi4 exiting successfully. Buy a developer a beer!
