                               Psi4 1.3.2 release

  ==> Input File <==

--------------------------------------------------------------------------
#psi4
#
memory 32 gb

molecule  {
0 1
  C        0.7388790     0.0000080     0.0000160
  C       -0.7388790     0.0000070    -0.0000030
  C        1.5555145     1.2771185    -0.5236936
  C       -1.4536820     1.1178570     0.4583930
  C        1.4536730    -1.1178550     0.4583870
  C       -1.4536670    -1.1178570    -0.4583770
  C        2.8487180     1.1182580    -0.4560040
  C       -2.8487240     1.1182560     0.4559960
  C        2.8487140    -1.1182560     0.4560110
  C       -2.8487090    -1.1182580    -0.4560170
  C        3.5507430    -0.0000070    -0.0000130
  C       -3.5507430    -0.0000100    -0.0000010
  H        0.9093800     1.9786560    -0.8416800
  H       -0.9093900     1.9786530     0.8417000
  H        0.9093690    -1.9786310     0.8417230
  H       -0.9093580    -1.9786330    -0.8417070
  H        3.3890490     1.9888130    -0.8209640
  H       -3.3890590     1.9888070     0.8209600
  H        3.3890420    -1.9888210     0.8209520
  H       -3.3890330    -1.9888240    -0.8209630
  H        4.6380810    -0.0000130    -0.0000190
  H       -4.6380810    -0.0000130    -0.0000170
units angstrom
no_reorient  #important for SAPT in psi4, default
symmetry c1  #important for SAPT in psi4, default
}

set PROPERTIES_ORIGIN ["COM"]
properties('MP2/aug-cc-pvtz', properties = ['dipole'])
--------------------------------------------------------------------------

    Molecular point group: c1
  Charge       = 0
  Multiplicity = 1
  Basis Set: AUG-CC-PVTZ
    Blend: AUG-CC-PVTZ
  Basis Set: (AUG-CC-PVTZ AUX)
    Blend: AUG-CC-PVTZ-JKFIT

    Orbital Energies [Eh]
    ---------------------

    Doubly Occupied:

       1A    -11.261784     2A    -11.248277     3A    -11.241307
       4A    -11.239809     5A    -11.239469     6A    -11.239041
       7A    -11.237770     8A    -11.237415     9A    -11.237060
      10A    -11.236318    11A    -11.234806    12A    -11.229974
      13A     -1.164022    14A     -1.138960    15A     -1.051170
      16A     -1.030025    17A     -1.015269    18A     -0.972624
      19A     -0.859408    20A     -0.838173    21A     -0.812118
      22A     -0.785103    23A     -0.715282    24A     -0.691864
      25A     -0.663632    26A     -0.639672    27A     -0.620035
      28A     -0.606673    29A     -0.595108    30A     -0.586733
      31A     -0.573013    32A     -0.532579    33A     -0.512905
      34A     -0.502403    35A     -0.491805    36A     -0.490081
      37A     -0.452864    38A     -0.366783    39A     -0.349373
      40A     -0.339343    41A     -0.292774

  @DF-RHF Final Energy:  -460.35939951049136

   => Energetics <=

    Nuclear Repulsion Energy =            596.6937286549637065
    One-Electron Energy =               -1804.9606086636831606
    Two-Electron Energy =                 747.9074804982280966
    Total Energy =                       -460.3593995104913574
  Basis Set: (AUG-CC-PVTZ AUX)
    Blend: AUG-CC-PVTZ-RI
    Molecular point group: c1

    Geometry (in Angstrom), charge = 0, multiplicity = 1:

       Center              X                  Y                   Z               Mass
    ------------   -----------------  -----------------  -----------------  -----------------
         C            0.730947640464    -0.012395645220     0.005102261791    12.000000000000
         C           -0.746810359536    -0.012396645220     0.005083261791    12.000000000000
         C            1.547583140464     1.264714854780    -0.518607338209    12.000000000000
         C           -1.461613359536     1.105453354780     0.463479261791    12.000000000000
         C            1.445741640464    -1.130258645220     0.463473261791    12.000000000000
         C           -1.461598359536    -1.130260645220    -0.453290738209    12.000000000000
         C            2.840786640464     1.105854354780    -0.450917738209    12.000000000000
         C           -2.856655359536     1.105852354780     0.461082261791    12.000000000000
         C            2.840782640464    -1.130659645220     0.461097261791    12.000000000000
         C           -2.856640359536    -1.130661645220    -0.450930738209    12.000000000000
         C            3.542811640464    -0.012410645220     0.005073261791    12.000000000000
         C           -3.558674359536    -0.012413645220     0.005085261791    12.000000000000
         H            0.901448640464     1.966252354780    -0.836593738209     1.007825032230
         H           -0.917321359536     1.966249354780     0.846786261791     1.007825032230
         H            0.901437640464    -1.991034645220     0.846809261791     1.007825032230
         H           -0.917289359536    -1.991036645220    -0.836620738209     1.007825032230
         H            3.381117640464     1.976409354780    -0.815877738209     1.007825032230
         H           -3.396990359536     1.976403354780     0.826046261791     1.007825032230
         H            3.381110640464    -2.001224645220     0.826038261791     1.007825032230
         H           -3.396964359536    -2.001227645220    -0.815876738209     1.007825032230
         H            4.630149640464    -0.012416645220     0.005067261791     1.007825032230
         H           -4.646012359536    -0.012416645220     0.005069261791     1.007825032230

  Basis Set: AUG-CC-PVTZ
    Blend: AUG-CC-PVTZ
  Basis Set: (AUG-CC-PVTZ AUX)
    Blend: AUG-CC-PVTZ-JKFIT
	 Reference Energy          =    -460.3593995104913574 [Eh]
	 Singles Energy            =      -0.0000000000000000 [Eh]
	 Same-Spin Energy          =      -0.5210110282819799 [Eh]
	 Opposite-Spin Energy      =      -1.6255158498240778 [Eh]
	 Correlation Energy        =      -2.1465268781060578 [Eh]
	 Total Energy              =    -462.5059263885974019 [Eh]

	 ================> DF-SCS-MP2 Energies <==================
	-----------------------------------------------------------
	 SCS Same-Spin Scale       =       0.3333333333333333 [-]
	 SCS Opposite-Spin Scale   =       1.2000000000000000 [-]
	 SCS Same-Spin Energy      =      -0.1736703427606600 [Eh]
	 SCS Opposite-Spin Energy  =      -1.9506190197888933 [Eh]
	 SCS Correlation Energy    =      -2.1242893625495531 [Eh]
	 SCS Total Energy          =    -462.4836888730409328 [Eh]
	-----------------------------------------------------------

  Dipole Moment: [D]
     X:    -0.0484      Y:    -0.0193      Z:    -0.0006     Total:     0.0521

*** Psi4 exiting successfully. Buy a developer a beer!
