                               Psi4 1.3.2 release

  ==> Input File <==

--------------------------------------------------------------------------
#psi4
#
memory 32 gb

molecule  {
0 1
  O        2.8443680    -0.4002740    -0.0000640
  C        0.5303490     0.2197810    -0.0000320
  C       -0.3650130     1.2954270     0.0000030
  C        0.0536120    -1.0979650    -0.0000100
  C       -1.7392770     1.0552920     0.0000660
  C       -1.3183870    -1.3327110     0.0000480
  C       -2.2153620    -0.2579650     0.0000850
  C        1.9872980     0.4782480    -0.0000900
  H        0.0154570     2.3161290    -0.0000170
  H        0.7719840    -1.9138740    -0.0000340
  H       -2.4382574     1.8879220    -0.0999050
  H       -1.6949380    -2.3526680     0.0000610
  H       -3.2864430    -0.4457910     0.0001330
  H        2.2779260     1.5498300    -0.0001490
units angstrom
no_reorient  #important for SAPT in psi4, default
symmetry c1  #important for SAPT in psi4, default
}

set PROPERTIES_ORIGIN ["COM"]
properties('MP2/aug-cc-pvtz', properties = ['dipole'])
--------------------------------------------------------------------------

    Molecular point group: c1
  Charge       = 0
  Multiplicity = 1
  Basis Set: AUG-CC-PVTZ
    Blend: AUG-CC-PVTZ
  Basis Set: (AUG-CC-PVTZ AUX)
    Blend: AUG-CC-PVTZ-JKFIT

    Orbital Energies [Eh]
    ---------------------

    Doubly Occupied:

       1A    -20.556233     2A    -11.338959     3A    -11.264388
       4A    -11.261594     5A    -11.257070     6A    -11.255282
       7A    -11.254664     8A    -11.252499     9A     -1.381202
      10A     -1.172562    11A     -1.051325    12A     -1.034288
      13A     -0.895370    14A     -0.847286    15A     -0.792913
      16A     -0.719947    17A     -0.678025    18A     -0.652911
      19A     -0.619910    20A     -0.613790    21A     -0.604966
      22A     -0.551989    23A     -0.530757    24A     -0.511600
      25A     -0.499796    26A     -0.430960    27A     -0.356765
      28A     -0.352905

  @DF-RHF Final Energy:  -343.54737964261898

   => Energetics <=

    Nuclear Repulsion Energy =            320.4594809757631992
    One-Electron Energy =               -1100.5338080789656487
    Two-Electron Energy =                 436.5269474605834716
    Total Energy =                       -343.5473796426189779
  Basis Set: (AUG-CC-PVTZ AUX)
    Blend: AUG-CC-PVTZ-RI
    Molecular point group: c1

    Geometry (in Angstrom), charge = 0, multiplicity = 1:

       Center              X                  Y                   Z               Mass
    ------------   -----------------  -----------------  -----------------  -----------------
         O            2.803764040421    -0.390547970478     0.000887289206    15.994914619570
         C            0.489745040421     0.229507029522     0.000919289206    12.000000000000
         C           -0.405616959579     1.305153029522     0.000954289206    12.000000000000
         C            0.013008040421    -1.088238970478     0.000941289206    12.000000000000
         C           -1.779880959579     1.065018029522     0.001017289206    12.000000000000
         C           -1.358990959579    -1.322984970478     0.000999289206    12.000000000000
         C           -2.255965959579    -0.248238970478     0.001036289206    12.000000000000
         C            1.946694040421     0.487974029522     0.000861289206    12.000000000000
         H           -0.025146959579     2.325855029522     0.000934289206     1.007825032230
         H            0.731380040421    -1.904147970478     0.000917289206     1.007825032230
         H           -2.478861359579     1.897648029522    -0.098953710794     1.007825032230
         H           -1.735541959579    -2.342941970478     0.001012289206     1.007825032230
         H           -3.327046959579    -0.436064970478     0.001084289206     1.007825032230
         H            2.237322040421     1.559556029522     0.000802289206     1.007825032230

  Basis Set: AUG-CC-PVTZ
    Blend: AUG-CC-PVTZ
  Basis Set: (AUG-CC-PVTZ AUX)
    Blend: AUG-CC-PVTZ-JKFIT
	 Reference Energy          =    -343.5473796426189779 [Eh]
	 Singles Energy            =      -0.0000000000000000 [Eh]
	 Same-Spin Energy          =      -0.3639368280681616 [Eh]
	 Opposite-Spin Energy      =      -1.1297194438123785 [Eh]
	 Correlation Energy        =      -1.4936562718805402 [Eh]
	 Total Energy              =    -345.0410359144995027 [Eh]

	 ================> DF-SCS-MP2 Energies <==================
	-----------------------------------------------------------
	 SCS Same-Spin Scale       =       0.3333333333333333 [-]
	 SCS Opposite-Spin Scale   =       1.2000000000000000 [-]
	 SCS Same-Spin Energy      =      -0.1213122760227205 [Eh]
	 SCS Opposite-Spin Energy  =      -1.3556633325748542 [Eh]
	 SCS Correlation Energy    =      -1.4769756085975747 [Eh]
	 SCS Total Energy          =    -345.0243552512165479 [Eh]
	-----------------------------------------------------------

  Dipole Moment: [D]
     X:    -3.0046      Y:     1.2406      Z:    -0.0622     Total:     3.2512

*** Psi4 exiting successfully. Buy a developer a beer!
