                               Psi4 1.3.2 release

  ==> Input File <==

--------------------------------------------------------------------------
#psi4
#
memory 32 gb

molecule  {
0 1
  O        2.8443680    -0.4002740    -0.0000640
  C        0.5303490     0.2197810    -0.0000320
  C       -0.3650130     1.2954270     0.0000030
  C        0.0536120    -1.0979650    -0.0000100
  C       -1.7392770     1.0552920     0.0000660
  C       -1.3183870    -1.3327110     0.0000480
  C       -2.2153620    -0.2579650     0.0000850
  C        1.9872980     0.4782480    -0.0000900
  H        0.0154525     2.3161286    -0.1000170
  H        0.7719840    -1.9138740    -0.0000340
  H       -2.4382530     1.8879220     0.0000950
  H       -1.6949380    -2.3526680     0.0000610
  H       -3.2864430    -0.4457910     0.0001330
  H        2.2779260     1.5498300    -0.0001490
units angstrom
no_reorient  #important for SAPT in psi4, default
symmetry c1  #important for SAPT in psi4, default
}

set PROPERTIES_ORIGIN ["COM"]
properties('MP2/aug-cc-pvtz', properties = ['dipole'])
--------------------------------------------------------------------------

    Molecular point group: c1
  Charge       = 0
  Multiplicity = 1
  Basis Set: AUG-CC-PVTZ
    Blend: AUG-CC-PVTZ
  Basis Set: (AUG-CC-PVTZ AUX)
    Blend: AUG-CC-PVTZ-JKFIT

    Orbital Energies [Eh]
    ---------------------

    Doubly Occupied:

       1A    -20.556220     2A    -11.338915     3A    -11.264692
       4A    -11.261539     5A    -11.257021     6A    -11.255303
       7A    -11.254354     8A    -11.252555     9A     -1.381181
      10A     -1.172546    11A     -1.051294    12A     -1.034309
      13A     -0.895335    14A     -0.847150    15A     -0.793172
      16A     -0.719730    17A     -0.677875    18A     -0.652929
      19A     -0.620125    20A     -0.613779    21A     -0.604916
      22A     -0.551995    23A     -0.530628    24A     -0.511415
      25A     -0.500037    26A     -0.430947    27A     -0.356672
      28A     -0.352993

  @DF-RHF Final Energy:  -343.54737136277060

   => Energetics <=

    Nuclear Repulsion Energy =            320.4586478569190717
    One-Electron Energy =               -1100.5327855651280515
    Two-Electron Energy =                 436.5267663454384319
    Total Energy =                       -343.5473713627706047
  Basis Set: (AUG-CC-PVTZ AUX)
    Blend: AUG-CC-PVTZ-RI
    Molecular point group: c1

    Geometry (in Angstrom), charge = 0, multiplicity = 1:

       Center              X                  Y                   Z               Mass
    ------------   -----------------  -----------------  -----------------  -----------------
         O            2.803764041371    -0.390547966676     0.000887289206    15.994914619570
         C            0.489745041371     0.229507033324     0.000919289206    12.000000000000
         C           -0.405616958629     1.305153033324     0.000954289206    12.000000000000
         C            0.013008041371    -1.088238966676     0.000941289206    12.000000000000
         C           -1.779880958629     1.065018033324     0.001017289206    12.000000000000
         C           -1.358990958629    -1.322984966676     0.000999289206    12.000000000000
         C           -2.255965958629    -0.248238966676     0.001036289206    12.000000000000
         C            1.946694041371     0.487974033324     0.000861289206    12.000000000000
         H           -0.025151458629     2.325854633324    -0.099065710794     1.007825032230
         H            0.731380041371    -1.904147966676     0.000917289206     1.007825032230
         H           -2.478856958629     1.897648033324     0.001046289206     1.007825032230
         H           -1.735541958629    -2.342941966676     0.001012289206     1.007825032230
         H           -3.327046958629    -0.436064966676     0.001084289206     1.007825032230
         H            2.237322041371     1.559556033324     0.000802289206     1.007825032230

  Basis Set: AUG-CC-PVTZ
    Blend: AUG-CC-PVTZ
  Basis Set: (AUG-CC-PVTZ AUX)
    Blend: AUG-CC-PVTZ-JKFIT
	 Reference Energy          =    -343.5473713627706047 [Eh]
	 Singles Energy            =      -0.0000000000000000 [Eh]
	 Same-Spin Energy          =      -0.3639460988746129 [Eh]
	 Opposite-Spin Energy      =      -1.1297204611328975 [Eh]
	 Correlation Energy        =      -1.4936665600075103 [Eh]
	 Total Energy              =    -345.0410379227781164 [Eh]

	 ================> DF-SCS-MP2 Energies <==================
	-----------------------------------------------------------
	 SCS Same-Spin Scale       =       0.3333333333333333 [-]
	 SCS Opposite-Spin Scale   =       1.2000000000000000 [-]
	 SCS Same-Spin Energy      =      -0.1213153662915376 [Eh]
	 SCS Opposite-Spin Energy  =      -1.3556645533594769 [Eh]
	 SCS Correlation Energy    =      -1.4769799196510145 [Eh]
	 SCS Total Energy          =    -345.0243512824216054 [Eh]
	-----------------------------------------------------------

  Dipole Moment: [D]
     X:    -3.0135      Y:     1.2393      Z:    -0.0638     Total:     3.2590

*** Psi4 exiting successfully. Buy a developer a beer!
