                               Psi4 1.3.2 release

  ==> Input File <==

--------------------------------------------------------------------------
#psi4
#
memory 32 gb

molecule  {
0 1
  O        2.8443680    -0.4002740    -0.0000640
  C        0.5303490     0.2197810    -0.0000320
  C       -0.3650130     1.2954270     0.0000030
  C        0.0536120    -1.0979650    -0.0000100
  C       -1.7392770     1.0552920     0.0000660
  C       -1.3183870    -1.3327110     0.0000480
  C       -2.2153620    -0.2579650     0.0000850
  C        1.9873060     0.4782483     0.1999100
  H        0.0154570     2.3161290    -0.0000170
  H        0.7719840    -1.9138740    -0.0000340
  H       -2.4382530     1.8879220     0.0000950
  H       -1.6949380    -2.3526680     0.0000610
  H       -3.2864430    -0.4457910     0.0001330
  H        2.2779260     1.5498300    -0.0001490
units angstrom
no_reorient  #important for SAPT in psi4, default
symmetry c1  #important for SAPT in psi4, default
}

set PROPERTIES_ORIGIN ["COM"]
properties('MP2/aug-cc-pvtz', properties = ['dipole'])
--------------------------------------------------------------------------

    Molecular point group: c1
  Charge       = 0
  Multiplicity = 1
  Basis Set: AUG-CC-PVTZ
    Blend: AUG-CC-PVTZ
  Basis Set: (AUG-CC-PVTZ AUX)
    Blend: AUG-CC-PVTZ-JKFIT

    Orbital Energies [Eh]
    ---------------------

    Doubly Occupied:

       1A    -20.560801     2A    -11.344433     3A    -11.263695
       4A    -11.260996     5A    -11.257624     6A    -11.255964
       7A    -11.254095     8A    -11.252275     9A     -1.373999
      10A     -1.171892    11A     -1.049595    12A     -1.033997
      13A     -0.892883    14A     -0.846729    15A     -0.792023
      16A     -0.717715    17A     -0.674549    18A     -0.651582
      19A     -0.618727    20A     -0.610973    21A     -0.604441
      22A     -0.549069    23A     -0.529840    24A     -0.511152
      25A     -0.497538    26A     -0.429961    27A     -0.355948
      28A     -0.351682

  @DF-RHF Final Energy:  -343.52981872342593

   => Energetics <=

    Nuclear Repulsion Energy =            319.9698441131574782
    One-Electron Energy =               -1099.5709695376820036
    Two-Electron Energy =                 436.0713067010985924
    Total Energy =                       -343.5298187234259331
  Basis Set: (AUG-CC-PVTZ AUX)
    Blend: AUG-CC-PVTZ-RI
    Molecular point group: c1

    Geometry (in Angstrom), charge = 0, multiplicity = 1:

       Center              X                  Y                   Z               Mass
    ------------   -----------------  -----------------  -----------------  -----------------
         O            2.803763093300    -0.390548004427    -0.022695684440    15.994914619570
         C            0.489744093300     0.229506995573    -0.022663684440    12.000000000000
         C           -0.405617906700     1.305152995573    -0.022628684440    12.000000000000
         C            0.013007093300    -1.088239004427    -0.022641684440    12.000000000000
         C           -1.779881906700     1.065017995573    -0.022565684440    12.000000000000
         C           -1.358991906700    -1.322985004427    -0.022583684440    12.000000000000
         C           -2.255966906700    -0.248239004427    -0.022546684440    12.000000000000
         C            1.946701093300     0.487974295573     0.177278315560    12.000000000000
         H           -0.025147906700     2.325854995573    -0.022648684440     1.007825032230
         H            0.731379093300    -1.904148004427    -0.022665684440     1.007825032230
         H           -2.478857906700     1.897647995573    -0.022536684440     1.007825032230
         H           -1.735542906700    -2.342942004427    -0.022570684440     1.007825032230
         H           -3.327047906700    -0.436065004427    -0.022498684440     1.007825032230
         H            2.237321093300     1.559555995573    -0.022780684440     1.007825032230

  Basis Set: AUG-CC-PVTZ
    Blend: AUG-CC-PVTZ
  Basis Set: (AUG-CC-PVTZ AUX)
    Blend: AUG-CC-PVTZ-JKFIT
	 Reference Energy          =    -343.5298187234259331 [Eh]
	 Singles Energy            =      -0.0000000000000000 [Eh]
	 Same-Spin Energy          =      -0.3650196396239637 [Eh]
	 Opposite-Spin Energy      =      -1.1324262489800625 [Eh]
	 Correlation Energy        =      -1.4974458886040263 [Eh]
	 Total Energy              =    -345.0272646120299669 [Eh]

	 ================> DF-SCS-MP2 Energies <==================
	-----------------------------------------------------------
	 SCS Same-Spin Scale       =       0.3333333333333333 [-]
	 SCS Opposite-Spin Scale   =       1.2000000000000000 [-]
	 SCS Same-Spin Energy      =      -0.1216732132079879 [Eh]
	 SCS Opposite-Spin Energy  =      -1.3589114987760749 [Eh]
	 SCS Correlation Energy    =      -1.4805847119840627 [Eh]
	 SCS Total Energy          =    -345.0104034354100122 [Eh]
	-----------------------------------------------------------

  Dipole Moment: [D]
     X:    -2.9539      Y:     1.2113      Z:     0.1354     Total:     3.1955

*** Psi4 exiting successfully. Buy a developer a beer!
