                               Psi4 1.3.2 release

  ==> Input File <==

--------------------------------------------------------------------------
#psi4
#
memory 32 gb

molecule  {
0 1
  O        2.8443680    -0.4002740    -0.0000640
  C        0.5303490     0.2197810    -0.0000320
  C       -0.3650130     1.2954270     0.0000030
  C        0.0536120    -1.0979650    -0.0000100
  C       -1.7392770     1.0552920     0.0000660
  C       -1.3183870    -1.3327110     0.0000480
  C       -2.2153620    -0.2579650     0.0000850
  C        1.9872980     0.4782480    -0.0000900
  H        0.0154548     2.3161288    -0.0500170
  H        0.7719840    -1.9138740    -0.0000340
  H       -2.4382530     1.8879220     0.0000950
  H       -1.6949380    -2.3526680     0.0000610
  H       -3.2864430    -0.4457910     0.0001330
  H        2.2779260     1.5498300    -0.0001490
units angstrom
no_reorient  #important for SAPT in psi4, default
symmetry c1  #important for SAPT in psi4, default
}

set PROPERTIES_ORIGIN ["COM"]
properties('MP2/aug-cc-pvtz', properties = ['dipole'])
--------------------------------------------------------------------------

    Molecular point group: c1
  Charge       = 0
  Multiplicity = 1
  Basis Set: AUG-CC-PVTZ
    Blend: AUG-CC-PVTZ
  Basis Set: (AUG-CC-PVTZ AUX)
    Blend: AUG-CC-PVTZ-JKFIT

    Orbital Energies [Eh]
    ---------------------

    Doubly Occupied:

       1A    -20.556209     2A    -11.338926     3A    -11.264406
       4A    -11.261522     5A    -11.256993     6A    -11.255256
       7A    -11.254294     8A    -11.252488     9A     -1.381175
      10A     -1.172535    11A     -1.051302    12A     -1.034356
      13A     -0.895341    14A     -0.847344    15A     -0.793173
      16A     -0.719961    17A     -0.677970    18A     -0.653038
      19A     -0.620173    20A     -0.613769    21A     -0.605141
      22A     -0.551956    23A     -0.530709    24A     -0.511382
      25A     -0.500274    26A     -0.430939    27A     -0.356716
      28A     -0.352971

  @DF-RHF Final Energy:  -343.54785045021094

   => Energetics <=

    Nuclear Repulsion Energy =            320.4721588539658228
    One-Electron Energy =               -1100.5593797760695907
    Two-Electron Energy =                 436.5393704718928802
    Total Energy =                       -343.5478504502109445
  Basis Set: (AUG-CC-PVTZ AUX)
    Blend: AUG-CC-PVTZ-RI
    Molecular point group: c1

    Geometry (in Angstrom), charge = 0, multiplicity = 1:

       Center              X                  Y                   Z               Mass
    ------------   -----------------  -----------------  -----------------  -----------------
         O            2.803764019512    -0.390547968577     0.000412087721    15.994914619570
         C            0.489745019512     0.229507031423     0.000444087721    12.000000000000
         C           -0.405616980488     1.305153031423     0.000479087721    12.000000000000
         C            0.013008019512    -1.088238968577     0.000466087721    12.000000000000
         C           -1.779880980488     1.065018031423     0.000542087721    12.000000000000
         C           -1.358990980488    -1.322984968577     0.000524087721    12.000000000000
         C           -2.255965980488    -0.248238968577     0.000561087721    12.000000000000
         C            1.946694019512     0.487974031423     0.000386087721    12.000000000000
         H           -0.025149180488     2.325854831423    -0.049540912279     1.007825032230
         H            0.731380019512    -1.904147968577     0.000442087721     1.007825032230
         H           -2.478856980488     1.897648031423     0.000571087721     1.007825032230
         H           -1.735541980488    -2.342941968577     0.000537087721     1.007825032230
         H           -3.327046980488    -0.436064968577     0.000609087721     1.007825032230
         H            2.237322019512     1.559556031423     0.000327087721     1.007825032230

  Basis Set: AUG-CC-PVTZ
    Blend: AUG-CC-PVTZ
  Basis Set: (AUG-CC-PVTZ AUX)
    Blend: AUG-CC-PVTZ-JKFIT
	 Reference Energy          =    -343.5478504502109445 [Eh]
	 Singles Energy            =      -0.0000000000000000 [Eh]
	 Same-Spin Energy          =      -0.3639144607080594 [Eh]
	 Opposite-Spin Energy      =      -1.1296620274357985 [Eh]
	 Correlation Energy        =      -1.4935764881438578 [Eh]
	 Total Energy              =    -345.0414269383547889 [Eh]

	 ================> DF-SCS-MP2 Energies <==================
	-----------------------------------------------------------
	 SCS Same-Spin Scale       =       0.3333333333333333 [-]
	 SCS Opposite-Spin Scale   =       1.2000000000000000 [-]
	 SCS Same-Spin Energy      =      -0.1213048202360198 [Eh]
	 SCS Opposite-Spin Energy  =      -1.3555944329229581 [Eh]
	 SCS Correlation Energy    =      -1.4768992531589780 [Eh]
	 SCS Total Energy          =    -345.0247497033699347 [Eh]
	-----------------------------------------------------------

  Dipole Moment: [D]
     X:    -3.0114      Y:     1.2449      Z:    -0.0320     Total:     3.2587

*** Psi4 exiting successfully. Buy a developer a beer!
