                               Psi4 1.3.2 release

  ==> Input File <==

--------------------------------------------------------------------------
#psi4
#
memory 32 gb

molecule  {
0 1
  O        2.8443680    -0.4002740    -0.0000640
  C        0.5303490     0.2197810    -0.0000320
  C       -0.3650130     1.2954270     0.0000030
  C        0.0536120    -1.0979650    -0.0000100
  C       -1.7392770     1.0552920     0.0000660
  C       -1.3183870    -1.3327110     0.0000480
  C       -2.2153620    -0.2579650     0.0000850
  C        1.9873100     0.4782485     0.2999100
  H        0.0154570     2.3161290    -0.0000170
  H        0.7719840    -1.9138740    -0.0000340
  H       -2.4382530     1.8879220     0.0000950
  H       -1.6949380    -2.3526680     0.0000610
  H       -3.2864430    -0.4457910     0.0001330
  H        2.2779260     1.5498300    -0.0001490
units angstrom
no_reorient  #important for SAPT in psi4, default
symmetry c1  #important for SAPT in psi4, default
}

set PROPERTIES_ORIGIN ["COM"]
properties('MP2/aug-cc-pvtz', properties = ['dipole'])
--------------------------------------------------------------------------

    Molecular point group: c1
  Charge       = 0
  Multiplicity = 1
  Basis Set: AUG-CC-PVTZ
    Blend: AUG-CC-PVTZ
  Basis Set: (AUG-CC-PVTZ AUX)
    Blend: AUG-CC-PVTZ-JKFIT

    Orbital Energies [Eh]
    ---------------------

    Doubly Occupied:

       1A    -20.566602     2A    -11.350710     3A    -11.262993
       4A    -11.260361     5A    -11.259662     6A    -11.255457
       7A    -11.253869     8A    -11.252030     9A     -1.365616
      10A     -1.171128    11A     -1.047586    12A     -1.033537
      13A     -0.889952    14A     -0.845952    15A     -0.790817
      16A     -0.715371    17A     -0.670305    18A     -0.649895
      19A     -0.616792    20A     -0.607855    21A     -0.602839
      22A     -0.546294    23A     -0.528406    24A     -0.510840
      25A     -0.494223    26A     -0.428959    27A     -0.355315
      28A     -0.349871

  @DF-RHF Final Energy:  -343.50694234127576

   => Energetics <=

    Nuclear Repulsion Energy =            319.3586053322054568
    One-Electron Energy =               -1098.3646180969019497
    Two-Electron Energy =                 435.4990704234207328
    Total Energy =                       -343.5069423412757601
  Basis Set: (AUG-CC-PVTZ AUX)
    Blend: AUG-CC-PVTZ-RI
    Molecular point group: c1

    Geometry (in Angstrom), charge = 0, multiplicity = 1:

       Center              X                  Y                   Z               Mass
    ------------   -----------------  -----------------  -----------------  -----------------
         O            2.803762640649    -0.390548027059    -0.034011969778    15.994914619570
         C            0.489743640649     0.229506972941    -0.033979969778    12.000000000000
         C           -0.405618359351     1.305152972941    -0.033944969778    12.000000000000
         C            0.013006640649    -1.088239027059    -0.033957969778    12.000000000000
         C           -1.779882359351     1.065017972941    -0.033881969778    12.000000000000
         C           -1.358992359351    -1.322985027059    -0.033899969778    12.000000000000
         C           -2.255967359351    -0.248239027059    -0.033862969778    12.000000000000
         C            1.946704640649     0.487974472941     0.265962030222    12.000000000000
         H           -0.025148359351     2.325854972941    -0.033964969778     1.007825032230
         H            0.731378640649    -1.904148027059    -0.033981969778     1.007825032230
         H           -2.478858359351     1.897647972941    -0.033852969778     1.007825032230
         H           -1.735543359351    -2.342942027059    -0.033886969778     1.007825032230
         H           -3.327048359351    -0.436065027059    -0.033814969778     1.007825032230
         H            2.237320640649     1.559555972941    -0.034096969778     1.007825032230

  Basis Set: AUG-CC-PVTZ
    Blend: AUG-CC-PVTZ
  Basis Set: (AUG-CC-PVTZ AUX)
    Blend: AUG-CC-PVTZ-JKFIT
	 Reference Energy          =    -343.5069423412757601 [Eh]
	 Singles Energy            =      -0.0000000000000000 [Eh]
	 Same-Spin Energy          =      -0.3664008820370815 [Eh]
	 Opposite-Spin Energy      =      -1.1363686359238885 [Eh]
	 Correlation Energy        =      -1.5027695179609699 [Eh]
	 Total Energy              =    -345.0097118592367451 [Eh]

	 ================> DF-SCS-MP2 Energies <==================
	-----------------------------------------------------------
	 SCS Same-Spin Scale       =       0.3333333333333333 [-]
	 SCS Opposite-Spin Scale   =       1.2000000000000000 [-]
	 SCS Same-Spin Energy      =      -0.1221336273456938 [Eh]
	 SCS Opposite-Spin Energy  =      -1.3636423631086660 [Eh]
	 SCS Correlation Energy    =      -1.4857759904543599 [Eh]
	 SCS Total Energy          =    -344.9927183317301456 [Eh]
	-----------------------------------------------------------

  Dipole Moment: [D]
     X:    -2.8847      Y:     1.1681      Z:     0.1861     Total:     3.1177

*** Psi4 exiting successfully. Buy a developer a beer!
