                               Psi4 1.3.2 release

  ==> Input File <==

--------------------------------------------------------------------------
#psi4
#
memory 32 gb

molecule  {
0 1
  O        2.8443680    -0.4002740    -0.0000640
  C        0.5303490     0.2197810    -0.0000320
  C       -0.3650130     1.2954270     0.0000030
  C        0.0536120    -1.0979650    -0.0000100
  C       -1.7392770     1.0552920     0.0000660
  C       -1.3183870    -1.3327110     0.0000480
  C       -2.2153620    -0.2579650     0.0000850
  C        1.9872980     0.4782480    -0.0000900
  H        0.0154570     2.3161290    -0.0000170
  H        0.7719840    -1.9138740    -0.0000340
  H       -2.4382530     1.8879220     0.0000950
  H       -1.6949380    -2.3526680     0.0000610
  H       -3.2864430    -0.4457910     0.0001330
  H        2.2779219     1.5498223    -0.1501490
units angstrom
no_reorient  #important for SAPT in psi4, default
symmetry c1  #important for SAPT in psi4, default
}

set PROPERTIES_ORIGIN ["COM"]
properties('MP2/aug-cc-pvtz', properties = ['dipole'])
--------------------------------------------------------------------------

    Molecular point group: c1
  Charge       = 0
  Multiplicity = 1
  Basis Set: AUG-CC-PVTZ
    Blend: AUG-CC-PVTZ
  Basis Set: (AUG-CC-PVTZ AUX)
    Blend: AUG-CC-PVTZ-JKFIT

    Orbital Energies [Eh]
    ---------------------

    Doubly Occupied:

       1A    -20.556704     2A    -11.340018     3A    -11.264282
       4A    -11.261517     5A    -11.257092     6A    -11.255466
       7A    -11.254289     8A    -11.252513     9A     -1.381500
      10A     -1.172573    11A     -1.051290    12A     -1.034403
      13A     -0.894734    14A     -0.847372    15A     -0.792212
      16A     -0.719466    17A     -0.677443    18A     -0.653215
      19A     -0.620205    20A     -0.613633    21A     -0.605196
      22A     -0.551835    23A     -0.530763    24A     -0.511418
      25A     -0.500471    26A     -0.430435    27A     -0.356717
      28A     -0.353033

  @DF-RHF Final Energy:  -343.54669235947074

   => Energetics <=

    Nuclear Repulsion Energy =            320.4372647018903990
    One-Electron Energy =               -1100.4883259985488166
    Two-Electron Energy =                 436.5043689371876781
    Total Energy =                       -343.5466923594707396
  Basis Set: (AUG-CC-PVTZ AUX)
    Blend: AUG-CC-PVTZ-RI
    Molecular point group: c1

    Geometry (in Angstrom), charge = 0, multiplicity = 1:

       Center              X                  Y                   Z               Mass
    ------------   -----------------  -----------------  -----------------  -----------------
         O            2.803764037569    -0.390547897297     0.001362490690    15.994914619570
         C            0.489745037569     0.229507102703     0.001394490690    12.000000000000
         C           -0.405616962431     1.305153102703     0.001429490690    12.000000000000
         C            0.013008037569    -1.088238897297     0.001416490690    12.000000000000
         C           -1.779880962431     1.065018102703     0.001492490690    12.000000000000
         C           -1.358990962431    -1.322984897297     0.001474490690    12.000000000000
         C           -2.255965962431    -0.248238897297     0.001511490690    12.000000000000
         C            1.946694037569     0.487974102703     0.001336490690    12.000000000000
         H           -0.025146962431     2.325855102703     0.001409490690     1.007825032230
         H            0.731380037569    -1.904147897297     0.001392490690     1.007825032230
         H           -2.478856962431     1.897648102703     0.001521490690     1.007825032230
         H           -1.735541962431    -2.342941897297     0.001487490690     1.007825032230
         H           -3.327046962431    -0.436064897297     0.001559490690     1.007825032230
         H            2.237317937569     1.559548402703    -0.148722509310     1.007825032230

  Basis Set: AUG-CC-PVTZ
    Blend: AUG-CC-PVTZ
  Basis Set: (AUG-CC-PVTZ AUX)
    Blend: AUG-CC-PVTZ-JKFIT
	 Reference Energy          =    -343.5466923594707396 [Eh]
	 Singles Energy            =      -0.0000000000000000 [Eh]
	 Same-Spin Energy          =      -0.3639926361275028 [Eh]
	 Opposite-Spin Energy      =      -1.1298097705939720 [Eh]
	 Correlation Energy        =      -1.4938024067214748 [Eh]
	 Total Energy              =    -345.0404947661922392 [Eh]

	 ================> DF-SCS-MP2 Energies <==================
	-----------------------------------------------------------
	 SCS Same-Spin Scale       =       0.3333333333333333 [-]
	 SCS Opposite-Spin Scale   =       1.2000000000000000 [-]
	 SCS Same-Spin Energy      =      -0.1213308787091676 [Eh]
	 SCS Opposite-Spin Energy  =      -1.3557717247127663 [Eh]
	 SCS Correlation Energy    =      -1.4771026034219339 [Eh]
	 SCS Total Energy          =    -345.0237949628926799 [Eh]
	-----------------------------------------------------------

  Dipole Moment: [D]
     X:    -3.0127      Y:     1.2296      Z:    -0.0522     Total:     3.2544

*** Psi4 exiting successfully. Buy a developer a beer!
