                               Psi4 1.3.2 release

  ==> Input File <==

--------------------------------------------------------------------------
#psi4
#
memory 32 gb

molecule  {
0 1
  O        2.8443680    -0.4002740    -0.0000640
  C        0.5303490     0.2197810    -0.0000320
  C       -0.3650130     1.2954270     0.0000030
  C        0.0536120    -1.0979650    -0.0000100
  C       -1.7392770     1.0552920     0.0000660
  C       -1.3183870    -1.3327110     0.0000480
  C       -2.2153620    -0.2579650     0.0000850
  C        1.9873080     0.4782484     0.2499100
  H        0.0154570     2.3161290    -0.0000170
  H        0.7719840    -1.9138740    -0.0000340
  H       -2.4382530     1.8879220     0.0000950
  H       -1.6949380    -2.3526680     0.0000610
  H       -3.2864430    -0.4457910     0.0001330
  H        2.2779260     1.5498300    -0.0001490
units angstrom
no_reorient  #important for SAPT in psi4, default
symmetry c1  #important for SAPT in psi4, default
}

set PROPERTIES_ORIGIN ["COM"]
properties('MP2/aug-cc-pvtz', properties = ['dipole'])
--------------------------------------------------------------------------

    Molecular point group: c1
  Charge       = 0
  Multiplicity = 1
  Basis Set: AUG-CC-PVTZ
    Blend: AUG-CC-PVTZ
  Basis Set: (AUG-CC-PVTZ AUX)
    Blend: AUG-CC-PVTZ-JKFIT

    Orbital Energies [Eh]
    ---------------------

    Doubly Occupied:

       1A    -20.563402     2A    -11.347337     3A    -11.263368
       4A    -11.260709     5A    -11.258533     6A    -11.255771
       7A    -11.253994     8A    -11.252166     9A     -1.370147
      10A     -1.171544    11A     -1.048674    12A     -1.033789
      13A     -0.891544    14A     -0.846371    15A     -0.791451
      16A     -0.716591    17A     -0.672620    18A     -0.650800
      19A     -0.617869    20A     -0.609478    21A     -0.603847
      22A     -0.547715    23A     -0.529234    24A     -0.511016
      25A     -0.496019    26A     -0.429483    27A     -0.355631
      28A     -0.350882

  @DF-RHF Final Energy:  -343.51953503445981

   => Energetics <=

    Nuclear Repulsion Energy =            319.6918039182019697
    One-Electron Energy =               -1099.0227096236112629
    Two-Electron Energy =                 435.8113706709495432
    Total Energy =                       -343.5195350344598069
  Basis Set: (AUG-CC-PVTZ AUX)
    Blend: AUG-CC-PVTZ-RI
    Molecular point group: c1

    Geometry (in Angstrom), charge = 0, multiplicity = 1:

       Center              X                  Y                   Z               Mass
    ------------   -----------------  -----------------  -----------------  -----------------
         O            2.803762866974    -0.390548015743    -0.028353827109    15.994914619570
         C            0.489743866974     0.229506984257    -0.028321827109    12.000000000000
         C           -0.405618133026     1.305152984257    -0.028286827109    12.000000000000
         C            0.013006866974    -1.088239015743    -0.028299827109    12.000000000000
         C           -1.779882133026     1.065017984257    -0.028223827109    12.000000000000
         C           -1.358992133026    -1.322985015743    -0.028241827109    12.000000000000
         C           -2.255967133026    -0.248239015743    -0.028204827109    12.000000000000
         C            1.946702866974     0.487974384257     0.221620172891    12.000000000000
         H           -0.025148133026     2.325854984257    -0.028306827109     1.007825032230
         H            0.731378866974    -1.904148015743    -0.028323827109     1.007825032230
         H           -2.478858133026     1.897647984257    -0.028194827109     1.007825032230
         H           -1.735543133026    -2.342942015743    -0.028228827109     1.007825032230
         H           -3.327048133026    -0.436065015743    -0.028156827109     1.007825032230
         H            2.237320866974     1.559555984257    -0.028438827109     1.007825032230

  Basis Set: AUG-CC-PVTZ
    Blend: AUG-CC-PVTZ
  Basis Set: (AUG-CC-PVTZ AUX)
    Blend: AUG-CC-PVTZ-JKFIT
	 Reference Energy          =    -343.5195350344598069 [Eh]
	 Singles Energy            =      -0.0000000000000000 [Eh]
	 Same-Spin Energy          =      -0.3656439419968218 [Eh]
	 Opposite-Spin Energy      =      -1.1341789454722040 [Eh]
	 Correlation Energy        =      -1.4998228874690258 [Eh]
	 Total Energy              =    -345.0193579219288154 [Eh]

	 ================> DF-SCS-MP2 Energies <==================
	-----------------------------------------------------------
	 SCS Same-Spin Scale       =       0.3333333333333333 [-]
	 SCS Opposite-Spin Scale   =       1.2000000000000000 [-]
	 SCS Same-Spin Energy      =      -0.1218813139989406 [Eh]
	 SCS Opposite-Spin Energy  =      -1.3610147345666448 [Eh]
	 SCS Correlation Energy    =      -1.4828960485655853 [Eh]
	 SCS Total Energy          =    -345.0024310830253853 [Eh]
	-----------------------------------------------------------

  Dipole Moment: [D]
     X:    -2.9224      Y:     1.1916      Z:     0.1626     Total:     3.1602

*** Psi4 exiting successfully. Buy a developer a beer!
