                               Psi4 1.3.2 release

  ==> Input File <==

--------------------------------------------------------------------------
#psi4
#
memory 32 gb

molecule  {
0 1
  O        2.8443680    -0.4002740    -0.0000640
  C        0.5303490     0.2197810    -0.0000320
  C       -0.3650130     1.2954270     0.0000030
  C        0.0536120    -1.0979650    -0.0000100
  C       -1.7392770     1.0552920     0.0000660
  C       -1.3183870    -1.3327110     0.0000480
  C       -2.2153620    -0.2579650     0.0000850
  C        1.9872980     0.4782480    -0.0000900
  H        0.0154570     2.3161290    -0.0000170
  H        0.7719840    -1.9138740    -0.0000340
  H       -2.4382597     1.8879220    -0.1499050
  H       -1.6949380    -2.3526680     0.0000610
  H       -3.2864430    -0.4457910     0.0001330
  H        2.2779260     1.5498300    -0.0001490
units angstrom
no_reorient  #important for SAPT in psi4, default
symmetry c1  #important for SAPT in psi4, default
}

set PROPERTIES_ORIGIN ["COM"]
properties('MP2/aug-cc-pvtz', properties = ['dipole'])
--------------------------------------------------------------------------

    Molecular point group: c1
  Charge       = 0
  Multiplicity = 1
  Basis Set: AUG-CC-PVTZ
    Blend: AUG-CC-PVTZ
  Basis Set: (AUG-CC-PVTZ AUX)
    Blend: AUG-CC-PVTZ-JKFIT

    Orbital Energies [Eh]
    ---------------------

    Doubly Occupied:

       1A    -20.556268     2A    -11.338996     3A    -11.264487
       4A    -11.261695     5A    -11.257180     6A    -11.255341
       7A    -11.255146     8A    -11.252544     9A     -1.381239
      10A     -1.172602    11A     -1.051352    12A     -1.034189
      13A     -0.895404    14A     -0.847142    15A     -0.792598
      16A     -0.719838    17A     -0.678056    18A     -0.652717
      19A     -0.619578    20A     -0.613823    21A     -0.604639
      22A     -0.552048    23A     -0.530784    24A     -0.511857
      25A     -0.499131    26A     -0.430990    27A     -0.356809
      28A     -0.352834

  @DF-RHF Final Energy:  -343.54656693496605

   => Energetics <=

    Nuclear Repulsion Energy =            320.4382109755116517
    One-Electron Energy =               -1100.4909791548816429
    Two-Electron Energy =                 436.5062012444039397
    Total Energy =                       -343.5465669349660516
  Basis Set: (AUG-CC-PVTZ AUX)
    Blend: AUG-CC-PVTZ-RI
    Molecular point group: c1

    Geometry (in Angstrom), charge = 0, multiplicity = 1:

       Center              X                  Y                   Z               Mass
    ------------   -----------------  -----------------  -----------------  -----------------
         O            2.803764062280    -0.390547970478     0.001362490690    15.994914619570
         C            0.489745062280     0.229507029522     0.001394490690    12.000000000000
         C           -0.405616937720     1.305153029522     0.001429490690    12.000000000000
         C            0.013008062280    -1.088238970478     0.001416490690    12.000000000000
         C           -1.779880937720     1.065018029522     0.001492490690    12.000000000000
         C           -1.358990937720    -1.322984970478     0.001474490690    12.000000000000
         C           -2.255965937720    -0.248238970478     0.001511490690    12.000000000000
         C            1.946694062280     0.487974029522     0.001336490690    12.000000000000
         H           -0.025146937720     2.325855029522     0.001409490690     1.007825032230
         H            0.731380062280    -1.904147970478     0.001392490690     1.007825032230
         H           -2.478863637720     1.897648029522    -0.148478509310     1.007825032230
         H           -1.735541937720    -2.342941970478     0.001487490690     1.007825032230
         H           -3.327046937720    -0.436064970478     0.001559490690     1.007825032230
         H            2.237322062280     1.559556029522     0.001277490690     1.007825032230

  Basis Set: AUG-CC-PVTZ
    Blend: AUG-CC-PVTZ
  Basis Set: (AUG-CC-PVTZ AUX)
    Blend: AUG-CC-PVTZ-JKFIT
	 Reference Energy          =    -343.5465669349660516 [Eh]
	 Singles Energy            =      -0.0000000000000000 [Eh]
	 Same-Spin Energy          =      -0.3639768885874660 [Eh]
	 Opposite-Spin Energy      =      -1.1298198164675759 [Eh]
	 Correlation Energy        =      -1.4937967050550418 [Eh]
	 Total Energy              =    -345.0403636400210985 [Eh]

	 ================> DF-SCS-MP2 Energies <==================
	-----------------------------------------------------------
	 SCS Same-Spin Scale       =       0.3333333333333333 [-]
	 SCS Opposite-Spin Scale   =       1.2000000000000000 [-]
	 SCS Same-Spin Energy      =      -0.1213256295291553 [Eh]
	 SCS Opposite-Spin Energy  =      -1.3557837797610910 [Eh]
	 SCS Correlation Energy    =      -1.4771094092902464 [Eh]
	 SCS Total Energy          =    -345.0236763442562733 [Eh]
	-----------------------------------------------------------

  Dipole Moment: [D]
     X:    -2.9971      Y:     1.2331      Z:    -0.0930     Total:     3.2421

*** Psi4 exiting successfully. Buy a developer a beer!
