                               Psi4 1.3.2 release

  ==> Input File <==

--------------------------------------------------------------------------
#psi4
#
memory 32 gb

molecule  {
0 1
  O        2.8443680    -0.4002740    -0.0000640
  C        0.5303490     0.2197810    -0.0000320
  C       -0.3650130     1.2954270     0.0000030
  C        0.0536120    -1.0979650    -0.0000100
  C       -1.7392770     1.0552920     0.0000660
  C       -1.3183870    -1.3327110     0.0000480
  C       -2.2153620    -0.2579650     0.0000850
  C        1.9872980     0.4782480    -0.0000900
  H        0.0154570     2.3161290    -0.0000170
  H        0.7719840    -1.9138740    -0.0000340
  H       -2.4382530     1.8879220     0.0000950
  H       -1.6949380    -2.3526680     0.0000610
  H       -3.2864430    -0.4457910     0.0001330
  H        2.2779246     1.5498274    -0.0501490
units angstrom
no_reorient  #important for SAPT in psi4, default
symmetry c1  #important for SAPT in psi4, default
}

set PROPERTIES_ORIGIN ["COM"]
properties('MP2/aug-cc-pvtz', properties = ['dipole'])
--------------------------------------------------------------------------

    Molecular point group: c1
  Charge       = 0
  Multiplicity = 1
  Basis Set: AUG-CC-PVTZ
    Blend: AUG-CC-PVTZ
  Basis Set: (AUG-CC-PVTZ AUX)
    Blend: AUG-CC-PVTZ-JKFIT

    Orbital Energies [Eh]
    ---------------------

    Doubly Occupied:

       1A    -20.556261     2A    -11.339052     3A    -11.264308
       4A    -11.261516     5A    -11.256996     6A    -11.255265
       7A    -11.254276     8A    -11.252471     9A     -1.381209
      10A     -1.172537    11A     -1.051303    12A     -1.034375
      13A     -0.895273    14A     -0.847405    15A     -0.793065
      16A     -0.719975    17A     -0.677941    18A     -0.653090
      19A     -0.620192    20A     -0.613752    21A     -0.605213
      22A     -0.551930    23A     -0.530740    24A     -0.511375
      25A     -0.500366    26A     -0.430881    27A     -0.356730
      28A     -0.352971

  @DF-RHF Final Energy:  -343.54786545111864

   => Energetics <=

    Nuclear Repulsion Energy =            320.4722648415274193
    One-Electron Energy =               -1100.5593282913348503
    Two-Electron Energy =                 436.5391979986887350
    Total Energy =                       -343.5478654511186392
  Basis Set: (AUG-CC-PVTZ AUX)
    Blend: AUG-CC-PVTZ-RI
    Molecular point group: c1

    Geometry (in Angstrom), charge = 0, multiplicity = 1:

       Center              X                  Y                   Z               Mass
    ------------   -----------------  -----------------  -----------------  -----------------
         O            2.803764011908    -0.390547945767     0.000412087721    15.994914619570
         C            0.489745011908     0.229507054233     0.000444087721    12.000000000000
         C           -0.405616988092     1.305153054233     0.000479087721    12.000000000000
         C            0.013008011908    -1.088238945767     0.000466087721    12.000000000000
         C           -1.779880988092     1.065018054233     0.000542087721    12.000000000000
         C           -1.358990988092    -1.322984945767     0.000524087721    12.000000000000
         C           -2.255965988092    -0.248238945767     0.000561087721    12.000000000000
         C            1.946694011908     0.487974054233     0.000386087721    12.000000000000
         H           -0.025146988092     2.325855054233     0.000459087721     1.007825032230
         H            0.731380011908    -1.904147945767     0.000442087721     1.007825032230
         H           -2.478856988092     1.897648054233     0.000571087721     1.007825032230
         H           -1.735541988092    -2.342941945767     0.000537087721     1.007825032230
         H           -3.327046988092    -0.436064945767     0.000609087721     1.007825032230
         H            2.237320611908     1.559553454233    -0.049672912279     1.007825032230

  Basis Set: AUG-CC-PVTZ
    Blend: AUG-CC-PVTZ
  Basis Set: (AUG-CC-PVTZ AUX)
    Blend: AUG-CC-PVTZ-JKFIT
	 Reference Energy          =    -343.5478654511186392 [Eh]
	 Singles Energy            =      -0.0000000000000000 [Eh]
	 Same-Spin Energy          =      -0.3639137280637165 [Eh]
	 Opposite-Spin Energy      =      -1.1296609042851808 [Eh]
	 Correlation Energy        =      -1.4935746323488974 [Eh]
	 Total Energy              =    -345.0414400834675348 [Eh]

	 ================> DF-SCS-MP2 Energies <==================
	-----------------------------------------------------------
	 SCS Same-Spin Scale       =       0.3333333333333333 [-]
	 SCS Opposite-Spin Scale   =       1.2000000000000000 [-]
	 SCS Same-Spin Energy      =      -0.1213045760212388 [Eh]
	 SCS Opposite-Spin Energy  =      -1.3555930851422169 [Eh]
	 SCS Correlation Energy    =      -1.4768976611634557 [Eh]
	 SCS Total Energy          =    -345.0247631122820735 [Eh]
	-----------------------------------------------------------

  Dipole Moment: [D]
     X:    -3.0109      Y:     1.2449      Z:    -0.0177     Total:     3.2581

*** Psi4 exiting successfully. Buy a developer a beer!
