                               Psi4 1.3.2 release

  ==> Input File <==

--------------------------------------------------------------------------
#psi4
#
memory 32 gb

molecule  {
0 1
  O        2.8443680    -0.4002740    -0.0000640
  C        0.5303490     0.2197810    -0.0000320
  C       -0.3650130     1.2954270     0.0000030
  C        0.0536120    -1.0979650    -0.0000100
  C       -1.7392770     1.0552920     0.0000660
  C       -1.3183870    -1.3327110     0.0000480
  C       -2.2153620    -0.2579650     0.0000850
  C        1.9872980     0.4782480    -0.0000900
  H        0.0154570     2.3161290    -0.0000170
  H        0.7719840    -1.9138740    -0.0000340
  H       -2.4382530     1.8879220     0.0000950
  H       -1.6949380    -2.3526680     0.0000610
  H       -3.2864452    -0.4457910    -0.0498670
  H        2.2779260     1.5498300    -0.0001490
units angstrom
no_reorient  #important for SAPT in psi4, default
symmetry c1  #important for SAPT in psi4, default
}

set PROPERTIES_ORIGIN ["COM"]
properties('MP2/aug-cc-pvtz', properties = ['dipole'])
--------------------------------------------------------------------------

    Molecular point group: c1
  Charge       = 0
  Multiplicity = 1
  Basis Set: AUG-CC-PVTZ
    Blend: AUG-CC-PVTZ
  Basis Set: (AUG-CC-PVTZ AUX)
    Blend: AUG-CC-PVTZ-JKFIT

    Orbital Energies [Eh]
    ---------------------

    Doubly Occupied:

       1A    -20.556219     2A    -11.338941     3A    -11.264317
       4A    -11.261616     5A    -11.256991     6A    -11.255258
       7A    -11.254293     8A    -11.252482     9A     -1.381185
      10A     -1.172538    11A     -1.051284    12A     -1.034381
      13A     -0.895296    14A     -0.847414    15A     -0.793162
      16A     -0.719958    17A     -0.677929    18A     -0.653063
      19A     -0.620150    20A     -0.613765    21A     -0.605222
      22A     -0.551979    23A     -0.530669    24A     -0.511380
      25A     -0.500267    26A     -0.430949    27A     -0.356727
      28A     -0.352958

  @DF-RHF Final Energy:  -343.54784958354549

   => Energetics <=

    Nuclear Repulsion Energy =            320.4723868972893115
    One-Electron Energy =               -1100.5596862752313427
    Two-Electron Energy =                 436.5394497943965462
    Total Energy =                       -343.5478495835454851
  Basis Set: (AUG-CC-PVTZ AUX)
    Blend: AUG-CC-PVTZ-RI
    Molecular point group: c1

    Geometry (in Angstrom), charge = 0, multiplicity = 1:

       Center              X                  Y                   Z               Mass
    ------------   -----------------  -----------------  -----------------  -----------------
         O            2.803764019512    -0.390547970478     0.000412087721    15.994914619570
         C            0.489745019512     0.229507029522     0.000444087721    12.000000000000
         C           -0.405616980488     1.305153029522     0.000479087721    12.000000000000
         C            0.013008019512    -1.088238970478     0.000466087721    12.000000000000
         C           -1.779880980488     1.065018029522     0.000542087721    12.000000000000
         C           -1.358990980488    -1.322984970478     0.000524087721    12.000000000000
         C           -2.255965980488    -0.248238970478     0.000561087721    12.000000000000
         C            1.946694019512     0.487974029522     0.000386087721    12.000000000000
         H           -0.025146980488     2.325855029522     0.000459087721     1.007825032230
         H            0.731380019512    -1.904147970478     0.000442087721     1.007825032230
         H           -2.478856980488     1.897648029522     0.000571087721     1.007825032230
         H           -1.735541980488    -2.342941970478     0.000537087721     1.007825032230
         H           -3.327049180488    -0.436064970478    -0.049390912279     1.007825032230
         H            2.237322019512     1.559556029522     0.000327087721     1.007825032230

  Basis Set: AUG-CC-PVTZ
    Blend: AUG-CC-PVTZ
  Basis Set: (AUG-CC-PVTZ AUX)
    Blend: AUG-CC-PVTZ-JKFIT
	 Reference Energy          =    -343.5478495835454851 [Eh]
	 Singles Energy            =      -0.0000000000000000 [Eh]
	 Same-Spin Energy          =      -0.3639142261953481 [Eh]
	 Opposite-Spin Energy      =      -1.1296636732892660 [Eh]
	 Correlation Energy        =      -1.4935778994846141 [Eh]
	 Total Energy              =    -345.0414274830300769 [Eh]

	 ================> DF-SCS-MP2 Energies <==================
	-----------------------------------------------------------
	 SCS Same-Spin Scale       =       0.3333333333333333 [-]
	 SCS Opposite-Spin Scale   =       1.2000000000000000 [-]
	 SCS Same-Spin Energy      =      -0.1213047420651160 [Eh]
	 SCS Opposite-Spin Energy  =      -1.3555964079471192 [Eh]
	 SCS Correlation Energy    =      -1.4769011500122353 [Eh]
	 SCS Total Energy          =    -345.0247507335577097 [Eh]
	-----------------------------------------------------------

  Dipole Moment: [D]
     X:    -3.0086      Y:     1.2471      Z:    -0.0316     Total:     3.2570

*** Psi4 exiting successfully. Buy a developer a beer!
