                               Psi4 1.3.2 release

  ==> Input File <==

--------------------------------------------------------------------------
#psi4
#
memory 32 gb

molecule  {
0 1
  O        2.8443680    -0.4002740    -0.0000640
  C        0.5303490     0.2197810    -0.0000320
  C       -0.3650130     1.2954270     0.0000030
  C        0.0536120    -1.0979650    -0.0000100
  C       -1.7392770     1.0552920     0.0000660
  C       -1.3183870    -1.3327110     0.0000480
  C       -2.2153620    -0.2579650     0.0000850
  C        1.9872980     0.4782480    -0.0000900
  H        0.0154570     2.3161290    -0.0000170
  H        0.7719840    -1.9138740    -0.0000340
  H       -2.4382530     1.8879220     0.0000950
  H       -1.6949380    -2.3526680     0.0000610
  H       -3.2864473    -0.4457910    -0.0998670
  H        2.2779260     1.5498300    -0.0001490
units angstrom
no_reorient  #important for SAPT in psi4, default
symmetry c1  #important for SAPT in psi4, default
}

set PROPERTIES_ORIGIN ["COM"]
properties('MP2/aug-cc-pvtz', properties = ['dipole'])
--------------------------------------------------------------------------

    Molecular point group: c1
  Charge       = 0
  Multiplicity = 1
  Basis Set: AUG-CC-PVTZ
    Blend: AUG-CC-PVTZ
  Basis Set: (AUG-CC-PVTZ AUX)
    Blend: AUG-CC-PVTZ-JKFIT

    Orbital Energies [Eh]
    ---------------------

    Doubly Occupied:

       1A    -20.556261     2A    -11.338975     3A    -11.264336
       4A    -11.261915     5A    -11.257014     6A    -11.255311
       7A    -11.254349     8A    -11.252533     9A     -1.381222
      10A     -1.172556    11A     -1.051222    12A     -1.034410
      13A     -0.895157    14A     -0.847428    15A     -0.793127
      16A     -0.719720    17A     -0.677710    18A     -0.653028
      19A     -0.620033    20A     -0.613762    21A     -0.605241
      22A     -0.552087    23A     -0.530470    24A     -0.511413
      25A     -0.500008    26A     -0.430987    27A     -0.356714
      28A     -0.352941

  @DF-RHF Final Energy:  -343.54736733836916

   => Energetics <=

    Nuclear Repulsion Energy =            320.4595601280876167
    One-Electron Energy =               -1100.5339914240253165
    Two-Electron Energy =                 436.5270639575686005
    Total Energy =                       -343.5473673383691562
  Basis Set: (AUG-CC-PVTZ AUX)
    Blend: AUG-CC-PVTZ-RI
    Molecular point group: c1

    Geometry (in Angstrom), charge = 0, multiplicity = 1:

       Center              X                  Y                   Z               Mass
    ------------   -----------------  -----------------  -----------------  -----------------
         O            2.803764039470    -0.390547970478     0.000887289206    15.994914619570
         C            0.489745039470     0.229507029522     0.000919289206    12.000000000000
         C           -0.405616960530     1.305153029522     0.000954289206    12.000000000000
         C            0.013008039470    -1.088238970478     0.000941289206    12.000000000000
         C           -1.779880960530     1.065018029522     0.001017289206    12.000000000000
         C           -1.358990960530    -1.322984970478     0.000999289206    12.000000000000
         C           -2.255965960530    -0.248238970478     0.001036289206    12.000000000000
         C            1.946694039470     0.487974029522     0.000861289206    12.000000000000
         H           -0.025146960530     2.325855029522     0.000934289206     1.007825032230
         H            0.731380039470    -1.904147970478     0.000917289206     1.007825032230
         H           -2.478856960530     1.897648029522     0.001046289206     1.007825032230
         H           -1.735541960530    -2.342941970478     0.001012289206     1.007825032230
         H           -3.327051260530    -0.436064970478    -0.098915710794     1.007825032230
         H            2.237322039470     1.559556029522     0.000802289206     1.007825032230

  Basis Set: AUG-CC-PVTZ
    Blend: AUG-CC-PVTZ
  Basis Set: (AUG-CC-PVTZ AUX)
    Blend: AUG-CC-PVTZ-JKFIT
	 Reference Energy          =    -343.5473673383691562 [Eh]
	 Singles Energy            =      -0.0000000000000000 [Eh]
	 Same-Spin Energy          =      -0.3639448592636231 [Eh]
	 Opposite-Spin Energy      =      -1.1297280235337557 [Eh]
	 Correlation Energy        =      -1.4936728827973789 [Eh]
	 Total Energy              =    -345.0410402211665541 [Eh]

	 ================> DF-SCS-MP2 Energies <==================
	-----------------------------------------------------------
	 SCS Same-Spin Scale       =       0.3333333333333333 [-]
	 SCS Opposite-Spin Scale   =       1.2000000000000000 [-]
	 SCS Same-Spin Energy      =      -0.1213149530878744 [Eh]
	 SCS Opposite-Spin Energy  =      -1.3556736282405069 [Eh]
	 SCS Correlation Energy    =      -1.4769885813283812 [Eh]
	 SCS Total Energy          =    -345.0243559196975411 [Eh]
	-----------------------------------------------------------

  Dipole Moment: [D]
     X:    -3.0023      Y:     1.2482      Z:    -0.0631     Total:     3.2521

*** Psi4 exiting successfully. Buy a developer a beer!
