                               Psi4 1.3.2 release

  ==> Input File <==

--------------------------------------------------------------------------
#psi4
#
memory 32 gb

molecule  {
0 1
  O        2.8443680    -0.4002740    -0.0000640
  C        0.5303490     0.2197810    -0.0000320
  C       -0.3650130     1.2954270     0.0000030
  C        0.0536120    -1.0979650    -0.0000100
  C       -1.7392770     1.0552920     0.0000660
  C       -1.3183870    -1.3327110     0.0000480
  C       -2.2153620    -0.2579650     0.0000850
  C        1.9872980     0.4782480    -0.0000900
  H        0.0154570     2.3161290    -0.0000170
  H        0.7719840    -1.9138740    -0.0000340
  H       -2.4382663     1.8879220    -0.2999050
  H       -1.6949380    -2.3526680     0.0000610
  H       -3.2864430    -0.4457910     0.0001330
  H        2.2779260     1.5498300    -0.0001490
units angstrom
no_reorient  #important for SAPT in psi4, default
symmetry c1  #important for SAPT in psi4, default
}

set PROPERTIES_ORIGIN ["COM"]
properties('MP2/aug-cc-pvtz', properties = ['dipole'])
--------------------------------------------------------------------------

    Molecular point group: c1
  Charge       = 0
  Multiplicity = 1
  Basis Set: AUG-CC-PVTZ
    Blend: AUG-CC-PVTZ
  Basis Set: (AUG-CC-PVTZ AUX)
    Blend: AUG-CC-PVTZ-JKFIT

    Orbital Energies [Eh]
    ---------------------

    Doubly Occupied:

       1A    -20.556469     2A    -11.339208     3A    -11.265045
       4A    -11.262266     5A    -11.257798     6A    -11.257704
       7A    -11.255633     8A    -11.252800     9A     -1.381446
      10A     -1.172842    11A     -1.051537    12A     -1.033720
      13A     -0.895614    14A     -0.846495    15A     -0.791052
      16A     -0.719344    17A     -0.678239    18A     -0.651846
      19A     -0.618137    20A     -0.614008    21A     -0.602548
      22A     -0.552370    23A     -0.530939    24A     -0.512844
      25A     -0.495900    26A     -0.431162    27A     -0.357069
      28A     -0.352484

  @DF-RHF Final Energy:  -343.54173830402470

   => Energetics <=

    Nuclear Repulsion Energy =            320.3275810786672650
    One-Electron Energy =               -1100.2655944952882692
    Two-Electron Energy =                 436.3962751125963564
    Total Energy =                       -343.5417383040247046
  Basis Set: (AUG-CC-PVTZ AUX)
    Blend: AUG-CC-PVTZ-RI
    Molecular point group: c1

    Geometry (in Angstrom), charge = 0, multiplicity = 1:

       Center              X                  Y                   Z               Mass
    ------------   -----------------  -----------------  -----------------  -----------------
         O            2.803764125006    -0.390547970478     0.002788095145    15.994914619570
         C            0.489745125006     0.229507029522     0.002820095145    12.000000000000
         C           -0.405616874994     1.305153029522     0.002855095145    12.000000000000
         C            0.013008125006    -1.088238970478     0.002842095145    12.000000000000
         C           -1.779880874994     1.065018029522     0.002918095145    12.000000000000
         C           -1.358990874994    -1.322984970478     0.002900095145    12.000000000000
         C           -2.255965874994    -0.248238970478     0.002937095145    12.000000000000
         C            1.946694125006     0.487974029522     0.002762095145    12.000000000000
         H           -0.025146874994     2.325855029522     0.002835095145     1.007825032230
         H            0.731380125006    -1.904147970478     0.002818095145     1.007825032230
         H           -2.478870174994     1.897648029522    -0.297052904855     1.007825032230
         H           -1.735541874994    -2.342941970478     0.002913095145     1.007825032230
         H           -3.327046874994    -0.436064970478     0.002985095145     1.007825032230
         H            2.237322125006     1.559556029522     0.002703095145     1.007825032230

  Basis Set: AUG-CC-PVTZ
    Blend: AUG-CC-PVTZ
  Basis Set: (AUG-CC-PVTZ AUX)
    Blend: AUG-CC-PVTZ-JKFIT
	 Reference Energy          =    -343.5417383040247046 [Eh]
	 Singles Energy            =      -0.0000000000000000 [Eh]
	 Same-Spin Energy          =      -0.3641817055792089 [Eh]
	 Opposite-Spin Energy      =      -1.1303932362540068 [Eh]
	 Correlation Energy        =      -1.4945749418332157 [Eh]
	 Total Energy              =    -345.0363132458579116 [Eh]

	 ================> DF-SCS-MP2 Energies <==================
	-----------------------------------------------------------
	 SCS Same-Spin Scale       =       0.3333333333333333 [-]
	 SCS Opposite-Spin Scale   =       1.2000000000000000 [-]
	 SCS Same-Spin Energy      =      -0.1213939018597363 [Eh]
	 SCS Opposite-Spin Energy  =      -1.3564718835048082 [Eh]
	 SCS Correlation Energy    =      -1.4778657853645445 [Eh]
	 SCS Total Energy          =    -345.0196040893892473 [Eh]
	-----------------------------------------------------------

  Dipole Moment: [D]
     X:    -2.9573      Y:     1.1930      Z:    -0.1827     Total:     3.1941

*** Psi4 exiting successfully. Buy a developer a beer!
