                               Psi4 1.3.2 release

  ==> Input File <==

--------------------------------------------------------------------------
#psi4
#
memory 32 gb

molecule  {
0 1
  O        2.8443680    -0.4002740    -0.0000640
  C        0.5303490     0.2197810    -0.0000320
  C       -0.3650130     1.2954270     0.0000030
  C        0.0536120    -1.0979650    -0.0000100
  C       -1.7392770     1.0552920     0.0000660
  C       -1.3183870    -1.3327110     0.0000480
  C       -2.2153620    -0.2579650     0.0000850
  C        1.9872980     0.4782480    -0.0000900
  H        0.0154503     2.3161284    -0.1500170
  H        0.7719840    -1.9138740    -0.0000340
  H       -2.4382530     1.8879220     0.0000950
  H       -1.6949380    -2.3526680     0.0000610
  H       -3.2864430    -0.4457910     0.0001330
  H        2.2779260     1.5498300    -0.0001490
units angstrom
no_reorient  #important for SAPT in psi4, default
symmetry c1  #important for SAPT in psi4, default
}

set PROPERTIES_ORIGIN ["COM"]
properties('MP2/aug-cc-pvtz', properties = ['dipole'])
--------------------------------------------------------------------------

    Molecular point group: c1
  Charge       = 0
  Multiplicity = 1
  Basis Set: AUG-CC-PVTZ
    Blend: AUG-CC-PVTZ
  Basis Set: (AUG-CC-PVTZ AUX)
    Blend: AUG-CC-PVTZ-JKFIT

    Orbital Energies [Eh]
    ---------------------

    Doubly Occupied:

       1A    -20.556239     2A    -11.338898     3A    -11.265168
       4A    -11.261570     5A    -11.257068     6A    -11.255384
       7A    -11.254456     8A    -11.252667     9A     -1.381193
      10A     -1.172565    11A     -1.051284    12A     -1.034236
      13A     -0.895327    14A     -0.846837    15A     -0.793171
      16A     -0.719358    17A     -0.677721    18A     -0.652752
      19A     -0.620049    20A     -0.613798    21A     -0.604535
      22A     -0.552060    23A     -0.530496    24A     -0.511465
      25A     -0.499644    26A     -0.430961    27A     -0.356600
      28A     -0.353030

  @DF-RHF Final Energy:  -343.54654968947136

   => Energetics <=

    Nuclear Repulsion Energy =            320.4363367329094103
    One-Electron Energy =               -1100.4887125355812714
    Two-Electron Energy =                 436.5058261132004418
    Total Energy =                       -343.5465496894713624
  Basis Set: (AUG-CC-PVTZ AUX)
    Blend: AUG-CC-PVTZ-RI
    Molecular point group: c1

    Geometry (in Angstrom), charge = 0, multiplicity = 1:

       Center              X                  Y                   Z               Mass
    ------------   -----------------  -----------------  -----------------  -----------------
         O            2.803764062280    -0.390547964775     0.001362490690    15.994914619570
         C            0.489745062280     0.229507035225     0.001394490690    12.000000000000
         C           -0.405616937720     1.305153035225     0.001429490690    12.000000000000
         C            0.013008062280    -1.088238964775     0.001416490690    12.000000000000
         C           -1.779880937720     1.065018035225     0.001492490690    12.000000000000
         C           -1.358990937720    -1.322984964775     0.001474490690    12.000000000000
         C           -2.255965937720    -0.248238964775     0.001511490690    12.000000000000
         C            1.946694062280     0.487974035225     0.001336490690    12.000000000000
         H           -0.025153637720     2.325854435225    -0.148590509310     1.007825032230
         H            0.731380062280    -1.904147964775     0.001392490690     1.007825032230
         H           -2.478856937720     1.897648035225     0.001521490690     1.007825032230
         H           -1.735541937720    -2.342941964775     0.001487490690     1.007825032230
         H           -3.327046937720    -0.436064964775     0.001559490690     1.007825032230
         H            2.237322062280     1.559556035225     0.001277490690     1.007825032230

  Basis Set: AUG-CC-PVTZ
    Blend: AUG-CC-PVTZ
  Basis Set: (AUG-CC-PVTZ AUX)
    Blend: AUG-CC-PVTZ-JKFIT
	 Reference Energy          =    -343.5465496894713624 [Eh]
	 Singles Energy            =      -0.0000000000000000 [Eh]
	 Same-Spin Energy          =      -0.3639979726039365 [Eh]
	 Opposite-Spin Energy      =      -1.1298244995012436 [Eh]
	 Correlation Energy        =      -1.4938224721051800 [Eh]
	 Total Energy              =    -345.0403721615765562 [Eh]

	 ================> DF-SCS-MP2 Energies <==================
	-----------------------------------------------------------
	 SCS Same-Spin Scale       =       0.3333333333333333 [-]
	 SCS Opposite-Spin Scale   =       1.2000000000000000 [-]
	 SCS Same-Spin Energy      =      -0.1213326575346455 [Eh]
	 SCS Opposite-Spin Energy  =      -1.3557893994014922 [Eh]
	 SCS Correlation Energy    =      -1.4771220569361376 [Eh]
	 SCS Total Energy          =    -345.0236717464075014 [Eh]
	-----------------------------------------------------------

  Dipole Moment: [D]
     X:    -3.0171      Y:     1.2300      Z:    -0.0954     Total:     3.2596

*** Psi4 exiting successfully. Buy a developer a beer!
