                               Psi4 1.3.2 release

  ==> Input File <==

--------------------------------------------------------------------------
#psi4
#
memory 32 gb

molecule  {
0 1
  O        2.8443680    -0.4002740    -0.0000640
  C        0.5303490     0.2197810    -0.0000320
  C       -0.3650130     1.2954270     0.0000030
  C        0.0536120    -1.0979650    -0.0000100
  C       -1.7392770     1.0552920     0.0000660
  C       -1.3183870    -1.3327110     0.0000480
  C       -2.2153620    -0.2579650     0.0000850
  C        1.9872980     0.4782480    -0.0000900
  H        0.0154570     2.3161290    -0.0000170
  H        0.7719840    -1.9138740    -0.0000340
  H       -2.4382530     1.8879220     0.0000950
  H       -1.6949380    -2.3526680     0.0000610
  H       -3.2864516    -0.4457910    -0.1998670
  H        2.2779260     1.5498300    -0.0001490
units angstrom
no_reorient  #important for SAPT in psi4, default
symmetry c1  #important for SAPT in psi4, default
}

set PROPERTIES_ORIGIN ["COM"]
properties('MP2/aug-cc-pvtz', properties = ['dipole'])
--------------------------------------------------------------------------

    Molecular point group: c1
  Charge       = 0
  Multiplicity = 1
  Basis Set: AUG-CC-PVTZ
    Blend: AUG-CC-PVTZ
  Basis Set: (AUG-CC-PVTZ AUX)
    Blend: AUG-CC-PVTZ-JKFIT

    Orbital Energies [Eh]
    ---------------------

    Doubly Occupied:

       1A    -20.556432     2A    -11.339113     3A    -11.264419
       4A    -11.263109     5A    -11.257116     6A    -11.255530
       7A    -11.254583     8A    -11.252747     9A     -1.381374
      10A     -1.172638    11A     -1.050995    12A     -1.034535
      13A     -0.894633    14A     -0.847495    15A     -0.793008
      16A     -0.718841    17A     -0.676860    18A     -0.652888
      19A     -0.619583    20A     -0.613738    21A     -0.605328
      22A     -0.552494    23A     -0.529700    24A     -0.511548
      25A     -0.498968    26A     -0.431141    27A     -0.356680
      28A     -0.352877

  @DF-RHF Final Energy:  -343.54533321468176

   => Energetics <=

    Nuclear Repulsion Energy =            320.4091706886738393
    One-Electron Energy =               -1100.4322612412347553
    Two-Electron Energy =                 436.4777573378791544
    Total Energy =                       -343.5453332146817615
  Basis Set: (AUG-CC-PVTZ AUX)
    Blend: AUG-CC-PVTZ-RI
    Molecular point group: c1

    Geometry (in Angstrom), charge = 0, multiplicity = 1:

       Center              X                  Y                   Z               Mass
    ------------   -----------------  -----------------  -----------------  -----------------
         O            2.803764080337    -0.390547970478     0.001837692175    15.994914619570
         C            0.489745080337     0.229507029522     0.001869692175    12.000000000000
         C           -0.405616919663     1.305153029522     0.001904692175    12.000000000000
         C            0.013008080337    -1.088238970478     0.001891692175    12.000000000000
         C           -1.779880919663     1.065018029522     0.001967692175    12.000000000000
         C           -1.358990919663    -1.322984970478     0.001949692175    12.000000000000
         C           -2.255965919663    -0.248238970478     0.001986692175    12.000000000000
         C            1.946694080337     0.487974029522     0.001811692175    12.000000000000
         H           -0.025146919663     2.325855029522     0.001884692175     1.007825032230
         H            0.731380080337    -1.904147970478     0.001867692175     1.007825032230
         H           -2.478856919663     1.897648029522     0.001996692175     1.007825032230
         H           -1.735541919663    -2.342941970478     0.001962692175     1.007825032230
         H           -3.327055519663    -0.436064970478    -0.197965307825     1.007825032230
         H            2.237322080337     1.559556029522     0.001752692175     1.007825032230

  Basis Set: AUG-CC-PVTZ
    Blend: AUG-CC-PVTZ
  Basis Set: (AUG-CC-PVTZ AUX)
    Blend: AUG-CC-PVTZ-JKFIT
	 Reference Energy          =    -343.5453332146817615 [Eh]
	 Singles Energy            =      -0.0000000000000000 [Eh]
	 Same-Spin Energy          =      -0.3640624464303589 [Eh]
	 Opposite-Spin Energy      =      -1.1300113744007976 [Eh]
	 Correlation Energy        =      -1.4940738208311566 [Eh]
	 Total Energy              =    -345.0394070355129088 [Eh]

	 ================> DF-SCS-MP2 Energies <==================
	-----------------------------------------------------------
	 SCS Same-Spin Scale       =       0.3333333333333333 [-]
	 SCS Opposite-Spin Scale   =       1.2000000000000000 [-]
	 SCS Same-Spin Energy      =      -0.1213541488101196 [Eh]
	 SCS Opposite-Spin Energy  =      -1.3560136492809571 [Eh]
	 SCS Correlation Energy    =      -1.4773677980910769 [Eh]
	 SCS Total Energy          =    -345.0227010127728136 [Eh]
	-----------------------------------------------------------

  Dipole Moment: [D]
     X:    -2.9777      Y:     1.2524      Z:    -0.1252     Total:     3.2328

*** Psi4 exiting successfully. Buy a developer a beer!
