                               Psi4 1.3.2 release

  ==> Input File <==

--------------------------------------------------------------------------
#psi4
#
memory 32 gb

molecule  {
0 1
  O        2.8443680    -0.4002740    -0.0000640
  C        0.5303490     0.2197810    -0.0000320
  C       -0.3650130     1.2954270     0.0000030
  C        0.0536120    -1.0979650    -0.0000100
  C       -1.7392770     1.0552920     0.0000660
  C       -1.3183870    -1.3327110     0.0000480
  C       -2.2153620    -0.2579650     0.0000850
  C        1.9872980     0.4782480    -0.0000900
  H        0.0154570     2.3161290    -0.0000170
  H        0.7719840    -1.9138740    -0.0000340
  H       -2.4382530     1.8879220     0.0000950
  H       -1.6949380    -2.3526680     0.0000610
  H       -3.2864495    -0.4457910    -0.1498670
  H        2.2779260     1.5498300    -0.0001490
units angstrom
no_reorient  #important for SAPT in psi4, default
symmetry c1  #important for SAPT in psi4, default
}

set PROPERTIES_ORIGIN ["COM"]
properties('MP2/aug-cc-pvtz', properties = ['dipole'])
--------------------------------------------------------------------------

    Molecular point group: c1
  Charge       = 0
  Multiplicity = 1
  Basis Set: AUG-CC-PVTZ
    Blend: AUG-CC-PVTZ
  Basis Set: (AUG-CC-PVTZ AUX)
    Blend: AUG-CC-PVTZ-JKFIT

    Orbital Energies [Eh]
    ---------------------

    Doubly Occupied:

       1A    -20.556332     2A    -11.339032     3A    -11.264369
       4A    -11.262414     5A    -11.257055     6A    -11.255402
       7A    -11.254445     8A    -11.252621     9A     -1.381285
      10A     -1.172589    11A     -1.051124    12A     -1.034461
      13A     -0.894932    14A     -0.847454    15A     -0.793074
      16A     -0.719340    17A     -0.677351    18A     -0.652970
      19A     -0.619841    20A     -0.613756    21A     -0.605277
      22A     -0.552262    23A     -0.530144    24A     -0.511468
      25A     -0.499576    26A     -0.431051    27A     -0.356697
      28A     -0.352915

  @DF-RHF Final Energy:  -343.54653921839270

   => Energetics <=

    Nuclear Repulsion Energy =            320.4383879528290322
    One-Electron Energy =               -1100.4913780614938332
    Two-Electron Energy =                 436.5064508902720490
    Total Energy =                       -343.5465392183926951
  Basis Set: (AUG-CC-PVTZ AUX)
    Blend: AUG-CC-PVTZ-RI
    Molecular point group: c1

    Geometry (in Angstrom), charge = 0, multiplicity = 1:

       Center              X                  Y                   Z               Mass
    ------------   -----------------  -----------------  -----------------  -----------------
         O            2.803764060379    -0.390547970478     0.001362490690    15.994914619570
         C            0.489745060379     0.229507029522     0.001394490690    12.000000000000
         C           -0.405616939621     1.305153029522     0.001429490690    12.000000000000
         C            0.013008060379    -1.088238970478     0.001416490690    12.000000000000
         C           -1.779880939621     1.065018029522     0.001492490690    12.000000000000
         C           -1.358990939621    -1.322984970478     0.001474490690    12.000000000000
         C           -2.255965939621    -0.248238970478     0.001511490690    12.000000000000
         C            1.946694060379     0.487974029522     0.001336490690    12.000000000000
         H           -0.025146939621     2.325855029522     0.001409490690     1.007825032230
         H            0.731380060379    -1.904147970478     0.001392490690     1.007825032230
         H           -2.478856939621     1.897648029522     0.001521490690     1.007825032230
         H           -1.735541939621    -2.342941970478     0.001487490690     1.007825032230
         H           -3.327053439621    -0.436064970478    -0.148440509310     1.007825032230
         H            2.237322060379     1.559556029522     0.001277490690     1.007825032230

  Basis Set: AUG-CC-PVTZ
    Blend: AUG-CC-PVTZ
  Basis Set: (AUG-CC-PVTZ AUX)
    Blend: AUG-CC-PVTZ-JKFIT
	 Reference Energy          =    -343.5465392183926951 [Eh]
	 Singles Energy            =      -0.0000000000000000 [Eh]
	 Same-Spin Energy          =      -0.3639945690456257 [Eh]
	 Opposite-Spin Energy      =      -1.1298431250004388 [Eh]
	 Correlation Energy        =      -1.4938376940460645 [Eh]
	 Total Energy              =    -345.0403769124387736 [Eh]

	 ================> DF-SCS-MP2 Energies <==================
	-----------------------------------------------------------
	 SCS Same-Spin Scale       =       0.3333333333333333 [-]
	 SCS Opposite-Spin Scale   =       1.2000000000000000 [-]
	 SCS Same-Spin Energy      =      -0.1213315230152086 [Eh]
	 SCS Opposite-Spin Energy  =      -1.3558117500005264 [Eh]
	 SCS Correlation Energy    =      -1.4771432730157350 [Eh]
	 SCS Total Energy          =    -345.0236824914084082 [Eh]
	-----------------------------------------------------------

  Dipole Moment: [D]
     X:    -2.9920      Y:     1.2500      Z:    -0.0944     Total:     3.2440

*** Psi4 exiting successfully. Buy a developer a beer!
