                               Psi4 1.3.2 release

  ==> Input File <==

--------------------------------------------------------------------------
#psi4
#
memory 32 gb

molecule  {
0 1
  O        2.8443680    -0.4002740    -0.0000640
  C        0.5303490     0.2197810    -0.0000320
  C       -0.3650130     1.2954270     0.0000030
  C        0.0536120    -1.0979650    -0.0000100
  C       -1.7392770     1.0552920     0.0000660
  C       -1.3183870    -1.3327110     0.0000480
  C       -2.2153620    -0.2579650     0.0000850
  C        1.9872980     0.4782480    -0.0000900
  H        0.0154570     2.3161290    -0.0000170
  H        0.7719840    -1.9138740    -0.0000340
  H       -2.4382530     1.8879220     0.0000950
  H       -1.6949380    -2.3526680     0.0000610
  H       -3.2864430    -0.4457910     0.0001330
  H        2.2779191     1.5498171    -0.2501490
units angstrom
no_reorient  #important for SAPT in psi4, default
symmetry c1  #important for SAPT in psi4, default
}

set PROPERTIES_ORIGIN ["COM"]
properties('MP2/aug-cc-pvtz', properties = ['dipole'])
--------------------------------------------------------------------------

    Molecular point group: c1
  Charge       = 0
  Multiplicity = 1
  Basis Set: AUG-CC-PVTZ
    Blend: AUG-CC-PVTZ
  Basis Set: (AUG-CC-PVTZ AUX)
    Blend: AUG-CC-PVTZ-JKFIT

    Orbital Energies [Eh]
    ---------------------

    Doubly Occupied:

       1A    -20.557589     2A    -11.341918     3A    -11.264239
       4A    -11.261527     5A    -11.257300     6A    -11.255859
       7A    -11.254318     8A    -11.252601     9A     -1.382082
      10A     -1.172653    11A     -1.051277    12A     -1.034466
      13A     -0.893759    14A     -0.847321    15A     -0.790619
      16A     -0.718501    17A     -0.676432    18A     -0.653469
      19A     -0.620245    20A     -0.613375    21A     -0.605158
      22A     -0.551664    23A     -0.530814    24A     -0.511507
      25A     -0.500685    26A     -0.429523    27A     -0.356694
      28A     -0.353160

  @DF-RHF Final Energy:  -343.54417709963553

   => Energetics <=

    Nuclear Repulsion Energy =            320.3690665299801026
    One-Electron Energy =               -1100.3489782101794390
    Two-Electron Energy =                 436.4357345805638602
    Total Energy =                       -343.5441770996355331
  Basis Set: (AUG-CC-PVTZ AUX)
    Blend: AUG-CC-PVTZ-RI
    Molecular point group: c1

    Geometry (in Angstrom), charge = 0, multiplicity = 1:

       Center              X                  Y                   Z               Mass
    ------------   -----------------  -----------------  -----------------  -----------------
         O            2.803764064181    -0.390547847876     0.002312893660    15.994914619570
         C            0.489745064181     0.229507152124     0.002344893660    12.000000000000
         C           -0.405616935819     1.305153152124     0.002379893660    12.000000000000
         C            0.013008064181    -1.088238847876     0.002366893660    12.000000000000
         C           -1.779880935819     1.065018152124     0.002442893660    12.000000000000
         C           -1.358990935819    -1.322984847876     0.002424893660    12.000000000000
         C           -2.255965935819    -0.248238847876     0.002461893660    12.000000000000
         C            1.946694064181     0.487974152124     0.002286893660    12.000000000000
         H           -0.025146935819     2.325855152124     0.002359893660     1.007825032230
         H            0.731380064181    -1.904147847876     0.002342893660     1.007825032230
         H           -2.478856935819     1.897648152124     0.002471893660     1.007825032230
         H           -1.735541935819    -2.342941847876     0.002437893660     1.007825032230
         H           -3.327046935819    -0.436064847876     0.002509893660     1.007825032230
         H            2.237315164181     1.559543252124    -0.247772106340     1.007825032230

  Basis Set: AUG-CC-PVTZ
    Blend: AUG-CC-PVTZ
  Basis Set: (AUG-CC-PVTZ AUX)
    Blend: AUG-CC-PVTZ-JKFIT
	 Reference Energy          =    -343.5441770996355331 [Eh]
	 Singles Energy            =      -0.0000000000000000 [Eh]
	 Same-Spin Energy          =      -0.3641488755178071 [Eh]
	 Opposite-Spin Energy      =      -1.1301428785502581 [Eh]
	 Correlation Energy        =      -1.4942917540680651 [Eh]
	 Total Energy              =    -345.0384688537035913 [Eh]

	 ================> DF-SCS-MP2 Energies <==================
	-----------------------------------------------------------
	 SCS Same-Spin Scale       =       0.3333333333333333 [-]
	 SCS Opposite-Spin Scale   =       1.2000000000000000 [-]
	 SCS Same-Spin Energy      =      -0.1213829585059357 [Eh]
	 SCS Opposite-Spin Energy  =      -1.3561714542603096 [Eh]
	 SCS Correlation Energy    =      -1.4775544127662452 [Eh]
	 SCS Total Energy          =    -345.0217315124018000 [Eh]
	-----------------------------------------------------------

  Dipole Moment: [D]
     X:    -3.0167      Y:     1.1988      Z:    -0.0837     Total:     3.2473

*** Psi4 exiting successfully. Buy a developer a beer!
