                               Psi4 1.3.2 release

  ==> Input File <==

--------------------------------------------------------------------------
#psi4
#
memory 32 gb

molecule  {
0 1
  O        2.8443680    -0.4002740    -0.0000640
  C        0.5303490     0.2197810    -0.0000320
  C       -0.3650130     1.2954270     0.0000030
  C        0.0536120    -1.0979650    -0.0000100
  C       -1.7392770     1.0552920     0.0000660
  C       -1.3183870    -1.3327110     0.0000480
  C       -2.2153620    -0.2579650     0.0000850
  C        1.9873000     0.4782481     0.0499100
  H        0.0154570     2.3161290    -0.0000170
  H        0.7719840    -1.9138740    -0.0000340
  H       -2.4382530     1.8879220     0.0000950
  H       -1.6949380    -2.3526680     0.0000610
  H       -3.2864430    -0.4457910     0.0001330
  H        2.2779260     1.5498300    -0.0001490
units angstrom
no_reorient  #important for SAPT in psi4, default
symmetry c1  #important for SAPT in psi4, default
}

set PROPERTIES_ORIGIN ["COM"]
properties('MP2/aug-cc-pvtz', properties = ['dipole'])
--------------------------------------------------------------------------

    Molecular point group: c1
  Charge       = 0
  Multiplicity = 1
  Basis Set: AUG-CC-PVTZ
    Blend: AUG-CC-PVTZ
  Basis Set: (AUG-CC-PVTZ AUX)
    Blend: AUG-CC-PVTZ-JKFIT

    Orbital Energies [Eh]
    ---------------------

    Doubly Occupied:

       1A    -20.556492     2A    -11.339287     3A    -11.264271
       4A    -11.261483     5A    -11.256971     6A    -11.255341
       7A    -11.254263     8A    -11.252454     9A     -1.380713
      10A     -1.172491    11A     -1.051195    12A     -1.034348
      13A     -0.895186    14A     -0.847365    15A     -0.793096
      16A     -0.719881    17A     -0.677787    18A     -0.652977
      19A     -0.620101    20A     -0.613591    21A     -0.605173
      22A     -0.551745    23A     -0.530688    24A     -0.511357
      25A     -0.500173    26A     -0.430870    27A     -0.356672
      28A     -0.352891

  @DF-RHF Final Energy:  -343.54687520649037

   => Energetics <=

    Nuclear Repulsion Energy =            320.4445443001310991
    One-Electron Energy =               -1100.5051118976452926
    Two-Electron Energy =                 436.5136923910237670
    Total Energy =                       -343.5468752064903697
  Basis Set: (AUG-CC-PVTZ AUX)
    Blend: AUG-CC-PVTZ-RI
    Molecular point group: c1

    Geometry (in Angstrom), charge = 0, multiplicity = 1:

       Center              X                  Y                   Z               Mass
    ------------   -----------------  -----------------  -----------------  -----------------
         O            2.803763772277    -0.390547981794    -0.005721256433    15.994914619570
         C            0.489744772277     0.229507018206    -0.005689256433    12.000000000000
         C           -0.405617227723     1.305153018206    -0.005654256433    12.000000000000
         C            0.013007772277    -1.088238981794    -0.005667256433    12.000000000000
         C           -1.779881227723     1.065018018206    -0.005591256433    12.000000000000
         C           -1.358991227723    -1.322984981794    -0.005609256433    12.000000000000
         C           -2.255966227723    -0.248238981794    -0.005572256433    12.000000000000
         C            1.946695772277     0.487974118206     0.044252743567    12.000000000000
         H           -0.025147227723     2.325855018206    -0.005674256433     1.007825032230
         H            0.731379772277    -1.904147981794    -0.005691256433     1.007825032230
         H           -2.478857227723     1.897648018206    -0.005562256433     1.007825032230
         H           -1.735542227723    -2.342941981794    -0.005596256433     1.007825032230
         H           -3.327047227723    -0.436064981794    -0.005524256433     1.007825032230
         H            2.237321772277     1.559556018206    -0.005806256433     1.007825032230

  Basis Set: AUG-CC-PVTZ
    Blend: AUG-CC-PVTZ
  Basis Set: (AUG-CC-PVTZ AUX)
    Blend: AUG-CC-PVTZ-JKFIT
	 Reference Energy          =    -343.5468752064903697 [Eh]
	 Singles Energy            =      -0.0000000000000000 [Eh]
	 Same-Spin Energy          =      -0.3639734736682022 [Eh]
	 Opposite-Spin Energy      =      -1.1297781439170185 [Eh]
	 Correlation Energy        =      -1.4937516175852208 [Eh]
	 Total Energy              =    -345.0406268240756162 [Eh]

	 ================> DF-SCS-MP2 Energies <==================
	-----------------------------------------------------------
	 SCS Same-Spin Scale       =       0.3333333333333333 [-]
	 SCS Opposite-Spin Scale   =       1.2000000000000000 [-]
	 SCS Same-Spin Energy      =      -0.1213244912227341 [Eh]
	 SCS Opposite-Spin Energy  =      -1.3557337727004222 [Eh]
	 SCS Correlation Energy    =      -1.4770582639231562 [Eh]
	 SCS Total Energy          =    -345.0239334704135103 [Eh]
	-----------------------------------------------------------

  Dipole Moment: [D]
     X:    -3.0071      Y:     1.2445      Z:     0.0362     Total:     3.2547

*** Psi4 exiting successfully. Buy a developer a beer!
