                               Psi4 1.3.2 release

  ==> Input File <==

--------------------------------------------------------------------------
#psi4
#
memory 32 gb

molecule  {
0 1
  O        2.8443680    -0.4002740    -0.0000640
  C        0.5303490     0.2197810    -0.0000320
  C       -0.3650130     1.2954270     0.0000030
  C        0.0536120    -1.0979650    -0.0000100
  C       -1.7392770     1.0552920     0.0000660
  C       -1.3183870    -1.3327110     0.0000480
  C       -2.2153620    -0.2579650     0.0000850
  C        1.9872980     0.4782480    -0.0000900
  H        0.0154570     2.3161290    -0.0000170
  H        0.7719840    -1.9138740    -0.0000340
  H       -2.4382530     1.8879220     0.0000950
  H       -1.6949380    -2.3526680     0.0000610
  H       -3.2864430    -0.4457910     0.0001330
  H        2.2779205     1.5498197    -0.2001490
units angstrom
no_reorient  #important for SAPT in psi4, default
symmetry c1  #important for SAPT in psi4, default
}

set PROPERTIES_ORIGIN ["COM"]
properties('MP2/aug-cc-pvtz', properties = ['dipole'])
--------------------------------------------------------------------------

    Molecular point group: c1
  Charge       = 0
  Multiplicity = 1
  Basis Set: AUG-CC-PVTZ
    Blend: AUG-CC-PVTZ
  Basis Set: (AUG-CC-PVTZ AUX)
    Blend: AUG-CC-PVTZ-JKFIT

    Orbital Energies [Eh]
    ---------------------

    Doubly Occupied:

       1A    -20.557091     2A    -11.340855     3A    -11.264262
       4A    -11.261521     5A    -11.257180     6A    -11.255639
       7A    -11.254301     8A    -11.252551     9A     -1.381755
      10A     -1.172607    11A     -1.051282    12A     -1.034430
      13A     -0.894291    14A     -0.847348    15A     -0.791496
      16A     -0.719035    17A     -0.677003    18A     -0.653326
      19A     -0.620221    20A     -0.613523    21A     -0.605180
      22A     -0.551757    23A     -0.530784    24A     -0.511456
      25A     -0.500564    26A     -0.430040    27A     -0.356707
      28A     -0.353088

  @DF-RHF Final Energy:  -343.54561805042920

   => Energetics <=

    Nuclear Repulsion Energy =            320.4071392155835269
    One-Electron Energy =               -1100.4269323527066717
    Two-Electron Energy =                 436.4741750866938901
    Total Energy =                       -343.5456180504291979
  Basis Set: (AUG-CC-PVTZ AUX)
    Blend: AUG-CC-PVTZ-RI
    Molecular point group: c1

    Geometry (in Angstrom), charge = 0, multiplicity = 1:

       Center              X                  Y                   Z               Mass
    ------------   -----------------  -----------------  -----------------  -----------------
         O            2.803764050875    -0.390547872586     0.001837692175    15.994914619570
         C            0.489745050875     0.229507127414     0.001869692175    12.000000000000
         C           -0.405616949125     1.305153127414     0.001904692175    12.000000000000
         C            0.013008050875    -1.088238872586     0.001891692175    12.000000000000
         C           -1.779880949125     1.065018127414     0.001967692175    12.000000000000
         C           -1.358990949125    -1.322984872586     0.001949692175    12.000000000000
         C           -2.255965949125    -0.248238872586     0.001986692175    12.000000000000
         C            1.946694050875     0.487974127414     0.001811692175    12.000000000000
         H           -0.025146949125     2.325855127414     0.001884692175     1.007825032230
         H            0.731380050875    -1.904147872586     0.001867692175     1.007825032230
         H           -2.478856949125     1.897648127414     0.001996692175     1.007825032230
         H           -1.735541949125    -2.342941872586     0.001962692175     1.007825032230
         H           -3.327046949125    -0.436064872586     0.002034692175     1.007825032230
         H            2.237316550875     1.559545827414    -0.198247307825     1.007825032230

  Basis Set: AUG-CC-PVTZ
    Blend: AUG-CC-PVTZ
  Basis Set: (AUG-CC-PVTZ AUX)
    Blend: AUG-CC-PVTZ-JKFIT
	 Reference Energy          =    -343.5456180504291979 [Eh]
	 Singles Energy            =      -0.0000000000000000 [Eh]
	 Same-Spin Energy          =      -0.3640612245862602 [Eh]
	 Opposite-Spin Energy      =      -1.1299509767813480 [Eh]
	 Correlation Energy        =      -1.4940122013676083 [Eh]
	 Total Energy              =    -345.0396302517967797 [Eh]

	 ================> DF-SCS-MP2 Energies <==================
	-----------------------------------------------------------
	 SCS Same-Spin Scale       =       0.3333333333333333 [-]
	 SCS Opposite-Spin Scale   =       1.2000000000000000 [-]
	 SCS Same-Spin Energy      =      -0.1213537415287534 [Eh]
	 SCS Opposite-Spin Energy  =      -1.3559411721376176 [Eh]
	 SCS Correlation Energy    =      -1.4772949136663709 [Eh]
	 SCS Total Energy          =    -345.0229129640955534 [Eh]
	-----------------------------------------------------------

  Dipole Moment: [D]
     X:    -3.0144      Y:     1.2161      Z:    -0.0685     Total:     3.2512

*** Psi4 exiting successfully. Buy a developer a beer!
