                               Psi4 1.3.2 release

  ==> Input File <==

--------------------------------------------------------------------------
#psi4
#
memory 32 gb

molecule  {
0 1
  O        2.8443680    -0.4002740    -0.0000640
  C        0.5303490     0.2197810    -0.0000320
  C       -0.3650130     1.2954270     0.0000030
  C        0.0536120    -1.0979650    -0.0000100
  C       -1.7392770     1.0552920     0.0000660
  C       -1.3183870    -1.3327110     0.0000480
  C       -2.2153620    -0.2579650     0.0000850
  C        1.9872980     0.4782480    -0.0000900
  H        0.0154481     2.3161282    -0.2000170
  H        0.7719840    -1.9138740    -0.0000340
  H       -2.4382530     1.8879220     0.0000950
  H       -1.6949380    -2.3526680     0.0000610
  H       -3.2864430    -0.4457910     0.0001330
  H        2.2779260     1.5498300    -0.0001490
units angstrom
no_reorient  #important for SAPT in psi4, default
symmetry c1  #important for SAPT in psi4, default
}

set PROPERTIES_ORIGIN ["COM"]
properties('MP2/aug-cc-pvtz', properties = ['dipole'])
--------------------------------------------------------------------------

    Molecular point group: c1
  Charge       = 0
  Multiplicity = 1
  Basis Set: AUG-CC-PVTZ
    Blend: AUG-CC-PVTZ
  Basis Set: (AUG-CC-PVTZ AUX)
    Blend: AUG-CC-PVTZ-JKFIT

    Orbital Energies [Eh]
    ---------------------

    Doubly Occupied:

       1A    -20.556267     2A    -11.338875     3A    -11.265828
       4A    -11.261615     5A    -11.257137     6A    -11.255500
       7A    -11.254600     8A    -11.252824     9A     -1.381210
      10A     -1.172595    11A     -1.051275    12A     -1.034138
      13A     -0.895319    14A     -0.846417    15A     -0.793173
      16A     -0.718864    17A     -0.677514    18A     -0.652508
      19A     -0.619955    20A     -0.613826    21A     -0.603989
      22A     -0.552151    23A     -0.530317    24A     -0.511525
      25A     -0.499098    26A     -0.430982    27A     -0.356504
      28A     -0.353083

  @DF-RHF Final Energy:  -343.54535419383461

   => Energetics <=

    Nuclear Repulsion Energy =            320.4055262388730512
    One-Electron Energy =               -1100.4275840286979928
    Two-Electron Energy =                 436.4767035959902728
    Total Energy =                       -343.5453541938346120
  Basis Set: (AUG-CC-PVTZ AUX)
    Blend: AUG-CC-PVTZ-RI
    Molecular point group: c1

    Geometry (in Angstrom), charge = 0, multiplicity = 1:

       Center              X                  Y                   Z               Mass
    ------------   -----------------  -----------------  -----------------  -----------------
         O            2.803764083189    -0.390547962875     0.001837692175    15.994914619570
         C            0.489745083189     0.229507037125     0.001869692175    12.000000000000
         C           -0.405616916811     1.305153037125     0.001904692175    12.000000000000
         C            0.013008083189    -1.088238962875     0.001891692175    12.000000000000
         C           -1.779880916811     1.065018037125     0.001967692175    12.000000000000
         C           -1.358990916811    -1.322984962875     0.001949692175    12.000000000000
         C           -2.255965916811    -0.248238962875     0.001986692175    12.000000000000
         C            1.946694083189     0.487974037125     0.001811692175    12.000000000000
         H           -0.025155816811     2.325854237125    -0.198115307825     1.007825032230
         H            0.731380083189    -1.904147962875     0.001867692175     1.007825032230
         H           -2.478856916811     1.897648037125     0.001996692175     1.007825032230
         H           -1.735541916811    -2.342941962875     0.001962692175     1.007825032230
         H           -3.327046916811    -0.436064962875     0.002034692175     1.007825032230
         H            2.237322083189     1.559556037125     0.001752692175     1.007825032230

  Basis Set: AUG-CC-PVTZ
    Blend: AUG-CC-PVTZ
  Basis Set: (AUG-CC-PVTZ AUX)
    Blend: AUG-CC-PVTZ-JKFIT
	 Reference Energy          =    -343.5453541938346120 [Eh]
	 Singles Energy            =      -0.0000000000000000 [Eh]
	 Same-Spin Energy          =      -0.3640691972184912 [Eh]
	 Opposite-Spin Energy      =      -1.1299772566370838 [Eh]
	 Correlation Energy        =      -1.4940464538555749 [Eh]
	 Total Energy              =    -345.0394006476901723 [Eh]

	 ================> DF-SCS-MP2 Energies <==================
	-----------------------------------------------------------
	 SCS Same-Spin Scale       =       0.3333333333333333 [-]
	 SCS Opposite-Spin Scale   =       1.2000000000000000 [-]
	 SCS Same-Spin Energy      =      -0.1213563990728304 [Eh]
	 SCS Opposite-Spin Energy  =      -1.3559727079645005 [Eh]
	 SCS Correlation Energy    =      -1.4773291070373309 [Eh]
	 SCS Total Energy          =    -345.0226833008719609 [Eh]
	-----------------------------------------------------------

  Dipole Moment: [D]
     X:    -3.0220      Y:     1.2172      Z:    -0.1266     Total:     3.2604

*** Psi4 exiting successfully. Buy a developer a beer!
