                               Psi4 1.3.2 release

  ==> Input File <==

--------------------------------------------------------------------------
#psi4
#
memory 32 gb

molecule  {
0 1
  O        2.8443680    -0.4002740    -0.0000640
  C        0.5303490     0.2197810    -0.0000320
  C       -0.3650130     1.2954270     0.0000030
  C        0.0536120    -1.0979650    -0.0000100
  C       -1.7392770     1.0552920     0.0000660
  C       -1.3183870    -1.3327110     0.0000480
  C       -2.2153620    -0.2579650     0.0000850
  C        1.9872980     0.4782480    -0.0000900
  H        0.0154570     2.3161290    -0.0000170
  H        0.7719840    -1.9138740    -0.0000340
  H       -2.4382530     1.8879220     0.0000950
  H       -1.6949380    -2.3526680     0.0000610
  H       -3.2864430    -0.4457910     0.0001330
  H        2.2779232     1.5498248    -0.1001490
units angstrom
no_reorient  #important for SAPT in psi4, default
symmetry c1  #important for SAPT in psi4, default
}

set PROPERTIES_ORIGIN ["COM"]
properties('MP2/aug-cc-pvtz', properties = ['dipole'])
--------------------------------------------------------------------------

    Molecular point group: c1
  Charge       = 0
  Multiplicity = 1
  Basis Set: AUG-CC-PVTZ
    Blend: AUG-CC-PVTZ
  Basis Set: (AUG-CC-PVTZ AUX)
    Blend: AUG-CC-PVTZ-JKFIT

    Orbital Energies [Eh]
    ---------------------

    Doubly Occupied:

       1A    -20.556427     2A    -11.339415     3A    -11.264298
       4A    -11.261516     5A    -11.257031     6A    -11.255341
       7A    -11.254281     8A    -11.252486     9A     -1.381318
      10A     -1.172550    11A     -1.051298    12A     -1.034385
      13A     -0.895067    14A     -0.847392    15A     -0.792740
      16A     -0.719782    17A     -0.677755    18A     -0.653137
      19A     -0.620196    20A     -0.613708    21A     -0.605207
      22A     -0.551894    23A     -0.530748    24A     -0.511391
      25A     -0.500405    26A     -0.430715    27A     -0.356725
      28A     -0.352994

  @DF-RHF Final Energy:  -343.54743270758632

   => Energetics <=

    Nuclear Repulsion Energy =            320.4590674140430906
    One-Electron Energy =               -1100.5325971527149704
    Two-Electron Energy =                 436.5260970310854987
    Total Energy =                       -343.5474327075863243
  Basis Set: (AUG-CC-PVTZ AUX)
    Blend: AUG-CC-PVTZ-RI
    Molecular point group: c1

    Geometry (in Angstrom), charge = 0, multiplicity = 1:

       Center              X                  Y                   Z               Mass
    ------------   -----------------  -----------------  -----------------  -----------------
         O            2.803764025214    -0.390547921057     0.000887289206    15.994914619570
         C            0.489745025214     0.229507078943     0.000919289206    12.000000000000
         C           -0.405616974786     1.305153078943     0.000954289206    12.000000000000
         C            0.013008025214    -1.088238921057     0.000941289206    12.000000000000
         C           -1.779880974786     1.065018078943     0.001017289206    12.000000000000
         C           -1.358990974786    -1.322984921057     0.000999289206    12.000000000000
         C           -2.255965974786    -0.248238921057     0.001036289206    12.000000000000
         C            1.946694025214     0.487974078943     0.000861289206    12.000000000000
         H           -0.025146974786     2.325855078943     0.000934289206     1.007825032230
         H            0.731380025214    -1.904147921057     0.000917289206     1.007825032230
         H           -2.478856974786     1.897648078943     0.001046289206     1.007825032230
         H           -1.735541974786    -2.342941921057     0.001012289206     1.007825032230
         H           -3.327046974786    -0.436064921057     0.001084289206     1.007825032230
         H            2.237319225214     1.559550878943    -0.099197710794     1.007825032230

  Basis Set: AUG-CC-PVTZ
    Blend: AUG-CC-PVTZ
  Basis Set: (AUG-CC-PVTZ AUX)
    Blend: AUG-CC-PVTZ-JKFIT
	 Reference Energy          =    -343.5474327075863243 [Eh]
	 Singles Energy            =      -0.0000000000000000 [Eh]
	 Same-Spin Energy          =      -0.3639433903400409 [Eh]
	 Opposite-Spin Energy      =      -1.1297148150213059 [Eh]
	 Correlation Energy        =      -1.4936582053613467 [Eh]
	 Total Energy              =    -345.0410909129476522 [Eh]

	 ================> DF-SCS-MP2 Energies <==================
	-----------------------------------------------------------
	 SCS Same-Spin Scale       =       0.3333333333333333 [-]
	 SCS Opposite-Spin Scale   =       1.2000000000000000 [-]
	 SCS Same-Spin Energy      =      -0.1213144634466803 [Eh]
	 SCS Opposite-Spin Energy  =      -1.3556577780255670 [Eh]
	 SCS Correlation Energy    =      -1.4769722414722473 [Eh]
	 SCS Total Energy          =    -345.0244049490585780 [Eh]
	-----------------------------------------------------------

  Dipole Moment: [D]
     X:    -3.0115      Y:     1.2391      Z:    -0.0352     Total:     3.2567

*** Psi4 exiting successfully. Buy a developer a beer!
