                               Psi4 1.3.2 release

  ==> Input File <==

--------------------------------------------------------------------------
#psi4
#
memory 32 gb

molecule  {
0 1
  O        2.8443680    -0.4002740    -0.0000640
  C        0.5303490     0.2197810    -0.0000320
  C       -0.3650130     1.2954270     0.0000030
  C        0.0536120    -1.0979650    -0.0000100
  C       -1.7392770     1.0552920     0.0000660
  C       -1.3183870    -1.3327110     0.0000480
  C       -2.2153620    -0.2579650     0.0000850
  C        1.9872980     0.4782480    -0.0000900
  H        0.0154459     2.3161281    -0.2500170
  H        0.7719840    -1.9138740    -0.0000340
  H       -2.4382530     1.8879220     0.0000950
  H       -1.6949380    -2.3526680     0.0000610
  H       -3.2864430    -0.4457910     0.0001330
  H        2.2779260     1.5498300    -0.0001490
units angstrom
no_reorient  #important for SAPT in psi4, default
symmetry c1  #important for SAPT in psi4, default
}

set PROPERTIES_ORIGIN ["COM"]
properties('MP2/aug-cc-pvtz', properties = ['dipole'])
--------------------------------------------------------------------------

    Molecular point group: c1
  Charge       = 0
  Multiplicity = 1
  Basis Set: AUG-CC-PVTZ
    Blend: AUG-CC-PVTZ
  Basis Set: (AUG-CC-PVTZ AUX)
    Blend: AUG-CC-PVTZ-JKFIT

    Orbital Energies [Eh]
    ---------------------

    Doubly Occupied:

       1A    -20.556304     2A    -11.338847     3A    -11.266668
       4A    -11.261674     5A    -11.257228     6A    -11.255649
       7A    -11.254787     8A    -11.253027     9A     -1.381234
      10A     -1.172638    11A     -1.051271    12A     -1.034019
      13A     -0.895314    14A     -0.845907    15A     -0.793180
      16A     -0.718271    17A     -0.677262    18A     -0.652202
      19A     -0.619849    20A     -0.613866    21A     -0.603265
      22A     -0.552267    23A     -0.530096    24A     -0.511585
      25A     -0.498401    26A     -0.431010    27A     -0.356388
      28A     -0.353151

  @DF-RHF Final Energy:  -343.54374673881034

   => Energetics <=

    Nuclear Repulsion Energy =            320.3666170959154442
    One-Electron Energy =               -1100.3500092300480446
    Two-Electron Energy =                 436.4396453953222590
    Total Energy =                       -343.5437467388103414
  Basis Set: (AUG-CC-PVTZ AUX)
    Blend: AUG-CC-PVTZ-RI
    Molecular point group: c1

    Geometry (in Angstrom), charge = 0, multiplicity = 1:

       Center              X                  Y                   Z               Mass
    ------------   -----------------  -----------------  -----------------  -----------------
         O            2.803764104098    -0.390547961924     0.002312893660    15.994914619570
         C            0.489745104098     0.229507038076     0.002344893660    12.000000000000
         C           -0.405616895902     1.305153038076     0.002379893660    12.000000000000
         C            0.013008104098    -1.088238961924     0.002366893660    12.000000000000
         C           -1.779880895902     1.065018038076     0.002442893660    12.000000000000
         C           -1.358990895902    -1.322984961924     0.002424893660    12.000000000000
         C           -2.255965895902    -0.248238961924     0.002461893660    12.000000000000
         C            1.946694104098     0.487974038076     0.002286893660    12.000000000000
         H           -0.025157995902     2.325854138076    -0.247640106340     1.007825032230
         H            0.731380104098    -1.904147961924     0.002342893660     1.007825032230
         H           -2.478856895902     1.897648038076     0.002471893660     1.007825032230
         H           -1.735541895902    -2.342941961924     0.002437893660     1.007825032230
         H           -3.327046895902    -0.436064961924     0.002509893660     1.007825032230
         H            2.237322104098     1.559556038076     0.002227893660     1.007825032230

  Basis Set: AUG-CC-PVTZ
    Blend: AUG-CC-PVTZ
  Basis Set: (AUG-CC-PVTZ AUX)
    Blend: AUG-CC-PVTZ-JKFIT
	 Reference Energy          =    -343.5437467388103414 [Eh]
	 Singles Energy            =      -0.0000000000000000 [Eh]
	 Same-Spin Energy          =      -0.3641586979379169 [Eh]
	 Opposite-Spin Energy      =      -1.1301808338663855 [Eh]
	 Correlation Energy        =      -1.4943395318043025 [Eh]
	 Total Energy              =    -345.0380862706146559 [Eh]

	 ================> DF-SCS-MP2 Energies <==================
	-----------------------------------------------------------
	 SCS Same-Spin Scale       =       0.3333333333333333 [-]
	 SCS Opposite-Spin Scale   =       1.2000000000000000 [-]
	 SCS Same-Spin Energy      =      -0.1213862326459723 [Eh]
	 SCS Opposite-Spin Energy  =      -1.3562170006396626 [Eh]
	 SCS Correlation Energy    =      -1.4776032332856348 [Eh]
	 SCS Total Energy          =    -345.0213499720960044 [Eh]
	-----------------------------------------------------------

  Dipole Moment: [D]
     X:    -3.0282      Y:     1.2010      Z:    -0.1573     Total:     3.2615

*** Psi4 exiting successfully. Buy a developer a beer!
