                               Psi4 1.3.2 release

  ==> Input File <==

--------------------------------------------------------------------------
#psi4
#
memory 32 gb

molecule  {
0 1
  O        2.8443680    -0.4002740    -0.0000640
  C        0.5303490     0.2197810    -0.0000320
  C       -0.3650130     1.2954270     0.0000030
  C        0.0536120    -1.0979650    -0.0000100
  C       -1.7392770     1.0552920     0.0000660
  C       -1.3183870    -1.3327110     0.0000480
  C       -2.2153620    -0.2579650     0.0000850
  C        1.9873040     0.4782482     0.1499100
  H        0.0154570     2.3161290    -0.0000170
  H        0.7719840    -1.9138740    -0.0000340
  H       -2.4382530     1.8879220     0.0000950
  H       -1.6949380    -2.3526680     0.0000610
  H       -3.2864430    -0.4457910     0.0001330
  H        2.2779260     1.5498300    -0.0001490
units angstrom
no_reorient  #important for SAPT in psi4, default
symmetry c1  #important for SAPT in psi4, default
}

set PROPERTIES_ORIGIN ["COM"]
properties('MP2/aug-cc-pvtz', properties = ['dipole'])
--------------------------------------------------------------------------

    Molecular point group: c1
  Charge       = 0
  Multiplicity = 1
  Basis Set: AUG-CC-PVTZ
    Blend: AUG-CC-PVTZ
  Basis Set: (AUG-CC-PVTZ AUX)
    Blend: AUG-CC-PVTZ-JKFIT

    Orbital Energies [Eh]
    ---------------------

    Doubly Occupied:

       1A    -20.558787     2A    -11.342081     3A    -11.263960
       4A    -11.261222     5A    -11.257088     6A    -11.255916
       7A    -11.254173     8A    -11.252359     9A     -1.377087
      10A     -1.172168    11A     -1.050331    12A     -1.034160
      13A     -0.893946    14A     -0.847019    15A     -0.792503
      16A     -0.718677    17A     -0.676060    18A     -0.652219
      19A     -0.619377    20A     -0.612187    21A     -0.604812
      22A     -0.550250    23A     -0.530262    24A     -0.511252
      25A     -0.498751    26A     -0.430366    27A     -0.356249
      28A     -0.352272

  @DF-RHF Final Energy:  -343.53779402733647

   => Energetics <=

    Nuclear Repulsion Energy =            320.1895842366147349
    One-Electron Energy =               -1100.0036906675952650
    Two-Electron Energy =                 436.2763124036439990
    Total Energy =                       -343.5377940273364743
  Basis Set: (AUG-CC-PVTZ AUX)
    Blend: AUG-CC-PVTZ-RI
    Molecular point group: c1

    Geometry (in Angstrom), charge = 0, multiplicity = 1:

       Center              X                  Y                   Z               Mass
    ------------   -----------------  -----------------  -----------------  -----------------
         O            2.803763319626    -0.390547993110    -0.017037541771    15.994914619570
         C            0.489744319626     0.229507006890    -0.017005541771    12.000000000000
         C           -0.405617680374     1.305153006890    -0.016970541771    12.000000000000
         C            0.013007319626    -1.088238993110    -0.016983541771    12.000000000000
         C           -1.779881680374     1.065018006890    -0.016907541771    12.000000000000
         C           -1.358991680374    -1.322984993110    -0.016925541771    12.000000000000
         C           -2.255966680374    -0.248238993110    -0.016888541771    12.000000000000
         C            1.946699319626     0.487974206890     0.132936458229    12.000000000000
         H           -0.025147680374     2.325855006890    -0.016990541771     1.007825032230
         H            0.731379319626    -1.904147993110    -0.017007541771     1.007825032230
         H           -2.478857680374     1.897648006890    -0.016878541771     1.007825032230
         H           -1.735542680374    -2.342941993110    -0.016912541771     1.007825032230
         H           -3.327047680374    -0.436064993110    -0.016840541771     1.007825032230
         H            2.237321319626     1.559556006890    -0.017122541771     1.007825032230

  Basis Set: AUG-CC-PVTZ
    Blend: AUG-CC-PVTZ
  Basis Set: (AUG-CC-PVTZ AUX)
    Blend: AUG-CC-PVTZ-JKFIT
	 Reference Energy          =    -343.5377940273364743 [Eh]
	 Singles Energy            =      -0.0000000000000000 [Eh]
	 Same-Spin Energy          =      -0.3645318398876991 [Eh]
	 Opposite-Spin Energy      =      -1.1311156239854221 [Eh]
	 Correlation Energy        =      -1.4956474638731212 [Eh]
	 Total Energy              =    -345.0334414912096008 [Eh]

	 ================> DF-SCS-MP2 Energies <==================
	-----------------------------------------------------------
	 SCS Same-Spin Scale       =       0.3333333333333333 [-]
	 SCS Opposite-Spin Scale   =       1.2000000000000000 [-]
	 SCS Same-Spin Energy      =      -0.1215106132958997 [Eh]
	 SCS Opposite-Spin Energy  =      -1.3573387487825064 [Eh]
	 SCS Correlation Energy    =      -1.4788493620784060 [Eh]
	 SCS Total Energy          =    -345.0166433894148668 [Eh]
	-----------------------------------------------------------

  Dipole Moment: [D]
     X:    -2.9786      Y:     1.2267      Z:     0.1047     Total:     3.2231

*** Psi4 exiting successfully. Buy a developer a beer!
