                               Psi4 1.3.2 release

  ==> Input File <==

--------------------------------------------------------------------------
#psi4
#
memory 32 gb

molecule  {
0 1
  O        2.8443680    -0.4002740    -0.0000640
  C        0.5303490     0.2197810    -0.0000320
  C       -0.3650130     1.2954270     0.0000030
  C        0.0536120    -1.0979650    -0.0000100
  C       -1.7392770     1.0552920     0.0000660
  C       -1.3183870    -1.3327110     0.0000480
  C       -2.2153620    -0.2579650     0.0000850
  C        1.9872980     0.4782480    -0.0000900
  H        0.0154570     2.3161290    -0.0000170
  H        0.7719840    -1.9138740    -0.0000340
  H       -2.4382530     1.8879220     0.0000950
  H       -1.6949380    -2.3526680     0.0000610
  H       -3.2864430    -0.4457910     0.0001330
  H        2.2779177     1.5498145    -0.3001490
units angstrom
no_reorient  #important for SAPT in psi4, default
symmetry c1  #important for SAPT in psi4, default
}

set PROPERTIES_ORIGIN ["COM"]
properties('MP2/aug-cc-pvtz', properties = ['dipole'])
--------------------------------------------------------------------------

    Molecular point group: c1
  Charge       = 0
  Multiplicity = 1
  Basis Set: AUG-CC-PVTZ
    Blend: AUG-CC-PVTZ
  Basis Set: (AUG-CC-PVTZ AUX)
    Blend: AUG-CC-PVTZ-JKFIT

    Orbital Energies [Eh]
    ---------------------

    Doubly Occupied:

       1A    -20.558195     2A    -11.343200     3A    -11.264215
       4A    -11.261538     5A    -11.257456     6A    -11.256121
       7A    -11.254341     8A    -11.252664     9A     -1.382483
      10A     -1.172711    11A     -1.051278    12A     -1.034512
      13A     -0.893162    14A     -0.847297    15A     -0.789608
      16A     -0.717881    17A     -0.675730    18A     -0.653647
      19A     -0.620281    20A     -0.613184    21A     -0.605129
      22A     -0.551559    23A     -0.530852    24A     -0.511571
      25A     -0.500837    26A     -0.428881    27A     -0.356680
      28A     -0.353249

  @DF-RHF Final Energy:  -343.54233415045468

   => Energetics <=

    Nuclear Repulsion Energy =            320.3235022175765607
    One-Electron Energy =               -1100.2551551499350353
    Two-Electron Energy =                 436.3893187819037962
    Total Energy =                       -343.5423341504546784
  Basis Set: (AUG-CC-PVTZ AUX)
    Blend: AUG-CC-PVTZ-RI
    Molecular point group: c1

    Geometry (in Angstrom), charge = 0, multiplicity = 1:

       Center              X                  Y                   Z               Mass
    ------------   -----------------  -----------------  -----------------  -----------------
         O            2.803764077486    -0.390547823165     0.002788095145    15.994914619570
         C            0.489745077486     0.229507176835     0.002820095145    12.000000000000
         C           -0.405616922514     1.305153176835     0.002855095145    12.000000000000
         C            0.013008077486    -1.088238823165     0.002842095145    12.000000000000
         C           -1.779880922514     1.065018176835     0.002918095145    12.000000000000
         C           -1.358990922514    -1.322984823165     0.002900095145    12.000000000000
         C           -2.255965922514    -0.248238823165     0.002937095145    12.000000000000
         C            1.946694077486     0.487974176835     0.002762095145    12.000000000000
         H           -0.025146922514     2.325855176835     0.002835095145     1.007825032230
         H            0.731380077486    -1.904147823165     0.002818095145     1.007825032230
         H           -2.478856922514     1.897648176835     0.002947095145     1.007825032230
         H           -1.735541922514    -2.342941823165     0.002913095145     1.007825032230
         H           -3.327046922514    -0.436064823165     0.002985095145     1.007825032230
         H            2.237313777486     1.559540676835    -0.297296904855     1.007825032230

  Basis Set: AUG-CC-PVTZ
    Blend: AUG-CC-PVTZ
  Basis Set: (AUG-CC-PVTZ AUX)
    Blend: AUG-CC-PVTZ-JKFIT
	 Reference Energy          =    -343.5423341504546784 [Eh]
	 Singles Energy            =      -0.0000000000000000 [Eh]
	 Same-Spin Energy          =      -0.3642552710089922 [Eh]
	 Opposite-Spin Energy      =      -1.1303886325641681 [Eh]
	 Correlation Energy        =      -1.4946439035731602 [Eh]
	 Total Energy              =    -345.0369780540278271 [Eh]

	 ================> DF-SCS-MP2 Energies <==================
	-----------------------------------------------------------
	 SCS Same-Spin Scale       =       0.3333333333333333 [-]
	 SCS Opposite-Spin Scale   =       1.2000000000000000 [-]
	 SCS Same-Spin Energy      =      -0.1214184236696641 [Eh]
	 SCS Opposite-Spin Energy  =      -1.3564663590770016 [Eh]
	 SCS Correlation Energy    =      -1.4778847827466657 [Eh]
	 SCS Total Energy          =    -345.0202189332013631 [Eh]
	-----------------------------------------------------------

  Dipole Moment: [D]
     X:    -3.0198      Y:     1.1776      Z:    -0.0977     Total:     3.2427

*** Psi4 exiting successfully. Buy a developer a beer!
