                               Psi4 1.3.2 release

  ==> Input File <==

--------------------------------------------------------------------------
#psi4
#
memory 32 gb

molecule  {
0 1
  O        2.8443680    -0.4002740    -0.0000640
  C        0.5303490     0.2197810    -0.0000320
  C       -0.3650130     1.2954270     0.0000030
  C        0.0536120    -1.0979650    -0.0000100
  C       -1.7392770     1.0552920     0.0000660
  C       -1.3183870    -1.3327110     0.0000480
  C       -2.2153620    -0.2579650     0.0000850
  C        1.9872980     0.4782480    -0.0000900
  H        0.0154570     2.3161290    -0.0000170
  H        0.7719840    -1.9138740    -0.0000340
  H       -2.4382641     1.8879220    -0.2499050
  H       -1.6949380    -2.3526680     0.0000610
  H       -3.2864430    -0.4457910     0.0001330
  H        2.2779260     1.5498300    -0.0001490
units angstrom
no_reorient  #important for SAPT in psi4, default
symmetry c1  #important for SAPT in psi4, default
}

set PROPERTIES_ORIGIN ["COM"]
properties('MP2/aug-cc-pvtz', properties = ['dipole'])
--------------------------------------------------------------------------

    Molecular point group: c1
  Charge       = 0
  Multiplicity = 1
  Basis Set: AUG-CC-PVTZ
    Blend: AUG-CC-PVTZ
  Basis Set: (AUG-CC-PVTZ AUX)
    Blend: AUG-CC-PVTZ-JKFIT

    Orbital Energies [Eh]
    ---------------------

    Doubly Occupied:

       1A    -20.556386     2A    -11.339121     3A    -11.264815
       4A    -11.262030     5A    -11.257538     6A    -11.256688
       7A    -11.255511     8A    -11.252694     9A     -1.381361
      10A     -1.172742    11A     -1.051457    12A     -1.033900
      13A     -0.895526    14A     -0.846734    15A     -0.791652
      16A     -0.719528    17A     -0.678161    18A     -0.652169
      19A     -0.618655    20A     -0.613932    21A     -0.603463
      22A     -0.552238    23A     -0.530875    24A     -0.512507
      25A     -0.497161    26A     -0.431091    27A     -0.356960
      28A     -0.352622

  @DF-RHF Final Energy:  -343.54378668054704

   => Energetics <=

    Nuclear Repulsion Energy =            320.3718201977549711
    One-Electron Energy =               -1100.3561817793695354
    Two-Electron Energy =                 436.4405749010675777
    Total Energy =                       -343.5437866805470435
  Basis Set: (AUG-CC-PVTZ AUX)
    Blend: AUG-CC-PVTZ-RI
    Molecular point group: c1

    Geometry (in Angstrom), charge = 0, multiplicity = 1:

       Center              X                  Y                   Z               Mass
    ------------   -----------------  -----------------  -----------------  -----------------
         O            2.803764104098    -0.390547970478     0.002312893660    15.994914619570
         C            0.489745104098     0.229507029522     0.002344893660    12.000000000000
         C           -0.405616895902     1.305153029522     0.002379893660    12.000000000000
         C            0.013008104098    -1.088238970478     0.002366893660    12.000000000000
         C           -1.779880895902     1.065018029522     0.002442893660    12.000000000000
         C           -1.358990895902    -1.322984970478     0.002424893660    12.000000000000
         C           -2.255965895902    -0.248238970478     0.002461893660    12.000000000000
         C            1.946694104098     0.487974029522     0.002286893660    12.000000000000
         H           -0.025146895902     2.325855029522     0.002359893660     1.007825032230
         H            0.731380104098    -1.904147970478     0.002342893660     1.007825032230
         H           -2.478867995902     1.897648029522    -0.247528106340     1.007825032230
         H           -1.735541895902    -2.342941970478     0.002437893660     1.007825032230
         H           -3.327046895902    -0.436064970478     0.002509893660     1.007825032230
         H            2.237322104098     1.559556029522     0.002227893660     1.007825032230

  Basis Set: AUG-CC-PVTZ
    Blend: AUG-CC-PVTZ
  Basis Set: (AUG-CC-PVTZ AUX)
    Blend: AUG-CC-PVTZ-JKFIT
	 Reference Energy          =    -343.5437866805470435 [Eh]
	 Singles Energy            =      -0.0000000000000000 [Eh]
	 Same-Spin Energy          =      -0.3641001411089677 [Eh]
	 Opposite-Spin Energy      =      -1.1301559800583520 [Eh]
	 Correlation Energy        =      -1.4942561211673198 [Eh]
	 Total Energy              =    -345.0380428017143686 [Eh]

	 ================> DF-SCS-MP2 Energies <==================
	-----------------------------------------------------------
	 SCS Same-Spin Scale       =       0.3333333333333333 [-]
	 SCS Opposite-Spin Scale   =       1.2000000000000000 [-]
	 SCS Same-Spin Energy      =      -0.1213667137029892 [Eh]
	 SCS Opposite-Spin Energy  =      -1.3561871760700224 [Eh]
	 SCS Correlation Energy    =      -1.4775538897730116 [Eh]
	 SCS Total Energy          =    -345.0213405703200351 [Eh]
	-----------------------------------------------------------

  Dipole Moment: [D]
     X:    -2.9734      Y:     1.2092      Z:    -0.1534     Total:     3.2135

*** Psi4 exiting successfully. Buy a developer a beer!
