                               Psi4 1.3.2 release

  ==> Input File <==

--------------------------------------------------------------------------
#psi4
#
memory 32 gb

molecule  {
0 1
  O        2.8443680    -0.4002740    -0.0000640
  C        0.5303490     0.2197810    -0.0000320
  C       -0.3650130     1.2954270     0.0000030
  C        0.0536120    -1.0979650    -0.0000100
  C       -1.7392770     1.0552920     0.0000660
  C       -1.3183870    -1.3327110     0.0000480
  C       -2.2153620    -0.2579650     0.0000850
  C        1.9872980     0.4782480    -0.0000900
  H        0.0154570     2.3161290    -0.0000170
  H        0.7719840    -1.9138740    -0.0000340
  H       -2.4382619     1.8879220    -0.1999050
  H       -1.6949380    -2.3526680     0.0000610
  H       -3.2864430    -0.4457910     0.0001330
  H        2.2779260     1.5498300    -0.0001490
units angstrom
no_reorient  #important for SAPT in psi4, default
symmetry c1  #important for SAPT in psi4, default
}

set PROPERTIES_ORIGIN ["COM"]
properties('MP2/aug-cc-pvtz', properties = ['dipole'])
--------------------------------------------------------------------------

    Molecular point group: c1
  Charge       = 0
  Multiplicity = 1
  Basis Set: AUG-CC-PVTZ
    Blend: AUG-CC-PVTZ
  Basis Set: (AUG-CC-PVTZ AUX)
    Blend: AUG-CC-PVTZ-JKFIT

    Orbital Energies [Eh]
    ---------------------

    Doubly Occupied:

       1A    -20.556320     2A    -11.339050     3A    -11.264629
       4A    -11.261840     5A    -11.257336     6A    -11.255831
       7A    -11.255409     8A    -11.252608     9A     -1.381292
      10A     -1.172662    11A     -1.051396    12A     -1.034058
      13A     -0.895456    14A     -0.846954    15A     -0.792172
      16A     -0.719696    17A     -0.678101    18A     -0.652465
      19A     -0.619149    20A     -0.613870    21A     -0.604148
      22A     -0.552131    23A     -0.530823    24A     -0.512170
      25A     -0.498244    26A     -0.431034    27A     -0.356874
      28A     -0.352739

  @DF-RHF Final Energy:  -343.54538227573886

   => Energetics <=

    Nuclear Repulsion Energy =            320.4088575468737190
    One-Electron Energy =               -1100.4315666700761085
    Two-Electron Energy =                 436.4773268474635302
    Total Energy =                       -343.5453822757388593
  Basis Set: (AUG-CC-PVTZ AUX)
    Blend: AUG-CC-PVTZ-RI
    Molecular point group: c1

    Geometry (in Angstrom), charge = 0, multiplicity = 1:

       Center              X                  Y                   Z               Mass
    ------------   -----------------  -----------------  -----------------  -----------------
         O            2.803764083189    -0.390547970478     0.001837692175    15.994914619570
         C            0.489745083189     0.229507029522     0.001869692175    12.000000000000
         C           -0.405616916811     1.305153029522     0.001904692175    12.000000000000
         C            0.013008083189    -1.088238970478     0.001891692175    12.000000000000
         C           -1.779880916811     1.065018029522     0.001967692175    12.000000000000
         C           -1.358990916811    -1.322984970478     0.001949692175    12.000000000000
         C           -2.255965916811    -0.248238970478     0.001986692175    12.000000000000
         C            1.946694083189     0.487974029522     0.001811692175    12.000000000000
         H           -0.025146916811     2.325855029522     0.001884692175     1.007825032230
         H            0.731380083189    -1.904147970478     0.001867692175     1.007825032230
         H           -2.478865816811     1.897648029522    -0.198003307825     1.007825032230
         H           -1.735541916811    -2.342941970478     0.001962692175     1.007825032230
         H           -3.327046916811    -0.436064970478     0.002034692175     1.007825032230
         H            2.237322083189     1.559556029522     0.001752692175     1.007825032230

  Basis Set: AUG-CC-PVTZ
    Blend: AUG-CC-PVTZ
  Basis Set: (AUG-CC-PVTZ AUX)
    Blend: AUG-CC-PVTZ-JKFIT
	 Reference Energy          =    -343.5453822757388593 [Eh]
	 Singles Energy            =      -0.0000000000000000 [Eh]
	 Same-Spin Energy          =      -0.3640315952866422 [Eh]
	 Opposite-Spin Energy      =      -1.1299648979685641 [Eh]
	 Correlation Energy        =      -1.4939964932552063 [Eh]
	 Total Energy              =    -345.0393787689940837 [Eh]

	 ================> DF-SCS-MP2 Energies <==================
	-----------------------------------------------------------
	 SCS Same-Spin Scale       =       0.3333333333333333 [-]
	 SCS Opposite-Spin Scale   =       1.2000000000000000 [-]
	 SCS Same-Spin Energy      =      -0.1213438650955474 [Eh]
	 SCS Opposite-Spin Energy  =      -1.3559578775622769 [Eh]
	 SCS Correlation Energy    =      -1.4773017426578243 [Eh]
	 SCS Total Energy          =    -345.0226840183966601 [Eh]
	-----------------------------------------------------------

  Dipole Moment: [D]
     X:    -2.9866      Y:     1.2225      Z:    -0.1234     Total:     3.2295

*** Psi4 exiting successfully. Buy a developer a beer!
