                               Psi4 1.3.2 release

  ==> Input File <==

--------------------------------------------------------------------------
#psi4
#
memory 32 gb

molecule  {
0 1
  O        2.8443680    -0.4002740    -0.0000640
  C        0.5303490     0.2197810    -0.0000320
  C       -0.3650130     1.2954270     0.0000030
  C        0.0536120    -1.0979650    -0.0000100
  C       -1.7392770     1.0552920     0.0000660
  C       -1.3183870    -1.3327110     0.0000480
  C       -2.2153620    -0.2579650     0.0000850
  C        1.9872980     0.4782480    -0.0000900
  H        0.0154570     2.3161290    -0.0000170
  H        0.7719840    -1.9138740    -0.0000340
  H       -2.4382530     1.8879220     0.0000950
  H       -1.6949380    -2.3526680     0.0000610
  H       -3.2864560    -0.4457910    -0.2998670
  H        2.2779260     1.5498300    -0.0001490
units angstrom
no_reorient  #important for SAPT in psi4, default
symmetry c1  #important for SAPT in psi4, default
}

set PROPERTIES_ORIGIN ["COM"]
properties('MP2/aug-cc-pvtz', properties = ['dipole'])
--------------------------------------------------------------------------

    Molecular point group: c1
  Charge       = 0
  Multiplicity = 1
  Basis Set: AUG-CC-PVTZ
    Blend: AUG-CC-PVTZ
  Basis Set: (AUG-CC-PVTZ AUX)
    Blend: AUG-CC-PVTZ-JKFIT

    Orbital Energies [Eh]
    ---------------------

    Doubly Occupied:

       1A    -20.556719     2A    -11.339346     3A    -11.265059
       4A    -11.264567     5A    -11.257307     6A    -11.255889
       7A    -11.254980     8A    -11.253113     9A     -1.381629
      10A     -1.172790    11A     -1.050667    12A     -1.034754
      13A     -0.893859    14A     -0.847620    15A     -0.792854
      16A     -0.717599    17A     -0.675534    18A     -0.652641
      19A     -0.618910    20A     -0.613623    21A     -0.605478
      22A     -0.553093    23A     -0.528488    24A     -0.511781
      25A     -0.497211    26A     -0.431399    27A     -0.356668
      28A     -0.352763

  @DF-RHF Final Energy:  -343.54163000659622

   => Energetics <=

    Nuclear Repulsion Energy =            320.3282775187616949
    One-Electron Energy =               -1100.2671294742922328
    Two-Electron Energy =                 436.3972219489342592
    Total Energy =                       -343.5416300065962218
  Basis Set: (AUG-CC-PVTZ AUX)
    Blend: AUG-CC-PVTZ-RI
    Molecular point group: c1

    Geometry (in Angstrom), charge = 0, multiplicity = 1:

       Center              X                  Y                   Z               Mass
    ------------   -----------------  -----------------  -----------------  -----------------
         O            2.803764122155    -0.390547970478     0.002788095145    15.994914619570
         C            0.489745122155     0.229507029522     0.002820095145    12.000000000000
         C           -0.405616877845     1.305153029522     0.002855095145    12.000000000000
         C            0.013008122155    -1.088238970478     0.002842095145    12.000000000000
         C           -1.779880877845     1.065018029522     0.002918095145    12.000000000000
         C           -1.358990877845    -1.322984970478     0.002900095145    12.000000000000
         C           -2.255965877845    -0.248238970478     0.002937095145    12.000000000000
         C            1.946694122155     0.487974029522     0.002762095145    12.000000000000
         H           -0.025146877845     2.325855029522     0.002835095145     1.007825032230
         H            0.731380122155    -1.904147970478     0.002818095145     1.007825032230
         H           -2.478856877845     1.897648029522     0.002947095145     1.007825032230
         H           -1.735541877845    -2.342941970478     0.002913095145     1.007825032230
         H           -3.327059877845    -0.436064970478    -0.297014904855     1.007825032230
         H            2.237322122155     1.559556029522     0.002703095145     1.007825032230

  Basis Set: AUG-CC-PVTZ
    Blend: AUG-CC-PVTZ
  Basis Set: (AUG-CC-PVTZ AUX)
    Blend: AUG-CC-PVTZ-JKFIT
	 Reference Energy          =    -343.5416300065962218 [Eh]
	 Singles Energy            =      -0.0000000000000000 [Eh]
	 Same-Spin Energy          =      -0.3642491160440146 [Eh]
	 Opposite-Spin Energy      =      -1.1305087433596623 [Eh]
	 Correlation Energy        =      -1.4947578594036770 [Eh]
	 Total Energy              =    -345.0363878659999273 [Eh]

	 ================> DF-SCS-MP2 Energies <==================
	-----------------------------------------------------------
	 SCS Same-Spin Scale       =       0.3333333333333333 [-]
	 SCS Opposite-Spin Scale   =       1.2000000000000000 [-]
	 SCS Same-Spin Energy      =      -0.1214163720146715 [Eh]
	 SCS Opposite-Spin Energy  =      -1.3566104920315947 [Eh]
	 SCS Correlation Energy    =      -1.4780268640462662 [Eh]
	 SCS Total Energy          =    -345.0196568706425069 [Eh]
	-----------------------------------------------------------

  Dipole Moment: [D]
     X:    -2.9376      Y:     1.2593      Z:    -0.1852     Total:     3.2015

*** Psi4 exiting successfully. Buy a developer a beer!
