                               Psi4 1.3.2 release

  ==> Input File <==

--------------------------------------------------------------------------
#psi4
#
memory 32 gb

molecule  {
0 1
  O        2.8443680    -0.4002740    -0.0000640
  C        0.5303490     0.2197810    -0.0000320
  C       -0.3650130     1.2954270     0.0000030
  C        0.0536120    -1.0979650    -0.0000100
  C       -1.7392770     1.0552920     0.0000660
  C       -1.3183870    -1.3327110     0.0000480
  C       -2.2153620    -0.2579650     0.0000850
  C        1.9872980     0.4782480    -0.0000900
  H        0.0154570     2.3161290    -0.0000170
  H        0.7719840    -1.9138740    -0.0000340
  H       -2.4382530     1.8879220     0.0000950
  H       -1.6949380    -2.3526680     0.0000610
  H       -3.2864538    -0.4457910    -0.2498670
  H        2.2779260     1.5498300    -0.0001490
units angstrom
no_reorient  #important for SAPT in psi4, default
symmetry c1  #important for SAPT in psi4, default
}

set PROPERTIES_ORIGIN ["COM"]
properties('MP2/aug-cc-pvtz', properties = ['dipole'])
--------------------------------------------------------------------------

    Molecular point group: c1
  Charge       = 0
  Multiplicity = 1
  Basis Set: AUG-CC-PVTZ
    Blend: AUG-CC-PVTZ
  Basis Set: (AUG-CC-PVTZ AUX)
    Blend: AUG-CC-PVTZ-JKFIT

    Orbital Energies [Eh]
    ---------------------

    Doubly Occupied:

       1A    -20.556562     2A    -11.339218     3A    -11.264488
       4A    -11.263991     5A    -11.257199     6A    -11.255693
       7A    -11.254761     8A    -11.252911     9A     -1.381489
      10A     -1.172705    11A     -1.050840    12A     -1.034632
      13A     -0.894271    14A     -0.847550    15A     -0.792932
      16A     -0.718250    17A     -0.676249    18A     -0.652779
      19A     -0.619267    20A     -0.613700    21A     -0.605395
      22A     -0.552775    23A     -0.529145    24A     -0.511653
      25A     -0.498182    26A     -0.431257    27A     -0.356669
      28A     -0.352827

  @DF-RHF Final Energy:  -343.54371063737125

   => Energetics <=

    Nuclear Repulsion Energy =            320.3723065872924849
    One-Electron Energy =               -1100.3572540444783954
    Two-Electron Energy =                 436.4412368198146055
    Total Energy =                       -343.5437106373712481
  Basis Set: (AUG-CC-PVTZ AUX)
    Blend: AUG-CC-PVTZ-RI
    Molecular point group: c1

    Geometry (in Angstrom), charge = 0, multiplicity = 1:

       Center              X                  Y                   Z               Mass
    ------------   -----------------  -----------------  -----------------  -----------------
         O            2.803764101246    -0.390547970478     0.002312893660    15.994914619570
         C            0.489745101246     0.229507029522     0.002344893660    12.000000000000
         C           -0.405616898754     1.305153029522     0.002379893660    12.000000000000
         C            0.013008101246    -1.088238970478     0.002366893660    12.000000000000
         C           -1.779880898754     1.065018029522     0.002442893660    12.000000000000
         C           -1.358990898754    -1.322984970478     0.002424893660    12.000000000000
         C           -2.255965898754    -0.248238970478     0.002461893660    12.000000000000
         C            1.946694101246     0.487974029522     0.002286893660    12.000000000000
         H           -0.025146898754     2.325855029522     0.002359893660     1.007825032230
         H            0.731380101246    -1.904147970478     0.002342893660     1.007825032230
         H           -2.478856898754     1.897648029522     0.002471893660     1.007825032230
         H           -1.735541898754    -2.342941970478     0.002437893660     1.007825032230
         H           -3.327057698754    -0.436064970478    -0.247490106340     1.007825032230
         H            2.237322101246     1.559556029522     0.002227893660     1.007825032230

  Basis Set: AUG-CC-PVTZ
    Blend: AUG-CC-PVTZ
  Basis Set: (AUG-CC-PVTZ AUX)
    Blend: AUG-CC-PVTZ-JKFIT
	 Reference Energy          =    -343.5437106373712481 [Eh]
	 Singles Energy            =      -0.0000000000000000 [Eh]
	 Same-Spin Energy          =      -0.3641476013390980 [Eh]
	 Opposite-Spin Energy      =      -1.1302334646931764 [Eh]
	 Correlation Energy        =      -1.4943810660322745 [Eh]
	 Total Energy              =    -345.0380917034034951 [Eh]

	 ================> DF-SCS-MP2 Energies <==================
	-----------------------------------------------------------
	 SCS Same-Spin Scale       =       0.3333333333333333 [-]
	 SCS Opposite-Spin Scale   =       1.2000000000000000 [-]
	 SCS Same-Spin Energy      =      -0.1213825337796993 [Eh]
	 SCS Opposite-Spin Energy  =      -1.3562801576318118 [Eh]
	 SCS Correlation Energy    =      -1.4776626914115112 [Eh]
	 SCS Total Energy          =    -345.0213733287827722 [Eh]
	-----------------------------------------------------------

  Dipole Moment: [D]
     X:    -2.9596      Y:     1.2555      Z:    -0.1555     Total:     3.2186

*** Psi4 exiting successfully. Buy a developer a beer!
