                               Psi4 1.3.2 release

  ==> Input File <==

--------------------------------------------------------------------------
#psi4
#
memory 32 gb

molecule  {
0 1
  O        2.8443680    -0.4002740    -0.0000640
  C        0.5303490     0.2197810    -0.0000320
  C       -0.3650130     1.2954270     0.0000030
  C        0.0536120    -1.0979650    -0.0000100
  C       -1.7392770     1.0552920     0.0000660
  C       -1.3183870    -1.3327110     0.0000480
  C       -2.2153620    -0.2579650     0.0000850
  C        1.9872980     0.4782480    -0.0000900
  H        0.0154436     2.3161279    -0.3000170
  H        0.7719840    -1.9138740    -0.0000340
  H       -2.4382530     1.8879220     0.0000950
  H       -1.6949380    -2.3526680     0.0000610
  H       -3.2864430    -0.4457910     0.0001330
  H        2.2779260     1.5498300    -0.0001490
units angstrom
no_reorient  #important for SAPT in psi4, default
symmetry c1  #important for SAPT in psi4, default
}

set PROPERTIES_ORIGIN ["COM"]
properties('MP2/aug-cc-pvtz', properties = ['dipole'])
--------------------------------------------------------------------------

    Molecular point group: c1
  Charge       = 0
  Multiplicity = 1
  Basis Set: AUG-CC-PVTZ
    Blend: AUG-CC-PVTZ
  Basis Set: (AUG-CC-PVTZ AUX)
    Blend: AUG-CC-PVTZ-JKFIT

    Orbital Energies [Eh]
    ---------------------

    Doubly Occupied:

       1A    -20.556349     2A    -11.338816     3A    -11.267676
       4A    -11.261750     5A    -11.257344     6A    -11.255832
       7A    -11.255016     8A    -11.253272     9A     -1.381264
      10A     -1.172693    11A     -1.051275    12A     -1.033885
      13A     -0.895313    14A     -0.845324    15A     -0.793193
      16A     -0.717605    17A     -0.676975    18A     -0.651842
      19A     -0.619741    20A     -0.613919    21A     -0.602350
      22A     -0.552408    23A     -0.529841    24A     -0.511635
      25A     -0.497550    26A     -0.431045    27A     -0.356256
      28A     -0.353234

  @DF-RHF Final Energy:  -343.54168637694011

   => Energetics <=

    Nuclear Repulsion Energy =            320.3200945712548560
    One-Electron Energy =               -1100.2567559108272235
    Two-Electron Energy =                 436.3949749626322046
    Total Energy =                       -343.5416863769401061
  Basis Set: (AUG-CC-PVTZ AUX)
    Blend: AUG-CC-PVTZ-RI
    Molecular point group: c1

    Geometry (in Angstrom), charge = 0, multiplicity = 1:

       Center              X                  Y                   Z               Mass
    ------------   -----------------  -----------------  -----------------  -----------------
         O            2.803764125957    -0.390547960023     0.002788095145    15.994914619570
         C            0.489745125957     0.229507039977     0.002820095145    12.000000000000
         C           -0.405616874043     1.305153039977     0.002855095145    12.000000000000
         C            0.013008125957    -1.088238960023     0.002842095145    12.000000000000
         C           -1.779880874043     1.065018039977     0.002918095145    12.000000000000
         C           -1.358990874043    -1.322984960023     0.002900095145    12.000000000000
         C           -2.255965874043    -0.248238960023     0.002937095145    12.000000000000
         C            1.946694125957     0.487974039977     0.002762095145    12.000000000000
         H           -0.025160274043     2.325853939977    -0.297164904855     1.007825032230
         H            0.731380125957    -1.904147960023     0.002818095145     1.007825032230
         H           -2.478856874043     1.897648039977     0.002947095145     1.007825032230
         H           -1.735541874043    -2.342941960023     0.002913095145     1.007825032230
         H           -3.327046874043    -0.436064960023     0.002985095145     1.007825032230
         H            2.237322125957     1.559556039977     0.002703095145     1.007825032230

  Basis Set: AUG-CC-PVTZ
    Blend: AUG-CC-PVTZ
  Basis Set: (AUG-CC-PVTZ AUX)
    Blend: AUG-CC-PVTZ-JKFIT
	 Reference Energy          =    -343.5416863769401061 [Eh]
	 Singles Energy            =      -0.0000000000000000 [Eh]
	 Same-Spin Energy          =      -0.3642653416715657 [Eh]
	 Opposite-Spin Energy      =      -1.1304359133372204 [Eh]
	 Correlation Energy        =      -1.4947012550087861 [Eh]
	 Total Energy              =    -345.0363876319489123 [Eh]

	 ================> DF-SCS-MP2 Energies <==================
	-----------------------------------------------------------
	 SCS Same-Spin Scale       =       0.3333333333333333 [-]
	 SCS Opposite-Spin Scale   =       1.2000000000000000 [-]
	 SCS Same-Spin Energy      =      -0.1214217805571886 [Eh]
	 SCS Opposite-Spin Energy  =      -1.3565230960046644 [Eh]
	 SCS Correlation Energy    =      -1.4779448765618528 [Eh]
	 SCS Total Energy          =    -345.0196312535019842 [Eh]
	-----------------------------------------------------------

  Dipole Moment: [D]
     X:    -3.0358      Y:     1.1814      Z:    -0.1874     Total:     3.2629

*** Psi4 exiting successfully. Buy a developer a beer!
