                               Psi4 1.3.2 release

  ==> Input File <==

--------------------------------------------------------------------------
#psi4
#
memory 32 gb

molecule  {
0 1
  O        2.8443680    -0.4002740    -0.0000640
  C        0.5303490     0.2197810    -0.0000320
  C       -0.3650130     1.2954270     0.0000030
  C        0.0536120    -1.0979650    -0.0000100
  C       -1.7392770     1.0552920     0.0000660
  C       -1.3183870    -1.3327110     0.0000480
  C       -2.2153620    -0.2579650     0.0000850
  C        1.9873020     0.4782482     0.0999100
  H        0.0154570     2.3161290    -0.0000170
  H        0.7719840    -1.9138740    -0.0000340
  H       -2.4382530     1.8879220     0.0000950
  H       -1.6949380    -2.3526680     0.0000610
  H       -3.2864430    -0.4457910     0.0001330
  H        2.2779260     1.5498300    -0.0001490
units angstrom
no_reorient  #important for SAPT in psi4, default
symmetry c1  #important for SAPT in psi4, default
}

set PROPERTIES_ORIGIN ["COM"]
properties('MP2/aug-cc-pvtz', properties = ['dipole'])
--------------------------------------------------------------------------

    Molecular point group: c1
  Charge       = 0
  Multiplicity = 1
  Basis Set: AUG-CC-PVTZ
    Blend: AUG-CC-PVTZ
  Basis Set: (AUG-CC-PVTZ AUX)
    Blend: AUG-CC-PVTZ-JKFIT

    Orbital Energies [Eh]
    ---------------------

    Doubly Occupied:

       1A    -20.557352     2A    -11.340348     3A    -11.264154
       4A    -11.261385     5A    -11.256958     6A    -11.255616
       7A    -11.254229     8A    -11.252418     9A     -1.379341
      10A     -1.172369    11A     -1.050868    12A     -1.034277
      13A     -0.894718    14A     -0.847233    15A     -0.792868
      16A     -0.719416    17A     -0.677140    18A     -0.652689
      19A     -0.619832    20A     -0.613064    21A     -0.605044
      22A     -0.551166    23A     -0.530535    24A     -0.511319
      25A     -0.499635    26A     -0.430675    27A     -0.356502
      28A     -0.352667

  @DF-RHF Final Energy:  -343.54347414213117

   => Energetics <=

    Nuclear Repulsion Energy =            320.3484526660304823
    One-Electron Energy =               -1100.3162170115058416
    Two-Electron Energy =                 436.4242902033442419
    Total Energy =                       -343.5434741421311742
  Basis Set: (AUG-CC-PVTZ AUX)
    Blend: AUG-CC-PVTZ-RI
    Molecular point group: c1

    Geometry (in Angstrom), charge = 0, multiplicity = 1:

       Center              X                  Y                   Z               Mass
    ------------   -----------------  -----------------  -----------------  -----------------
         O            2.803763545951    -0.390547993110    -0.011379399102    15.994914619570
         C            0.489744545951     0.229507006890    -0.011347399102    12.000000000000
         C           -0.405617454049     1.305153006890    -0.011312399102    12.000000000000
         C            0.013007545951    -1.088238993110    -0.011325399102    12.000000000000
         C           -1.779881454049     1.065018006890    -0.011249399102    12.000000000000
         C           -1.358991454049    -1.322984993110    -0.011267399102    12.000000000000
         C           -2.255966454049    -0.248238993110    -0.011230399102    12.000000000000
         C            1.946697545951     0.487974206890     0.088594600898    12.000000000000
         H           -0.025147454049     2.325855006890    -0.011332399102     1.007825032230
         H            0.731379545951    -1.904147993110    -0.011349399102     1.007825032230
         H           -2.478857454049     1.897648006890    -0.011220399102     1.007825032230
         H           -1.735542454049    -2.342941993110    -0.011254399102     1.007825032230
         H           -3.327047454049    -0.436064993110    -0.011182399102     1.007825032230
         H            2.237321545951     1.559556006890    -0.011464399102     1.007825032230

  Basis Set: AUG-CC-PVTZ
    Blend: AUG-CC-PVTZ
  Basis Set: (AUG-CC-PVTZ AUX)
    Blend: AUG-CC-PVTZ-JKFIT
	 Reference Energy          =    -343.5434741421311742 [Eh]
	 Singles Energy            =      -0.0000000000000000 [Eh]
	 Same-Spin Energy          =      -0.3641827983849861 [Eh]
	 Opposite-Spin Energy      =      -1.1302427716288899 [Eh]
	 Correlation Energy        =      -1.4944255700138760 [Eh]
	 Total Energy              =    -345.0378997121450766 [Eh]

	 ================> DF-SCS-MP2 Energies <==================
	-----------------------------------------------------------
	 SCS Same-Spin Scale       =       0.3333333333333333 [-]
	 SCS Opposite-Spin Scale   =       1.2000000000000000 [-]
	 SCS Same-Spin Energy      =      -0.1213942661283287 [Eh]
	 SCS Opposite-Spin Energy  =      -1.3562913259546678 [Eh]
	 SCS Correlation Energy    =      -1.4776855920829965 [Eh]
	 SCS Total Energy          =    -345.0211597342141658 [Eh]
	-----------------------------------------------------------

  Dipole Moment: [D]
     X:    -2.9964      Y:     1.2379      Z:     0.0714     Total:     3.2428

*** Psi4 exiting successfully. Buy a developer a beer!
