                               Psi4 1.3.2 release

  ==> Input File <==

--------------------------------------------------------------------------
#psi4
#
memory 32 gb

molecule  {
0 1
  O        1.6853730    -0.6083350    -0.1243790
  O        0.5719120     1.2863760     0.0695120
  N        0.6494237     0.0304130    -0.0052061
  C       -0.6264930    -0.7411460     0.1639780
  C       -1.8590060     0.0884880    -0.1216840
  H       -0.5100060    -1.5905650    -0.5103580
  H       -0.6039710    -1.1163170     1.1909310
  H       -1.9382960     0.9237250     0.5735710
  H       -1.8356290     0.4847820    -1.1384320
  H       -2.7433030    -0.5458310    -0.0161270
units angstrom
no_reorient  #important for SAPT in psi4, default
symmetry c1  #important for SAPT in psi4, default
}

set PROPERTIES_ORIGIN ["COM"]
properties('MP2/aug-cc-pvtz', properties = ['dipole'])
--------------------------------------------------------------------------

    Molecular point group: c1
  Charge       = 0
  Multiplicity = 1
  Basis Set: AUG-CC-PVTZ
    Blend: AUG-CC-PVTZ
  Basis Set: (AUG-CC-PVTZ AUX)
    Blend: AUG-CC-PVTZ-JKFIT

    Orbital Energies [Eh]
    ---------------------

    Doubly Occupied:

       1A    -20.615046     2A    -20.602153     3A    -15.849253
       4A    -11.315235     5A    -11.250117     6A     -1.590138
       7A     -1.387437     8A     -1.124028     9A     -0.969590
      10A     -0.840519    11A     -0.750225    12A     -0.732094
      13A     -0.719859    14A     -0.633192    15A     -0.592686
      16A     -0.562569    17A     -0.536748    18A     -0.493659
      19A     -0.489272    20A     -0.452528

  @DF-RHF Final Energy:  -282.80537070971093

   => Energetics <=

    Nuclear Repulsion Energy =            182.4713217627869994
    One-Electron Energy =                -747.5406950200410847
    Two-Electron Energy =                 282.2640025475431003
    Total Energy =                       -282.8053707097109282
  Basis Set: (AUG-CC-PVTZ AUX)
    Blend: AUG-CC-PVTZ-RI
    Molecular point group: c1

    Geometry (in Angstrom), charge = 0, multiplicity = 1:

       Center              X                  Y                   Z               Mass
    ------------   -----------------  -----------------  -----------------  -----------------
         O            1.582988702033    -0.629400009910    -0.119812921547    15.994914619570
         O            0.469527702033     1.265310990090     0.074078078453    15.994914619570
         N            0.547039402033     0.009347990090    -0.000640021547    14.003074004430
         C           -0.728877297967    -0.762211009910     0.168544078453    12.000000000000
         C           -1.961390297967     0.067422990090    -0.117117921547    12.000000000000
         H           -0.612390297967    -1.611630009910    -0.505791921547     1.007825032230
         H           -0.706355297967    -1.137382009910     1.195497078453     1.007825032230
         H           -2.040680297967     0.902659990090     0.578137078453     1.007825032230
         H           -1.938013297967     0.463716990090    -1.133865921547     1.007825032230
         H           -2.845687297967    -0.566896009910    -0.011560921547     1.007825032230

  Basis Set: AUG-CC-PVTZ
    Blend: AUG-CC-PVTZ
  Basis Set: (AUG-CC-PVTZ AUX)
    Blend: AUG-CC-PVTZ-JKFIT
	 Reference Energy          =    -282.8053707097109282 [Eh]
	 Singles Energy            =      -0.0000000000000000 [Eh]
	 Same-Spin Energy          =      -0.2810151049900715 [Eh]
	 Opposite-Spin Energy      =      -0.8689987881451385 [Eh]
	 Correlation Energy        =      -1.1500138931352102 [Eh]
	 Total Energy              =    -283.9553846028461521 [Eh]

	 ================> DF-SCS-MP2 Energies <==================
	-----------------------------------------------------------
	 SCS Same-Spin Scale       =       0.3333333333333333 [-]
	 SCS Opposite-Spin Scale   =       1.2000000000000000 [-]
	 SCS Same-Spin Energy      =      -0.0936717016633572 [Eh]
	 SCS Opposite-Spin Energy  =      -1.0427985457741662 [Eh]
	 SCS Correlation Energy    =      -1.1364702474375235 [Eh]
	 SCS Total Energy          =    -283.9418409571484290 [Eh]
	-----------------------------------------------------------

  Dipole Moment: [D]
     X:    -3.2098      Y:    -1.6919      Z:     0.2736     Total:     3.6387

*** Psi4 exiting successfully. Buy a developer a beer!
