                               Psi4 1.4a3.dev225

  ==> Input File <==

--------------------------------------------------------------------------
#psi4
#
memory 32 gb

molecule  {
0 1
  O        1.6854460    -0.6082710    -0.1241230
  O        0.5718390     1.2863960     0.0693880
  N        0.6408540     0.0479940     0.0121840
  C       -0.6686900    -0.7675294     0.1686792
  C       -1.8590430     0.0884940    -0.1214310
  H       -0.5100180    -1.5902840    -0.5111790
  H       -0.6037960    -1.1170010     1.1903640
  H       -1.9383190     0.9233440     0.5742920
  H       -1.8358000     0.4853590    -1.1379580
  H       -2.7432880    -0.5459410    -0.0161300
units angstrom
no_reorient  #important for SAPT in psi4, default
symmetry c1  #important for SAPT in psi4, default
}

set PROPERTIES_ORIGIN ["COM"]
properties('MP2/aug-cc-pvtz', properties = ['dipole'])
--------------------------------------------------------------------------

    Molecular point group: c1
  Charge       = 0
  Multiplicity = 1
  Basis Set: AUG-CC-PVTZ
    Blend: AUG-CC-PVTZ
  Basis Set: (AUG-CC-PVTZ AUX)
    Blend: AUG-CC-PVTZ-JKFIT

    Orbital Energies [Eh]
    ---------------------

    Doubly Occupied:

       1A    -20.607578     2A    -20.605046     3A    -15.844792
       4A    -11.317219     5A    -11.250689     6A     -1.582554
       7A     -1.385679     8A     -1.119714     9A     -0.964257
      10A     -0.842029    11A     -0.745617    12A     -0.727858
      13A     -0.716224    14A     -0.638542    15A     -0.593780
      16A     -0.572363    17A     -0.541677    18A     -0.493731
      19A     -0.479012    20A     -0.450640

  @DF-RHF Final Energy:  -282.80438581966678

   => Energetics <=

    Nuclear Repulsion Energy =            181.8794120560305032
    One-Electron Energy =                -746.4095931955923788
    Two-Electron Energy =                 281.7257953198950418
    Total Energy =                       -282.8043858196667770
  Basis Set: (AUG-CC-PVTZ AUX)
    Blend: AUG-CC-PVTZ-RI
    Molecular point group: c1

    Geometry (in Angstrom), charge = 0, multiplicity = 1:

       Center              X                  Y                   Z               Mass
    ------------   -----------------  -----------------  -----------------  -----------------
         O            1.591415818026    -0.628412182244    -0.123620240356    15.994914619570
         O            0.477808818026     1.266254817756     0.069890759644    15.994914619570
         N            0.546823818026     0.027852817756     0.012686759644    14.003074004430
         C           -0.762720181974    -0.787670582244     0.169181959644    12.000000000000
         C           -1.953073181974     0.068352817756    -0.120928240356    12.000000000000
         H           -0.604048181974    -1.610425182244    -0.510676240356     1.007825032230
         H           -0.697826181974    -1.137142182244     1.190866759644     1.007825032230
         H           -2.032349181974     0.903202817756     0.574794759644     1.007825032230
         H           -1.929830181974     0.465217817756    -1.137455240356     1.007825032230
         H           -2.837318181974    -0.566082182244    -0.015627240356     1.007825032230

  Basis Set: AUG-CC-PVTZ
    Blend: AUG-CC-PVTZ
  Basis Set: (AUG-CC-PVTZ AUX)
    Blend: AUG-CC-PVTZ-JKFIT
	 Reference Energy          =    -282.8043858196667770 [Eh]
	 Singles Energy            =      -0.0000000000000000 [Eh]
	 Same-Spin Energy          =      -0.2810494107397596 [Eh]
	 Opposite-Spin Energy      =      -0.8691342423588249 [Eh]
	 Correlation Energy        =      -1.1501836530985845 [Eh]
	 Total Energy              =    -283.9545694727653427 [Eh]

	 ================> DF-SCS-MP2 Energies <==================
	-----------------------------------------------------------
	 SCS Same-Spin Scale       =       0.3333333333333333 [-]
	 SCS Opposite-Spin Scale   =       1.2000000000000000 [-]
	 SCS Same-Spin Energy      =      -0.0936831369132532 [Eh]
	 SCS Opposite-Spin Energy  =      -1.0429610908305897 [Eh]
	 SCS Correlation Energy    =      -1.1366442277438429 [Eh]
	 SCS Total Energy          =    -283.9410300474106066 [Eh]
	-----------------------------------------------------------

  Dipole Moment: [D]
     X:    -3.3281      Y:    -1.6035      Z:     0.2873     Total:     3.7054

*** Psi4 exiting successfully. Buy a developer a beer!
