                               Psi4 1.3.2 release

  ==> Input File <==

--------------------------------------------------------------------------
#psi4
#
memory 32 gb

molecule  {
0 1
  O        1.6853730    -0.6083350    -0.1243790
  O        0.5719120     1.2863760     0.0695120
  N        0.8091626    -0.0577829    -0.0097859
  C       -0.6264930    -0.7411460     0.1639780
  C       -1.8590060     0.0884880    -0.1216840
  H       -0.5100060    -1.5905650    -0.5103580
  H       -0.6039710    -1.1163170     1.1909310
  H       -1.9382960     0.9237250     0.5735710
  H       -1.8356290     0.4847820    -1.1384320
  H       -2.7433030    -0.5458310    -0.0161270
units angstrom
no_reorient  #important for SAPT in psi4, default
symmetry c1  #important for SAPT in psi4, default
}

set PROPERTIES_ORIGIN ["COM"]
properties('MP2/aug-cc-pvtz', properties = ['dipole'])
--------------------------------------------------------------------------

    Molecular point group: c1
  Charge       = 0
  Multiplicity = 1
  Basis Set: AUG-CC-PVTZ
    Blend: AUG-CC-PVTZ
  Basis Set: (AUG-CC-PVTZ AUX)
    Blend: AUG-CC-PVTZ-JKFIT

    Orbital Energies [Eh]
    ---------------------

    Doubly Occupied:

       1A    -20.671563     2A    -20.545477     3A    -15.838434
       4A    -11.308515     5A    -11.242102     6A     -1.748636
       7A     -1.337051     8A     -1.092144     9A     -0.957858
      10A     -0.866822    11A     -0.787816    12A     -0.775932
      13A     -0.751548    14A     -0.644129    15A     -0.593213
      16A     -0.556864    17A     -0.528719    18A     -0.471883
      19A     -0.443378    20A     -0.431824

  @DF-RHF Final Energy:  -282.74235435004175

   => Energetics <=

    Nuclear Repulsion Energy =            183.1473847715440115
    One-Electron Energy =                -748.5916591406690941
    Two-Electron Energy =                 282.7019200190833317
    Total Energy =                       -282.7423543500417509
  Basis Set: (AUG-CC-PVTZ AUX)
    Blend: AUG-CC-PVTZ-RI
    Molecular point group: c1

    Geometry (in Angstrom), charge = 0, multiplicity = 1:

       Center              X                  Y                   Z               Mass
    ------------   -----------------  -----------------  -----------------  -----------------
         O            1.553176957826    -0.612940189472    -0.118958202840    15.994914619570
         O            0.439715957826     1.281770810528     0.074932797160    15.994914619570
         N            0.676966557826    -0.062388089472    -0.004365102840    14.003074004430
         C           -0.758689042174    -0.745751189472     0.169398797160    12.000000000000
         C           -1.991202042174     0.083882810528    -0.116263202840    12.000000000000
         H           -0.642202042174    -1.595170189472    -0.504937202840     1.007825032230
         H           -0.736167042174    -1.120922189472     1.196351797160     1.007825032230
         H           -2.070492042174     0.919119810528     0.578991797160     1.007825032230
         H           -1.967825042174     0.480176810528    -1.133011202840     1.007825032230
         H           -2.875499042174    -0.550436189472    -0.010706202840     1.007825032230

  Basis Set: AUG-CC-PVTZ
    Blend: AUG-CC-PVTZ
  Basis Set: (AUG-CC-PVTZ AUX)
    Blend: AUG-CC-PVTZ-JKFIT
	 Reference Energy          =    -282.7423543500417509 [Eh]
	 Singles Energy            =      -0.0000000000000000 [Eh]
	 Same-Spin Energy          =      -0.2752605526532078 [Eh]
	 Opposite-Spin Energy      =      -0.8565931254900970 [Eh]
	 Correlation Energy        =      -1.1318536781433048 [Eh]
	 Total Energy              =    -283.8742080281850804 [Eh]

	 ================> DF-SCS-MP2 Energies <==================
	-----------------------------------------------------------
	 SCS Same-Spin Scale       =       0.3333333333333333 [-]
	 SCS Opposite-Spin Scale   =       1.2000000000000000 [-]
	 SCS Same-Spin Energy      =      -0.0917535175510693 [Eh]
	 SCS Opposite-Spin Energy  =      -1.0279117505881163 [Eh]
	 SCS Correlation Energy    =      -1.1196652681391857 [Eh]
	 SCS Total Energy          =    -283.8620196181809092 [Eh]
	-----------------------------------------------------------

  Dipole Moment: [D]
     X:    -2.1086      Y:    -2.7814      Z:     0.1109     Total:     3.4921

*** Psi4 exiting successfully. Buy a developer a beer!
