                               Psi4 1.3.2 release

  ==> Input File <==

--------------------------------------------------------------------------
#psi4
#
memory 32 gb

molecule  {
0 1
  O        1.6853730    -0.6083350    -0.1243790
  O        0.5719120     1.2863760     0.0695120
  N        0.6728151    -0.0236643    -0.0571749
  C       -0.6264930    -0.7411460     0.1639780
  C       -1.8590060     0.0884880    -0.1216840
  H       -0.5100060    -1.5905650    -0.5103580
  H       -0.6039710    -1.1163170     1.1909310
  H       -1.9382960     0.9237250     0.5735710
  H       -1.8356290     0.4847820    -1.1384320
  H       -2.7433030    -0.5458310    -0.0161270
units angstrom
no_reorient  #important for SAPT in psi4, default
symmetry c1  #important for SAPT in psi4, default
}

set PROPERTIES_ORIGIN ["COM"]
properties('MP2/aug-cc-pvtz', properties = ['dipole'])
--------------------------------------------------------------------------

    Molecular point group: c1
  Charge       = 0
  Multiplicity = 1
  Basis Set: AUG-CC-PVTZ
    Blend: AUG-CC-PVTZ
  Basis Set: (AUG-CC-PVTZ AUX)
    Blend: AUG-CC-PVTZ-JKFIT

    Orbital Energies [Eh]
    ---------------------

    Doubly Occupied:

       1A    -20.638447     2A    -20.578910     3A    -15.846900
       4A    -11.315907     5A    -11.248734     6A     -1.616332
       7A     -1.363954     8A     -1.123030     9A     -0.971063
      10A     -0.843921    11A     -0.755296    12A     -0.736005
      13A     -0.723404    14A     -0.635998    15A     -0.593220
      16A     -0.561452    17A     -0.534836    18A     -0.492039
      19A     -0.476503    20A     -0.447704

  @DF-RHF Final Energy:  -282.79366943620346

   => Energetics <=

    Nuclear Repulsion Energy =            182.3917862753241650
    One-Electron Energy =                -747.3636057384906053
    Two-Electron Energy =                 282.1781500269629532
    Total Energy =                       -282.7936694362034586
  Basis Set: (AUG-CC-PVTZ AUX)
    Blend: AUG-CC-PVTZ-RI
    Molecular point group: c1

    Geometry (in Angstrom), charge = 0, multiplicity = 1:

       Center              X                  Y                   Z               Mass
    ------------   -----------------  -----------------  -----------------  -----------------
         O            1.578623212891    -0.619307674010    -0.110114090691    15.994914619570
         O            0.465162212891     1.275403325990     0.083776909309    15.994914619570
         N            0.566065312891    -0.034636974010    -0.042909990691    14.003074004430
         C           -0.733242787109    -0.752118674010     0.178242909309    12.000000000000
         C           -1.965755787109     0.077515325990    -0.107419090691    12.000000000000
         H           -0.616755787109    -1.601537674010    -0.496093090691     1.007825032230
         H           -0.710720787109    -1.127289674010     1.205195909309     1.007825032230
         H           -2.045045787109     0.912752325990     0.587835909309     1.007825032230
         H           -1.942378787109     0.473809325990    -1.124167090691     1.007825032230
         H           -2.850052787109    -0.556803674010    -0.001862090691     1.007825032230

  Basis Set: AUG-CC-PVTZ
    Blend: AUG-CC-PVTZ
  Basis Set: (AUG-CC-PVTZ AUX)
    Blend: AUG-CC-PVTZ-JKFIT
	 Reference Energy          =    -282.7936694362034586 [Eh]
	 Singles Energy            =      -0.0000000000000000 [Eh]
	 Same-Spin Energy          =      -0.2803096738336507 [Eh]
	 Opposite-Spin Energy      =      -0.8678388165763518 [Eh]
	 Correlation Energy        =      -1.1481484904100023 [Eh]
	 Total Energy              =    -283.9418179266134530 [Eh]

	 ================> DF-SCS-MP2 Energies <==================
	-----------------------------------------------------------
	 SCS Same-Spin Scale       =       0.3333333333333333 [-]
	 SCS Opposite-Spin Scale   =       1.2000000000000000 [-]
	 SCS Same-Spin Energy      =      -0.0934365579445502 [Eh]
	 SCS Opposite-Spin Energy  =      -1.0414065798916221 [Eh]
	 SCS Correlation Energy    =      -1.1348431378361723 [Eh]
	 SCS Total Energy          =    -283.9285125740396438 [Eh]
	-----------------------------------------------------------

  Dipole Moment: [D]
     X:    -3.0350      Y:    -2.0301      Z:     0.2244     Total:     3.6583

*** Psi4 exiting successfully. Buy a developer a beer!
