                               Psi4 1.4a3.dev225

  ==> Input File <==

--------------------------------------------------------------------------
#psi4
#
memory 32 gb

molecule  {
0 1
  O        1.6854460    -0.6082710    -0.1241230
  O        0.5718390     1.2863960     0.0693880
  N        0.6408540     0.0479940     0.0121840
  C       -0.6433544    -0.7517516     0.1656515
  C       -1.8590430     0.0884940    -0.1214310
  H       -0.5100180    -1.5902840    -0.5111790
  H       -0.6037960    -1.1170010     1.1903640
  H       -1.9383190     0.9233440     0.5742920
  H       -1.8358000     0.4853590    -1.1379580
  H       -2.7432880    -0.5459410    -0.0161300
units angstrom
no_reorient  #important for SAPT in psi4, default
symmetry c1  #important for SAPT in psi4, default
}

set PROPERTIES_ORIGIN ["COM"]
properties('MP2/aug-cc-pvtz', properties = ['dipole'])
--------------------------------------------------------------------------

    Molecular point group: c1
  Charge       = 0
  Multiplicity = 1
  Basis Set: AUG-CC-PVTZ
    Blend: AUG-CC-PVTZ
  Basis Set: (AUG-CC-PVTZ AUX)
    Blend: AUG-CC-PVTZ-JKFIT

    Orbital Energies [Eh]
    ---------------------

    Doubly Occupied:

       1A    -20.609137     2A    -20.606293     3A    -15.847695
       4A    -11.315861     5A    -11.250579     6A     -1.585959
       7A     -1.387825     8A     -1.122252     9A     -0.967316
      10A     -0.841197    11A     -0.748400    12A     -0.730129
      13A     -0.718489    14A     -0.635289    15A     -0.592730
      16A     -0.567028    17A     -0.539372    18A     -0.495063
      19A     -0.484538    20A     -0.451894

  @DF-RHF Final Energy:  -282.80597816166744

   => Energetics <=

    Nuclear Repulsion Energy =            182.2519307744391313
    One-Electron Energy =                -747.1217234952871422
    Two-Electron Energy =                 282.0638145591805142
    Total Energy =                       -282.8059781616674400
  Basis Set: (AUG-CC-PVTZ AUX)
    Blend: AUG-CC-PVTZ-RI
    Molecular point group: c1

    Geometry (in Angstrom), charge = 0, multiplicity = 1:

       Center              X                  Y                   Z               Mass
    ------------   -----------------  -----------------  -----------------  -----------------
         O            1.587363852399    -0.630935552650    -0.123136015142    15.994914619570
         O            0.473756852399     1.263731447350     0.070374984858    15.994914619570
         N            0.542771852399     0.025329447350     0.013170984858    14.003074004430
         C           -0.741436547601    -0.774416152650     0.166638484858    12.000000000000
         C           -1.957125147601     0.065829447350    -0.120444015142    12.000000000000
         H           -0.608100147601    -1.612948552650    -0.510192015142     1.007825032230
         H           -0.701878147601    -1.139665552650     1.191350984858     1.007825032230
         H           -2.036401147601     0.900679447350     0.575278984858     1.007825032230
         H           -1.933882147601     0.462694447350    -1.136971015142     1.007825032230
         H           -2.841370147601    -0.568605552650    -0.015143015142     1.007825032230

  Basis Set: AUG-CC-PVTZ
    Blend: AUG-CC-PVTZ
  Basis Set: (AUG-CC-PVTZ AUX)
    Blend: AUG-CC-PVTZ-JKFIT
	 Reference Energy          =    -282.8059781616674400 [Eh]
	 Singles Energy            =      -0.0000000000000000 [Eh]
	 Same-Spin Energy          =      -0.2810287898564472 [Eh]
	 Opposite-Spin Energy      =      -0.8690361691976394 [Eh]
	 Correlation Energy        =      -1.1500649590540866 [Eh]
	 Total Energy              =    -283.9560431207215174 [Eh]

	 ================> DF-SCS-MP2 Energies <==================
	-----------------------------------------------------------
	 SCS Same-Spin Scale       =       0.3333333333333333 [-]
	 SCS Opposite-Spin Scale   =       1.2000000000000000 [-]
	 SCS Same-Spin Energy      =      -0.0936762632854824 [Eh]
	 SCS Opposite-Spin Energy  =      -1.0428434030371672 [Eh]
	 SCS Correlation Energy    =      -1.1365196663226496 [Eh]
	 SCS Total Energy          =    -283.9424978279901097 [Eh]
	-----------------------------------------------------------

  Dipole Moment: [D]
     X:    -3.2927      Y:    -1.5987      Z:     0.2885     Total:     3.6717

*** Psi4 exiting successfully. Buy a developer a beer!
