                               Psi4 1.3.2 release

  ==> Input File <==

--------------------------------------------------------------------------
#psi4
#
memory 32 gb

molecule  {
0 1
  O        1.6738280    -0.6266188    -0.1230945
  O        0.5719120     1.2863760     0.0695120
  N        0.6408460     0.0479760     0.0122270
  C       -0.6264930    -0.7411460     0.1639780
  C       -1.8590060     0.0884880    -0.1216840
  H       -0.5100060    -1.5905650    -0.5103580
  H       -0.6039710    -1.1163170     1.1909310
  H       -1.9382960     0.9237250     0.5735710
  H       -1.8356290     0.4847820    -1.1384320
  H       -2.7433030    -0.5458310    -0.0161270
units angstrom
no_reorient  #important for SAPT in psi4, default
symmetry c1  #important for SAPT in psi4, default
}

set PROPERTIES_ORIGIN ["COM"]
properties('MP2/aug-cc-pvtz', properties = ['dipole'])
--------------------------------------------------------------------------

    Molecular point group: c1
  Charge       = 0
  Multiplicity = 1
  Basis Set: AUG-CC-PVTZ
    Blend: AUG-CC-PVTZ
  Basis Set: (AUG-CC-PVTZ AUX)
    Blend: AUG-CC-PVTZ-JKFIT

    Orbital Energies [Eh]
    ---------------------

    Doubly Occupied:

       1A    -20.611383     2A    -20.607754     3A    -15.849818
       4A    -11.314045     5A    -11.250025     6A     -1.588257
       7A     -1.391272     8A     -1.123368     9A     -0.968597
      10A     -0.841006    11A     -0.750053    12A     -0.732029
      13A     -0.720659    14A     -0.632682    15A     -0.592103
      16A     -0.562826    17A     -0.537289    18A     -0.497364
      19A     -0.486919    20A     -0.453820

  @DF-RHF Final Energy:  -282.80604018867058

   => Energetics <=

    Nuclear Repulsion Energy =            182.5369741786568341
    One-Electron Energy =                -747.6634921726119956
    Two-Electron Energy =                 282.3204778052846109
    Total Energy =                       -282.8060401886705790
  Basis Set: (AUG-CC-PVTZ AUX)
    Blend: AUG-CC-PVTZ-RI
    Molecular point group: c1

    Geometry (in Angstrom), charge = 0, multiplicity = 1:

       Center              X                  Y                   Z               Mass
    ------------   -----------------  -----------------  -----------------  -----------------
         O            1.575505640163    -0.647063916883    -0.122055747982    15.994914619570
         O            0.473589640163     1.265930883117     0.070550752018    15.994914619570
         N            0.542523640163     0.027530883117     0.013265752018    14.003074004430
         C           -0.724815359837    -0.761591116883     0.165016752018    12.000000000000
         C           -1.957328359837     0.068042883117    -0.120645247982    12.000000000000
         H           -0.608328359837    -1.611010116883    -0.509319247982     1.007825032230
         H           -0.702293359837    -1.136762116883     1.191969752018     1.007825032230
         H           -2.036618359837     0.903279883117     0.574609752018     1.007825032230
         H           -1.933951359837     0.464336883117    -1.137393247982     1.007825032230
         H           -2.841625359837    -0.566276116883    -0.015088247982     1.007825032230

  Basis Set: AUG-CC-PVTZ
    Blend: AUG-CC-PVTZ
  Basis Set: (AUG-CC-PVTZ AUX)
    Blend: AUG-CC-PVTZ-JKFIT
	 Reference Energy          =    -282.8060401886705790 [Eh]
	 Singles Energy            =      -0.0000000000000000 [Eh]
	 Same-Spin Energy          =      -0.2810959131553679 [Eh]
	 Opposite-Spin Energy      =      -0.8690944178012351 [Eh]
	 Correlation Energy        =      -1.1501903309566028 [Eh]
	 Total Energy              =    -283.9562305196271836 [Eh]

	 ================> DF-SCS-MP2 Energies <==================
	-----------------------------------------------------------
	 SCS Same-Spin Scale       =       0.3333333333333333 [-]
	 SCS Opposite-Spin Scale   =       1.2000000000000000 [-]
	 SCS Same-Spin Energy      =      -0.0936986377184559 [Eh]
	 SCS Opposite-Spin Energy  =      -1.0429133013614820 [Eh]
	 SCS Correlation Energy    =      -1.1366119390799378 [Eh]
	 SCS Total Energy          =    -283.9426521277505344 [Eh]
	-----------------------------------------------------------

  Dipole Moment: [D]
     X:    -3.2345      Y:    -1.5655      Z:     0.2874     Total:     3.6049

*** Psi4 exiting successfully. Buy a developer a beer!
