                               Psi4 1.4a3.dev225

  ==> Input File <==

--------------------------------------------------------------------------
#psi4
#
memory 32 gb

molecule  {
0 1
  O        1.6854460    -0.6082710    -0.1241230
  O        0.5718390     1.2863960     0.0693880
  N        0.6576867     0.0374188     0.0099875
  C       -0.6264640    -0.7412330     0.1636330
  C       -1.8590430     0.0884940    -0.1214310
  H       -0.5100180    -1.5902840    -0.5111790
  H       -0.6037960    -1.1170010     1.1903640
  H       -1.9383190     0.9233440     0.5742920
  H       -1.8358000     0.4853590    -1.1379580
  H       -2.7432880    -0.5459410    -0.0161300
units angstrom
no_reorient  #important for SAPT in psi4, default
symmetry c1  #important for SAPT in psi4, default
}

set PROPERTIES_ORIGIN ["COM"]
properties('MP2/aug-cc-pvtz', properties = ['dipole'])
--------------------------------------------------------------------------

    Molecular point group: c1
  Charge       = 0
  Multiplicity = 1
  Basis Set: AUG-CC-PVTZ
    Blend: AUG-CC-PVTZ
  Basis Set: (AUG-CC-PVTZ AUX)
    Blend: AUG-CC-PVTZ-JKFIT

    Orbital Energies [Eh]
    ---------------------

    Doubly Occupied:

       1A    -20.613723     2A    -20.603170     3A    -15.849079
       4A    -11.314837     5A    -11.249913     6A     -1.592678
       7A     -1.391786     8A     -1.120956     9A     -0.968001
      10A     -0.840432    11A     -0.750435    12A     -0.732439
      13A     -0.721292    14A     -0.633963    15A     -0.593053
      16A     -0.562407    17A     -0.536720    18A     -0.494913
      19A     -0.486814    20A     -0.453746

  @DF-RHF Final Energy:  -282.80689044551747

   => Energetics <=

    Nuclear Repulsion Energy =            182.4994436908888531
    One-Electron Energy =                -747.5919527764565373
    Two-Electron Energy =                 282.2856186400502452
    Total Energy =                       -282.8068904455174675
  Basis Set: (AUG-CC-PVTZ AUX)
    Blend: AUG-CC-PVTZ-RI
    Molecular point group: c1

    Geometry (in Angstrom), charge = 0, multiplicity = 1:

       Center              X                  Y                   Z               Mass
    ------------   -----------------  -----------------  -----------------  -----------------
         O            1.581521089607    -0.630644182303    -0.122403264699    15.994914619570
         O            0.467914089607     1.264022817697     0.071107735301    15.994914619570
         N            0.553761789607     0.015045617697     0.011707235301    14.003074004430
         C           -0.730388910393    -0.763606182303     0.165352735301    12.000000000000
         C           -1.962967910393     0.066120817697    -0.119711264699    12.000000000000
         H           -0.613942910393    -1.612657182303    -0.509459264699     1.007825032230
         H           -0.707720910393    -1.139374182303     1.192083735301     1.007825032230
         H           -2.042243910393     0.900970817697     0.576011735301     1.007825032230
         H           -1.939724910393     0.462985817697    -1.136238264699     1.007825032230
         H           -2.847212910393    -0.568314182303    -0.014410264699     1.007825032230

  Basis Set: AUG-CC-PVTZ
    Blend: AUG-CC-PVTZ
  Basis Set: (AUG-CC-PVTZ AUX)
    Blend: AUG-CC-PVTZ-JKFIT
	 Reference Energy          =    -282.8068904455174675 [Eh]
	 Singles Energy            =      -0.0000000000000000 [Eh]
	 Same-Spin Energy          =      -0.2807223198267054 [Eh]
	 Opposite-Spin Energy      =      -0.8682872125016603 [Eh]
	 Correlation Energy        =      -1.1490095323283658 [Eh]
	 Total Energy              =    -283.9558999778458315 [Eh]

	 ================> DF-SCS-MP2 Energies <==================
	-----------------------------------------------------------
	 SCS Same-Spin Scale       =       0.3333333333333333 [-]
	 SCS Opposite-Spin Scale   =       1.2000000000000000 [-]
	 SCS Same-Spin Energy      =      -0.0935741066089018 [Eh]
	 SCS Opposite-Spin Energy  =      -1.0419446550019924 [Eh]
	 SCS Correlation Energy    =      -1.1355187616108942 [Eh]
	 SCS Total Energy          =    -283.9424092071283781 [Eh]
	-----------------------------------------------------------

  Dipole Moment: [D]
     X:    -3.1891      Y:    -1.6645      Z:     0.2765     Total:     3.6079

*** Psi4 exiting successfully. Buy a developer a beer!
