                               Psi4 1.3.2 release

  ==> Input File <==

--------------------------------------------------------------------------
#psi4
#
memory 32 gb

molecule  {
0 1
  O        1.6965998    -0.5898513    -0.1256218
  O        0.5719120     1.2863760     0.0695120
  N        0.6408460     0.0479760     0.0122270
  C       -0.6264930    -0.7411460     0.1639780
  C       -1.8590060     0.0884880    -0.1216840
  H       -0.5100060    -1.5905650    -0.5103580
  H       -0.6039710    -1.1163170     1.1909310
  H       -1.9382960     0.9237250     0.5735710
  H       -1.8356290     0.4847820    -1.1384320
  H       -2.7433030    -0.5458310    -0.0161270
units angstrom
no_reorient  #important for SAPT in psi4, default
symmetry c1  #important for SAPT in psi4, default
}

set PROPERTIES_ORIGIN ["COM"]
properties('MP2/aug-cc-pvtz', properties = ['dipole'])
--------------------------------------------------------------------------

    Molecular point group: c1
  Charge       = 0
  Multiplicity = 1
  Basis Set: AUG-CC-PVTZ
    Blend: AUG-CC-PVTZ
  Basis Set: (AUG-CC-PVTZ AUX)
    Blend: AUG-CC-PVTZ-JKFIT

    Orbital Energies [Eh]
    ---------------------

    Doubly Occupied:

       1A    -20.608751     2A    -20.606241     3A    -15.848981
       4A    -11.316145     5A    -11.251176     6A     -1.588230
       7A     -1.387060     8A     -1.125485     9A     -0.969927
      10A     -0.840196    11A     -0.750314    12A     -0.731439
      13A     -0.719246    14A     -0.633314    15A     -0.592326
      16A     -0.563829    17A     -0.538238    18A     -0.494857
      19A     -0.488385    20A     -0.451488

  @DF-RHF Final Energy:  -282.80636002394192

   => Energetics <=

    Nuclear Repulsion Energy =            182.4784405371163700
    One-Electron Energy =                -747.5583439646172792
    Two-Electron Energy =                 282.2735434035589606
    Total Energy =                       -282.8063600239419202
  Basis Set: (AUG-CC-PVTZ AUX)
    Blend: AUG-CC-PVTZ-RI
    Molecular point group: c1

    Geometry (in Angstrom), charge = 0, multiplicity = 1:

       Center              X                  Y                   Z               Mass
    ------------   -----------------  -----------------  -----------------  -----------------
         O            1.593423073241    -0.618134310057    -0.124044292086    15.994914619570
         O            0.468735273241     1.258092989943     0.071089507914    15.994914619570
         N            0.537669273241     0.019692989943     0.013804507914    14.003074004430
         C           -0.729669726759    -0.769429010057     0.165555507914    12.000000000000
         C           -1.962182726759     0.060204989943    -0.120106492086    12.000000000000
         H           -0.613182726759    -1.618848010057    -0.508780492086     1.007825032230
         H           -0.707147726759    -1.144600010057     1.192508507914     1.007825032230
         H           -2.041472726759     0.895441989943     0.575148507914     1.007825032230
         H           -1.938805726759     0.456498989943    -1.136854492086     1.007825032230
         H           -2.846479726759    -0.574114010057    -0.014549492086     1.007825032230

  Basis Set: AUG-CC-PVTZ
    Blend: AUG-CC-PVTZ
  Basis Set: (AUG-CC-PVTZ AUX)
    Blend: AUG-CC-PVTZ-JKFIT
	 Reference Energy          =    -282.8063600239419202 [Eh]
	 Singles Energy            =      -0.0000000000000000 [Eh]
	 Same-Spin Energy          =      -0.2810013936515119 [Eh]
	 Opposite-Spin Energy      =      -0.8689428987241012 [Eh]
	 Correlation Energy        =      -1.1499442923756131 [Eh]
	 Total Energy              =    -283.9563043163175280 [Eh]

	 ================> DF-SCS-MP2 Energies <==================
	-----------------------------------------------------------
	 SCS Same-Spin Scale       =       0.3333333333333333 [-]
	 SCS Opposite-Spin Scale   =       1.2000000000000000 [-]
	 SCS Same-Spin Energy      =      -0.0936671312171706 [Eh]
	 SCS Opposite-Spin Energy  =      -1.0427314784689214 [Eh]
	 SCS Correlation Energy    =      -1.1363986096860921 [Eh]
	 SCS Total Energy          =    -283.9427586336279887 [Eh]
	-----------------------------------------------------------

  Dipole Moment: [D]
     X:    -3.3077      Y:    -1.6267      Z:     0.2924     Total:     3.6977

*** Psi4 exiting successfully. Buy a developer a beer!
