                               Psi4 1.3.2 release

  ==> Input File <==

--------------------------------------------------------------------------
#psi4
#
memory 32 gb

molecule  {
0 1
  O        1.6619684    -0.6446971    -0.1217689
  O        0.5719120     1.2863760     0.0695120
  N        0.6408460     0.0479760     0.0122270
  C       -0.6264930    -0.7411460     0.1639780
  C       -1.8590060     0.0884880    -0.1216840
  H       -0.5100060    -1.5905650    -0.5103580
  H       -0.6039710    -1.1163170     1.1909310
  H       -1.9382960     0.9237250     0.5735710
  H       -1.8356290     0.4847820    -1.1384320
  H       -2.7433030    -0.5458310    -0.0161270
units angstrom
no_reorient  #important for SAPT in psi4, default
symmetry c1  #important for SAPT in psi4, default
}

set PROPERTIES_ORIGIN ["COM"]
properties('MP2/aug-cc-pvtz', properties = ['dipole'])
--------------------------------------------------------------------------

    Molecular point group: c1
  Charge       = 0
  Multiplicity = 1
  Basis Set: AUG-CC-PVTZ
    Blend: AUG-CC-PVTZ
  Basis Set: (AUG-CC-PVTZ AUX)
    Blend: AUG-CC-PVTZ-JKFIT

    Orbital Energies [Eh]
    ---------------------

    Doubly Occupied:

       1A    -20.612681     2A    -20.608469     3A    -15.850208
       4A    -11.312987     5A    -11.249429     6A     -1.588300
       7A     -1.393330     8A     -1.122285     9A     -0.967920
      10A     -0.841440    11A     -0.749891    12A     -0.732342
      13A     -0.721324    14A     -0.632352    15A     -0.592003
      16A     -0.562328    17A     -0.536810    18A     -0.498729
      19A     -0.485914    20A     -0.454952

  @DF-RHF Final Energy:  -282.80557621331229

   => Energetics <=

    Nuclear Repulsion Energy =            182.5728517707621563
    One-Electron Energy =                -747.7294690758478737
    Two-Electron Energy =                 282.3510410917734816
    Total Energy =                       -282.8055762133122926
  Basis Set: (AUG-CC-PVTZ AUX)
    Blend: AUG-CC-PVTZ-RI
    Molecular point group: c1

    Geometry (in Angstrom), charge = 0, multiplicity = 1:

       Center              X                  Y                   Z               Mass
    ------------   -----------------  -----------------  -----------------  -----------------
         O            1.566174204381    -0.661288384445    -0.121012732090    15.994914619570
         O            0.476117804381     1.269784715555     0.070268167910    15.994914619570
         N            0.545051804381     0.031384715555     0.012983167910    14.003074004430
         C           -0.722287195619    -0.757737284445     0.164734167910    12.000000000000
         C           -1.954800195619     0.071896715555    -0.120927832090    12.000000000000
         H           -0.605800195619    -1.607156284445    -0.509601832090     1.007825032230
         H           -0.699765195619    -1.132908284445     1.191687167910     1.007825032230
         H           -2.034090195619     0.907133715555     0.574327167910     1.007825032230
         H           -1.931423195619     0.468190715555    -1.137675832090     1.007825032230
         H           -2.839097195619    -0.562422284445    -0.015370832090     1.007825032230

  Basis Set: AUG-CC-PVTZ
    Blend: AUG-CC-PVTZ
  Basis Set: (AUG-CC-PVTZ AUX)
    Blend: AUG-CC-PVTZ-JKFIT
	 Reference Energy          =    -282.8055762133122926 [Eh]
	 Singles Energy            =      -0.0000000000000000 [Eh]
	 Same-Spin Energy          =      -0.2811493836037528 [Eh]
	 Opposite-Spin Energy      =      -0.8691849966502767 [Eh]
	 Correlation Energy        =      -1.1503343802540296 [Eh]
	 Total Energy              =    -283.9559105935663297 [Eh]

	 ================> DF-SCS-MP2 Energies <==================
	-----------------------------------------------------------
	 SCS Same-Spin Scale       =       0.3333333333333333 [-]
	 SCS Opposite-Spin Scale   =       1.2000000000000000 [-]
	 SCS Same-Spin Energy      =      -0.0937164612012509 [Eh]
	 SCS Opposite-Spin Energy  =      -1.0430219959803320 [Eh]
	 SCS Correlation Energy    =      -1.1367384571815828 [Eh]
	 SCS Total Energy          =    -283.9423146704938858 [Eh]
	-----------------------------------------------------------

  Dipole Moment: [D]
     X:    -3.1968      Y:    -1.5354      Z:     0.2848     Total:     3.5578

*** Psi4 exiting successfully. Buy a developer a beer!
