                               Psi4 1.3.2 release

  ==> Input File <==

--------------------------------------------------------------------------
#psi4
#
memory 32 gb

molecule  {
0 1
  O        1.6853730    -0.6083350    -0.1243790
  O        0.5719120     1.2863760     0.0695120
  N        0.6864343    -0.0608178    -0.0914928
  C       -0.6264930    -0.7411460     0.1639780
  C       -1.8590060     0.0884880    -0.1216840
  H       -0.5100060    -1.5905650    -0.5103580
  H       -0.6039710    -1.1163170     1.1909310
  H       -1.9382960     0.9237250     0.5735710
  H       -1.8356290     0.4847820    -1.1384320
  H       -2.7433030    -0.5458310    -0.0161270
units angstrom
no_reorient  #important for SAPT in psi4, default
symmetry c1  #important for SAPT in psi4, default
}

set PROPERTIES_ORIGIN ["COM"]
properties('MP2/aug-cc-pvtz', properties = ['dipole'])
--------------------------------------------------------------------------

    Molecular point group: c1
  Charge       = 0
  Multiplicity = 1
  Basis Set: AUG-CC-PVTZ
    Blend: AUG-CC-PVTZ
  Basis Set: (AUG-CC-PVTZ AUX)
    Blend: AUG-CC-PVTZ-JKFIT

    Orbital Energies [Eh]
    ---------------------

    Doubly Occupied:

       1A    -20.652908     2A    -20.564491     3A    -15.843827
       4A    -11.316488     5A    -11.247922     6A     -1.643607
       7A     -1.340065     8A     -1.122500     9A     -0.972387
      10A     -0.848957    11A     -0.760661    12A     -0.740789
      13A     -0.730052    14A     -0.638987    15A     -0.592575
      16A     -0.561638    17A     -0.534515    18A     -0.485217
      19A     -0.465066    20A     -0.441912

  @DF-RHF Final Energy:  -282.77862505457432

   => Energetics <=

    Nuclear Repulsion Energy =            182.3525030034839460
    One-Electron Energy =                -747.2531312264725329
    Two-Electron Energy =                 282.1220031684143237
    Total Energy =                       -282.7786250545743201
  Basis Set: (AUG-CC-PVTZ AUX)
    Blend: AUG-CC-PVTZ-RI
    Molecular point group: c1

    Geometry (in Angstrom), charge = 0, multiplicity = 1:

       Center              X                  Y                   Z               Mass
    ------------   -----------------  -----------------  -----------------  -----------------
         O            1.576081489449    -0.612373792292    -0.103709411201    15.994914619570
         O            0.462620489449     1.282337207708     0.090181588799    15.994914619570
         N            0.577142789449    -0.064856592292    -0.070823211201    14.003074004430
         C           -0.735784510551    -0.745184792292     0.184647588799    12.000000000000
         C           -1.968297510551     0.084449207708    -0.101014411201    12.000000000000
         H           -0.619297510551    -1.594603792292    -0.489688411201     1.007825032230
         H           -0.713262510551    -1.120355792292     1.211600588799     1.007825032230
         H           -2.047587510551     0.919686207708     0.594240588799     1.007825032230
         H           -1.944920510551     0.480743207708    -1.117762411201     1.007825032230
         H           -2.852594510551    -0.549869792292     0.004542588799     1.007825032230

  Basis Set: AUG-CC-PVTZ
    Blend: AUG-CC-PVTZ
  Basis Set: (AUG-CC-PVTZ AUX)
    Blend: AUG-CC-PVTZ-JKFIT
	 Reference Energy          =    -282.7786250545743201 [Eh]
	 Singles Energy            =      -0.0000000000000000 [Eh]
	 Same-Spin Energy          =      -0.2793836421755397 [Eh]
	 Opposite-Spin Energy      =      -0.8663326599612853 [Eh]
	 Correlation Energy        =      -1.1457163021368251 [Eh]
	 Total Energy              =    -283.9243413567111247 [Eh]

	 ================> DF-SCS-MP2 Energies <==================
	-----------------------------------------------------------
	 SCS Same-Spin Scale       =       0.3333333333333333 [-]
	 SCS Opposite-Spin Scale   =       1.2000000000000000 [-]
	 SCS Same-Spin Energy      =      -0.0931278807251799 [Eh]
	 SCS Opposite-Spin Energy  =      -1.0395991919535423 [Eh]
	 SCS Correlation Energy    =      -1.1327270726787222 [Eh]
	 SCS Total Energy          =    -283.9113521272530534 [Eh]
	-----------------------------------------------------------

  Dipole Moment: [D]
     X:    -2.9096      Y:    -2.3310      Z:     0.1878     Total:     3.7329

*** Psi4 exiting successfully. Buy a developer a beer!
