                               Psi4 1.3.2 release

  ==> Input File <==

--------------------------------------------------------------------------
#psi4
#
memory 32 gb

molecule  {
0 1
  O        1.6853730    -0.6083350    -0.1243790
  O        0.5719120     1.2863760     0.0695120
  N        0.6576128     0.0126150    -0.0225876
  C       -0.6264930    -0.7411460     0.1639780
  C       -1.8590060     0.0884880    -0.1216840
  H       -0.5100060    -1.5905650    -0.5103580
  H       -0.6039710    -1.1163170     1.1909310
  H       -1.9382960     0.9237250     0.5735710
  H       -1.8356290     0.4847820    -1.1384320
  H       -2.7433030    -0.5458310    -0.0161270
units angstrom
no_reorient  #important for SAPT in psi4, default
symmetry c1  #important for SAPT in psi4, default
}

set PROPERTIES_ORIGIN ["COM"]
properties('MP2/aug-cc-pvtz', properties = ['dipole'])
--------------------------------------------------------------------------

    Molecular point group: c1
  Charge       = 0
  Multiplicity = 1
  Basis Set: AUG-CC-PVTZ
    Blend: AUG-CC-PVTZ
  Basis Set: (AUG-CC-PVTZ AUX)
    Blend: AUG-CC-PVTZ-JKFIT

    Orbital Energies [Eh]
    ---------------------

    Doubly Occupied:

       1A    -20.623002     2A    -20.594276     3A    -15.848780
       4A    -11.315420     5A    -11.249638     6A     -1.595909
       7A     -1.382210     8A     -1.123660     9A     -0.970000
      10A     -0.841051    11A     -0.751246    12A     -0.732935
      13A     -0.720275    14A     -0.633795    15A     -0.593058
      16A     -0.561986    17A     -0.535899    18A     -0.493479
      19A     -0.486580    20A     -0.451604

  @DF-RHF Final Energy:  -282.80294808281423

   => Energetics <=

    Nuclear Repulsion Energy =            182.4412027188822378
    One-Electron Energy =                -747.4786973872371618
    Two-Electron Energy =                 282.2345465855407269
    Total Energy =                       -282.8029480828142255
  Basis Set: (AUG-CC-PVTZ AUX)
    Blend: AUG-CC-PVTZ-RI
    Molecular point group: c1

    Geometry (in Angstrom), charge = 0, multiplicity = 1:

       Center              X                  Y                   Z               Mass
    ------------   -----------------  -----------------  -----------------  -----------------
         O            1.581460387048    -0.626078405570    -0.116569047751    15.994914619570
         O            0.467999387048     1.268632594430     0.077321952249    15.994914619570
         N            0.553700187048    -0.005128405570    -0.014777647751    14.003074004430
         C           -0.730405612952    -0.758889405570     0.171787952249    12.000000000000
         C           -1.962918612952     0.070744594430    -0.113874047751    12.000000000000
         H           -0.613918612952    -1.608308405570    -0.502548047751     1.007825032230
         H           -0.707883612952    -1.134060405570     1.198740952249     1.007825032230
         H           -2.042208612952     0.905981594430     0.581380952249     1.007825032230
         H           -1.939541612952     0.467038594430    -1.130622047751     1.007825032230
         H           -2.847215612952    -0.563574405570    -0.008317047751     1.007825032230

  Basis Set: AUG-CC-PVTZ
    Blend: AUG-CC-PVTZ
  Basis Set: (AUG-CC-PVTZ AUX)
    Blend: AUG-CC-PVTZ-JKFIT
	 Reference Energy          =    -282.8029480828142255 [Eh]
	 Singles Energy            =      -0.0000000000000000 [Eh]
	 Same-Spin Energy          =      -0.2808794969073803 [Eh]
	 Opposite-Spin Energy      =      -0.8687894510999328 [Eh]
	 Correlation Energy        =      -1.1496689480073132 [Eh]
	 Total Energy              =    -283.9526170308215569 [Eh]

	 ================> DF-SCS-MP2 Energies <==================
	-----------------------------------------------------------
	 SCS Same-Spin Scale       =       0.3333333333333333 [-]
	 SCS Opposite-Spin Scale   =       1.2000000000000000 [-]
	 SCS Same-Spin Energy      =      -0.0936264989691268 [Eh]
	 SCS Opposite-Spin Energy  =      -1.0425473413199193 [Eh]
	 SCS Correlation Energy    =      -1.1361738402890462 [Eh]
	 SCS Total Energy          =    -283.9391219231032437 [Eh]
	-----------------------------------------------------------

  Dipole Moment: [D]
     X:    -3.1513      Y:    -1.7937      Z:     0.2574     Total:     3.6351

*** Psi4 exiting successfully. Buy a developer a beer!
