                               Psi4 1.4a3.dev225

  ==> Input File <==

--------------------------------------------------------------------------
#psi4
#
memory 32 gb

molecule  {
0 1
  O        1.6854460    -0.6082710    -0.1241230
  O        0.5718390     1.2863960     0.0693880
  N        0.5987721     0.0744319     0.0176752
  C       -0.6264640    -0.7412330     0.1636330
  C       -1.8590430     0.0884940    -0.1214310
  H       -0.5100180    -1.5902840    -0.5111790
  H       -0.6037960    -1.1170010     1.1903640
  H       -1.9383190     0.9233440     0.5742920
  H       -1.8358000     0.4853590    -1.1379580
  H       -2.7432880    -0.5459410    -0.0161300
units angstrom
no_reorient  #important for SAPT in psi4, default
symmetry c1  #important for SAPT in psi4, default
}

set PROPERTIES_ORIGIN ["COM"]
properties('MP2/aug-cc-pvtz', properties = ['dipole'])
--------------------------------------------------------------------------

    Molecular point group: c1
  Charge       = 0
  Multiplicity = 1
  Basis Set: AUG-CC-PVTZ
    Blend: AUG-CC-PVTZ
  Basis Set: (AUG-CC-PVTZ AUX)
    Blend: AUG-CC-PVTZ-JKFIT

    Orbital Energies [Eh]
    ---------------------

    Doubly Occupied:

       1A    -20.627173     2A    -20.590202     3A    -15.849241
       4A    -11.315641     5A    -11.252220     6A     -1.590243
       7A     -1.372867     8A     -1.133126     9A     -0.972293
      10A     -0.842844    11A     -0.753150    12A     -0.732348
      13A     -0.718026    14A     -0.631894    15A     -0.590552
      16A     -0.566025    17A     -0.540564    18A     -0.500834
      19A     -0.481238    20A     -0.448041

  @DF-RHF Final Energy:  -282.80043248385471

   => Energetics <=

    Nuclear Repulsion Energy =            182.5699331930573805
    One-Electron Energy =                -747.7236924294073788
    Two-Electron Energy =                 282.3533267524952635
    Total Energy =                       -282.8004324838547063
  Basis Set: (AUG-CC-PVTZ AUX)
    Blend: AUG-CC-PVTZ-RI
    Molecular point group: c1

    Geometry (in Angstrom), charge = 0, multiplicity = 1:

       Center              X                  Y                   Z               Mass
    ------------   -----------------  -----------------  -----------------  -----------------
         O            1.592516200912    -0.637551861456    -0.123838004427    15.994914619570
         O            0.478909200912     1.257115138544     0.069672995573    15.994914619570
         N            0.505842300912     0.045151038544     0.017960195573    14.003074004430
         C           -0.719393799088    -0.770513861456     0.163917995573    12.000000000000
         C           -1.951972799088     0.059213138544    -0.121146004427    12.000000000000
         H           -0.602947799088    -1.619564861456    -0.510894004427     1.007825032230
         H           -0.696725799088    -1.146281861456     1.190648995573     1.007825032230
         H           -2.031248799088     0.894063138544     0.574576995573     1.007825032230
         H           -1.928729799088     0.456078138544    -1.137673004427     1.007825032230
         H           -2.836217799088    -0.575221861456    -0.015845004427     1.007825032230

  Basis Set: AUG-CC-PVTZ
    Blend: AUG-CC-PVTZ
  Basis Set: (AUG-CC-PVTZ AUX)
    Blend: AUG-CC-PVTZ-JKFIT
	 Reference Energy          =    -282.8004324838547063 [Eh]
	 Singles Energy            =      -0.0000000000000000 [Eh]
	 Same-Spin Energy          =      -0.2814457954502824 [Eh]
	 Opposite-Spin Energy      =      -0.8699646901891023 [Eh]
	 Correlation Energy        =      -1.1514104856393845 [Eh]
	 Total Energy              =    -283.9518429694940664 [Eh]

	 ================> DF-SCS-MP2 Energies <==================
	-----------------------------------------------------------
	 SCS Same-Spin Scale       =       0.3333333333333333 [-]
	 SCS Opposite-Spin Scale   =       1.2000000000000000 [-]
	 SCS Same-Spin Energy      =      -0.0938152651500941 [Eh]
	 SCS Opposite-Spin Energy  =      -1.0439576282269227 [Eh]
	 SCS Correlation Energy    =      -1.1377728933770168 [Eh]
	 SCS Total Energy          =    -283.9382053772317249 [Eh]
	-----------------------------------------------------------

  Dipole Moment: [D]
     X:    -3.4787      Y:    -1.4409      Z:     0.3214     Total:     3.7790

*** Psi4 exiting successfully. Buy a developer a beer!
