                               Psi4 1.3.2 release

  ==> Input File <==

--------------------------------------------------------------------------
#psi4
#
memory 32 gb

molecule  {
0 1
  O        1.7076884    -0.5712124    -0.1252318
  O        0.5719120     1.2863760     0.0695120
  N        0.6408460     0.0479760     0.0122270
  C       -0.6264930    -0.7411460     0.1639780
  C       -1.8590060     0.0884880    -0.1216840
  H       -0.5100060    -1.5905650    -0.5103580
  H       -0.6039710    -1.1163170     1.1909310
  H       -1.9382960     0.9237250     0.5735710
  H       -1.8356290     0.4847820    -1.1384320
  H       -2.7433030    -0.5458310    -0.0161270
units angstrom
no_reorient  #important for SAPT in psi4, default
symmetry c1  #important for SAPT in psi4, default
}

set PROPERTIES_ORIGIN ["COM"]
properties('MP2/aug-cc-pvtz', properties = ['dipole'])
--------------------------------------------------------------------------

    Molecular point group: c1
  Charge       = 0
  Multiplicity = 1
  Basis Set: AUG-CC-PVTZ
    Blend: AUG-CC-PVTZ
  Basis Set: (AUG-CC-PVTZ AUX)
    Blend: AUG-CC-PVTZ-JKFIT

    Orbital Energies [Eh]
    ---------------------

    Doubly Occupied:

       1A    -20.607419     2A    -20.605438     3A    -15.848535
       4A    -11.317190     5A    -11.251727     6A     -1.588248
       7A     -1.384904     8A     -1.126519     9A     -0.970575
      10A     -0.839819    11A     -0.750413    12A     -0.731165
      13A     -0.718502    14A     -0.633604    15A     -0.592453
      16A     -0.564332    17A     -0.538704    18A     -0.494084
      19A     -0.488486    20A     -0.450288

  @DF-RHF Final Energy:  -282.80621355740107

   => Energetics <=

    Nuclear Repulsion Energy =            182.4554864979148192
    One-Electron Energy =                -747.5185926319780947
    Two-Electron Energy =                 282.2568925766621533
    Total Energy =                       -282.8062135574010654
  Basis Set: (AUG-CC-PVTZ AUX)
    Blend: AUG-CC-PVTZ-RI
    Molecular point group: c1

    Geometry (in Angstrom), charge = 0, multiplicity = 1:

       Center              X                  Y                   Z               Mass
    ------------   -----------------  -----------------  -----------------  -----------------
         O            1.602147866558    -0.603468748116    -0.123737430138    15.994914619570
         O            0.466371466558     1.254119651884     0.071006369862    15.994914619570
         N            0.535305466558     0.015719651884     0.013721369862    14.003074004430
         C           -0.732033533442    -0.773402348116     0.165472369862    12.000000000000
         C           -1.964546533442     0.056231651884    -0.120189630138    12.000000000000
         H           -0.615546533442    -1.622821348116    -0.508863630138     1.007825032230
         H           -0.709511533442    -1.148573348116     1.192425369862     1.007825032230
         H           -2.043836533442     0.891468651884     0.575065369862     1.007825032230
         H           -1.941169533442     0.452525651884    -1.136937630138     1.007825032230
         H           -2.848843533442    -0.578087348116    -0.014632630138     1.007825032230

  Basis Set: AUG-CC-PVTZ
    Blend: AUG-CC-PVTZ
  Basis Set: (AUG-CC-PVTZ AUX)
    Blend: AUG-CC-PVTZ-JKFIT
	 Reference Energy          =    -282.8062135574010654 [Eh]
	 Singles Energy            =      -0.0000000000000000 [Eh]
	 Same-Spin Energy          =      -0.2809603653851339 [Eh]
	 Opposite-Spin Energy      =      -0.8688822825432009 [Eh]
	 Correlation Energy        =      -1.1498426479283348 [Eh]
	 Total Energy              =    -283.9560562053293893 [Eh]

	 ================> DF-SCS-MP2 Energies <==================
	-----------------------------------------------------------
	 SCS Same-Spin Scale       =       0.3333333333333333 [-]
	 SCS Opposite-Spin Scale   =       1.2000000000000000 [-]
	 SCS Same-Spin Energy      =      -0.0936534551283779 [Eh]
	 SCS Opposite-Spin Energy  =      -1.0426587390518409 [Eh]
	 SCS Correlation Energy    =      -1.1363121941802188 [Eh]
	 SCS Total Energy          =    -283.9425257515812859 [Eh]
	-----------------------------------------------------------

  Dipole Moment: [D]
     X:    -3.3434      Y:    -1.6578      Z:     0.2933     Total:     3.7433

*** Psi4 exiting successfully. Buy a developer a beer!
