                               Psi4 1.3.2 release

  ==> Input File <==

--------------------------------------------------------------------------
#psi4
#
memory 32 gb

molecule  {
0 1
  O        1.6114571    -0.7148464    -0.1160622
  O        0.5719120     1.2863760     0.0695120
  N        0.6408460     0.0479760     0.0122270
  C       -0.6264930    -0.7411460     0.1639780
  C       -1.8590060     0.0884880    -0.1216840
  H       -0.5100060    -1.5905650    -0.5103580
  H       -0.6039710    -1.1163170     1.1909310
  H       -1.9382960     0.9237250     0.5735710
  H       -1.8356290     0.4847820    -1.1384320
  H       -2.7433030    -0.5458310    -0.0161270
units angstrom
no_reorient  #important for SAPT in psi4, default
symmetry c1  #important for SAPT in psi4, default
}

set PROPERTIES_ORIGIN ["COM"]
properties('MP2/aug-cc-pvtz', properties = ['dipole'])
--------------------------------------------------------------------------

    Molecular point group: c1
  Charge       = 0
  Multiplicity = 1
  Basis Set: AUG-CC-PVTZ
    Blend: AUG-CC-PVTZ
  Basis Set: (AUG-CC-PVTZ AUX)
    Blend: AUG-CC-PVTZ-JKFIT

    Orbital Energies [Eh]
    ---------------------

    Doubly Occupied:

       1A    -20.617754     2A    -20.611052     3A    -15.851581
       4A    -11.308719     5A    -11.246905     6A     -1.588660
       7A     -1.401270     8A     -1.117783     9A     -0.965117
      10A     -0.843376    11A     -0.749045    12A     -0.733706
      13A     -0.723722    14A     -0.630952    15A     -0.591709
      16A     -0.560402    17A     -0.534891    18A     -0.503781
      19A     -0.481136    20A     -0.459248

  @DF-RHF Final Energy:  -282.80167320245943

   => Energetics <=

    Nuclear Repulsion Energy =            182.7608477641770435
    One-Electron Energy =                -748.0834243280938836
    Two-Electron Energy =                 282.5209033614574423
    Total Energy =                       -282.8016732024594262
  Basis Set: (AUG-CC-PVTZ AUX)
    Blend: AUG-CC-PVTZ-RI
    Molecular point group: c1

    Geometry (in Angstrom), charge = 0, multiplicity = 1:

       Center              X                  Y                   Z               Mass
    ------------   -----------------  -----------------  -----------------  -----------------
         O            1.526430625153    -0.716483642978    -0.116522554970    15.994914619570
         O            0.486885525153     1.284738757022     0.069051645030    15.994914619570
         N            0.555819525153     0.046338757022     0.011766645030    14.003074004430
         C           -0.711519474847    -0.742783242978     0.163517645030    12.000000000000
         C           -1.944032474847     0.086850757022    -0.122144354970    12.000000000000
         H           -0.595032474847    -1.592202242978    -0.510818354970     1.007825032230
         H           -0.688997474847    -1.117954242978     1.190470645030     1.007825032230
         H           -2.023322474847     0.922087757022     0.573110645030     1.007825032230
         H           -1.920655474847     0.483144757022    -1.138892354970     1.007825032230
         H           -2.828329474847    -0.547468242978    -0.016587354970     1.007825032230

  Basis Set: AUG-CC-PVTZ
    Blend: AUG-CC-PVTZ
  Basis Set: (AUG-CC-PVTZ AUX)
    Blend: AUG-CC-PVTZ-JKFIT
	 Reference Energy          =    -282.8016732024594262 [Eh]
	 Singles Energy            =      -0.0000000000000000 [Eh]
	 Same-Spin Energy          =      -0.2814059080273779 [Eh]
	 Opposite-Spin Energy      =      -0.8696461897217101 [Eh]
	 Correlation Energy        =      -1.1510520977490881 [Eh]
	 Total Energy              =    -283.9527253002084990 [Eh]

	 ================> DF-SCS-MP2 Energies <==================
	-----------------------------------------------------------
	 SCS Same-Spin Scale       =       0.3333333333333333 [-]
	 SCS Opposite-Spin Scale   =       1.2000000000000000 [-]
	 SCS Same-Spin Energy      =      -0.0938019693424593 [Eh]
	 SCS Opposite-Spin Energy  =      -1.0435754276660520 [Eh]
	 SCS Correlation Energy    =      -1.1373773970085113 [Eh]
	 SCS Total Energy          =    -283.9390505994679188 [Eh]
	-----------------------------------------------------------

  Dipole Moment: [D]
     X:    -3.0385      Y:    -1.4189      Z:     0.2739     Total:     3.3646

*** Psi4 exiting successfully. Buy a developer a beer!
