                               Psi4 1.3.2 release

  ==> Input File <==

--------------------------------------------------------------------------
#psi4
#
memory 32 gb

molecule  {
0 1
  O        1.6737363    -0.6265992    -0.1238901
  O        0.5719120     1.2863760     0.0695120
  N        0.6408460     0.0479760     0.0122270
  C       -0.6264930    -0.7411460     0.1639780
  C       -1.8590060     0.0884880    -0.1216840
  H       -0.5100060    -1.5905650    -0.5103580
  H       -0.6039710    -1.1163170     1.1909310
  H       -1.9382960     0.9237250     0.5735710
  H       -1.8356290     0.4847820    -1.1384320
  H       -2.7433030    -0.5458310    -0.0161270
units angstrom
no_reorient  #important for SAPT in psi4, default
symmetry c1  #important for SAPT in psi4, default
}

set PROPERTIES_ORIGIN ["COM"]
properties('MP2/aug-cc-pvtz', properties = ['dipole'])
--------------------------------------------------------------------------

    Molecular point group: c1
  Charge       = 0
  Multiplicity = 1
  Basis Set: AUG-CC-PVTZ
    Blend: AUG-CC-PVTZ
  Basis Set: (AUG-CC-PVTZ AUX)
    Blend: AUG-CC-PVTZ-JKFIT

    Orbital Energies [Eh]
    ---------------------

    Doubly Occupied:

       1A    -20.611382     2A    -20.607756     3A    -15.849818
       4A    -11.314043     5A    -11.250027     6A     -1.588256
       7A     -1.391273     8A     -1.123368     9A     -0.968599
      10A     -0.841006    11A     -0.750052    12A     -0.732028
      13A     -0.720657    14A     -0.632688    15A     -0.592100
      16A     -0.562826    17A     -0.537290    18A     -0.497364
      19A     -0.486918    20A     -0.453821

  @DF-RHF Final Energy:  -282.80604113504398

   => Energetics <=

    Nuclear Repulsion Energy =            182.5371184072537289
    One-Electron Energy =                -747.6637761583025394
    Two-Electron Energy =                 282.3206166160048269
    Total Energy =                       -282.8060411350439836
  Basis Set: (AUG-CC-PVTZ AUX)
    Blend: AUG-CC-PVTZ-RI
    Molecular point group: c1

    Geometry (in Angstrom), charge = 0, multiplicity = 1:

       Center              X                  Y                   Z               Mass
    ------------   -----------------  -----------------  -----------------  -----------------
         O            1.575433488264    -0.647048495103    -0.122681746355    15.994914619570
         O            0.473609188264     1.265926704897     0.070720353645    15.994914619570
         N            0.542543188264     0.027526704897     0.013435353645    14.003074004430
         C           -0.724795811736    -0.761595295103     0.165186353645    12.000000000000
         C           -1.957308811736     0.068038704897    -0.120475646355    12.000000000000
         H           -0.608308811736    -1.611014295103    -0.509149646355     1.007825032230
         H           -0.702273811736    -1.136766295103     1.192139353645     1.007825032230
         H           -2.036598811736     0.903275704897     0.574779353645     1.007825032230
         H           -1.933931811736     0.464332704897    -1.137223646355     1.007825032230
         H           -2.841605811736    -0.566280295103    -0.014918646355     1.007825032230

  Basis Set: AUG-CC-PVTZ
    Blend: AUG-CC-PVTZ
  Basis Set: (AUG-CC-PVTZ AUX)
    Blend: AUG-CC-PVTZ-JKFIT
	 Reference Energy          =    -282.8060411350439836 [Eh]
	 Singles Energy            =      -0.0000000000000000 [Eh]
	 Same-Spin Energy          =      -0.2810958560878292 [Eh]
	 Opposite-Spin Energy      =      -0.8690942530441252 [Eh]
	 Correlation Energy        =      -1.1501901091319544 [Eh]
	 Total Energy              =    -283.9562312441759104 [Eh]

	 ================> DF-SCS-MP2 Energies <==================
	-----------------------------------------------------------
	 SCS Same-Spin Scale       =       0.3333333333333333 [-]
	 SCS Opposite-Spin Scale   =       1.2000000000000000 [-]
	 SCS Same-Spin Energy      =      -0.0936986186959431 [Eh]
	 SCS Opposite-Spin Energy  =      -1.0429131036529502 [Eh]
	 SCS Correlation Energy    =      -1.1366117223488932 [Eh]
	 SCS Total Energy          =    -283.9426528573928863 [Eh]
	-----------------------------------------------------------

  Dipole Moment: [D]
     X:    -3.2344      Y:    -1.5655      Z:     0.2882     Total:     3.6049

*** Psi4 exiting successfully. Buy a developer a beer!
