                               Psi4 1.3.2 release

  ==> Input File <==

--------------------------------------------------------------------------
#psi4
#
memory 32 gb

molecule  {
0 1
  O        1.7483943    -0.4947503    -0.1264340
  O        0.5719120     1.2863760     0.0695120
  N        0.6408460     0.0479760     0.0122270
  C       -0.6264930    -0.7411460     0.1639780
  C       -1.8590060     0.0884880    -0.1216840
  H       -0.5100060    -1.5905650    -0.5103580
  H       -0.6039710    -1.1163170     1.1909310
  H       -1.9382960     0.9237250     0.5735710
  H       -1.8356290     0.4847820    -1.1384320
  H       -2.7433030    -0.5458310    -0.0161270
units angstrom
no_reorient  #important for SAPT in psi4, default
symmetry c1  #important for SAPT in psi4, default
}

set PROPERTIES_ORIGIN ["COM"]
properties('MP2/aug-cc-pvtz', properties = ['dipole'])
--------------------------------------------------------------------------

    Molecular point group: c1
  Charge       = 0
  Multiplicity = 1
  Basis Set: AUG-CC-PVTZ
    Blend: AUG-CC-PVTZ
  Basis Set: (AUG-CC-PVTZ AUX)
    Blend: AUG-CC-PVTZ-JKFIT

    Orbital Energies [Eh]
    ---------------------

    Doubly Occupied:

       1A    -20.601978     2A    -20.601923     3A    -15.846583
       4A    -11.321293     5A    -11.253813     6A     -1.588529
       7A     -1.375940     8A     -1.130493     9A     -0.973091
      10A     -0.838479    11A     -0.750578    12A     -0.730191
      13A     -0.715236    14A     -0.634682    15A     -0.592987
      16A     -0.566326    17A     -0.540527    18A     -0.495864
      19A     -0.483051    20A     -0.445275

  @DF-RHF Final Energy:  -282.80359037442179

   => Energetics <=

    Nuclear Repulsion Energy =            182.4080549406506293
    One-Electron Energy =                -747.4496168027488920
    Two-Electron Energy =                 282.2379714876764183
    Total Energy =                       -282.8035903744217876
  Basis Set: (AUG-CC-PVTZ AUX)
    Blend: AUG-CC-PVTZ-RI
    Molecular point group: c1

    Geometry (in Angstrom), charge = 0, multiplicity = 1:

       Center              X                  Y                   Z               Mass
    ------------   -----------------  -----------------  -----------------  -----------------
         O            1.634176306960    -0.543306417523    -0.124683351762    15.994914619570
         O            0.457694006960     1.237819882477     0.071262648238    15.994914619570
         N            0.526628006960    -0.000580117523     0.013977648238    14.003074004430
         C           -0.740710993040    -0.789702117523     0.165728648238    12.000000000000
         C           -1.973223993040     0.039931882477    -0.119933351762    12.000000000000
         H           -0.624223993040    -1.639121117523    -0.508607351762     1.007825032230
         H           -0.718188993040    -1.164873117523     1.192681648238     1.007825032230
         H           -2.052513993040     0.875168882477     0.575321648238     1.007825032230
         H           -1.949846993040     0.436225882477    -1.136681351762     1.007825032230
         H           -2.857520993040    -0.594387117523    -0.014376351762     1.007825032230

  Basis Set: AUG-CC-PVTZ
    Blend: AUG-CC-PVTZ
  Basis Set: (AUG-CC-PVTZ AUX)
    Blend: AUG-CC-PVTZ-JKFIT
	 Reference Energy          =    -282.8035903744217876 [Eh]
	 Singles Energy            =      -0.0000000000000000 [Eh]
	 Same-Spin Energy          =      -0.2808361415102188 [Eh]
	 Opposite-Spin Energy      =      -0.8687371164232212 [Eh]
	 Correlation Energy        =      -1.1495732579334399 [Eh]
	 Total Energy              =    -283.9531636323551993 [Eh]

	 ================> DF-SCS-MP2 Energies <==================
	-----------------------------------------------------------
	 SCS Same-Spin Scale       =       0.3333333333333333 [-]
	 SCS Opposite-Spin Scale   =       1.2000000000000000 [-]
	 SCS Same-Spin Energy      =      -0.0936120471700729 [Eh]
	 SCS Opposite-Spin Energy  =      -1.0424845397078653 [Eh]
	 SCS Correlation Energy    =      -1.1360965868779382 [Eh]
	 SCS Total Energy          =    -283.9396869612997421 [Eh]
	-----------------------------------------------------------

  Dipole Moment: [D]
     X:    -3.4784      Y:    -1.7848      Z:     0.2992     Total:     3.9210

*** Psi4 exiting successfully. Buy a developer a beer!
