                               Psi4 1.3.2 release

  ==> Input File <==

--------------------------------------------------------------------------
#psi4
#
memory 32 gb

molecule  {
0 1
  O        1.6853730    -0.6083350    -0.1243790
  O        0.5719120     1.2863760     0.0695120
  N        0.4725294     0.1537349     0.0342399
  C       -0.6264930    -0.7411460     0.1639780
  C       -1.8590060     0.0884880    -0.1216840
  H       -0.5100060    -1.5905650    -0.5103580
  H       -0.6039710    -1.1163170     1.1909310
  H       -1.9382960     0.9237250     0.5735710
  H       -1.8356290     0.4847820    -1.1384320
  H       -2.7433030    -0.5458310    -0.0161270
units angstrom
no_reorient  #important for SAPT in psi4, default
symmetry c1  #important for SAPT in psi4, default
}

set PROPERTIES_ORIGIN ["COM"]
properties('MP2/aug-cc-pvtz', properties = ['dipole'])
--------------------------------------------------------------------------

    Molecular point group: c1
  Charge       = 0
  Multiplicity = 1
  Basis Set: AUG-CC-PVTZ
    Blend: AUG-CC-PVTZ
  Basis Set: (AUG-CC-PVTZ AUX)
    Blend: AUG-CC-PVTZ-JKFIT

    Orbital Energies [Eh]
    ---------------------

    Doubly Occupied:

       1A    -20.671808     2A    -20.544472     3A    -15.839979
       4A    -11.317573     5A    -11.255921     6A     -1.649815
       7A     -1.296303     8A     -1.155174     9A     -0.979047
      10A     -0.858461    11A     -0.779895    12A     -0.749491
      13A     -0.724603    14A     -0.638958    15A     -0.594168
      16A     -0.575703    17A     -0.548577    18A     -0.478069
      19A     -0.445654    20A     -0.427002

  @DF-RHF Final Energy:  -282.75271283104161

   => Energetics <=

    Nuclear Repulsion Energy =            183.0744222166402153
    One-Electron Energy =                -748.5929218168686248
    Two-Electron Energy =                 282.7657867691868319
    Total Energy =                       -282.7527128310416060
  Basis Set: (AUG-CC-PVTZ AUX)
    Blend: AUG-CC-PVTZ-RI
    Molecular point group: c1

    Geometry (in Angstrom), charge = 0, multiplicity = 1:

       Center              X                  Y                   Z               Mass
    ------------   -----------------  -----------------  -----------------  -----------------
         O            1.616002123454    -0.652415323887    -0.127174647852    15.994914619570
         O            0.502541123454     1.242295676113     0.066716352148    15.994914619570
         N            0.403158523454     0.109654576113     0.031444252148    14.003074004430
         C           -0.695863876546    -0.785226323887     0.161182352148    12.000000000000
         C           -1.928376876546     0.044407676113    -0.124479647852    12.000000000000
         H           -0.579376876546    -1.634645323887    -0.513153647852     1.007825032230
         H           -0.673341876546    -1.160397323887     1.188135352148     1.007825032230
         H           -2.007666876546     0.879644676113     0.570775352148     1.007825032230
         H           -1.904999876546     0.440701676113    -1.141227647852     1.007825032230
         H           -2.812673876546    -0.589911323887    -0.018922647852     1.007825032230

  Basis Set: AUG-CC-PVTZ
    Blend: AUG-CC-PVTZ
  Basis Set: (AUG-CC-PVTZ AUX)
    Blend: AUG-CC-PVTZ-JKFIT
	 Reference Energy          =    -282.7527128310416060 [Eh]
	 Singles Energy            =      -0.0000000000000000 [Eh]
	 Same-Spin Energy          =      -0.2790297358612334 [Eh]
	 Opposite-Spin Energy      =      -0.8662833338162007 [Eh]
	 Correlation Energy        =      -1.1453130696774341 [Eh]
	 Total Energy              =    -283.8980259007190625 [Eh]

	 ================> DF-SCS-MP2 Energies <==================
	-----------------------------------------------------------
	 SCS Same-Spin Scale       =       0.3333333333333333 [-]
	 SCS Opposite-Spin Scale   =       1.2000000000000000 [-]
	 SCS Same-Spin Energy      =      -0.0930099119537444 [Eh]
	 SCS Opposite-Spin Energy  =      -1.0395400005794408 [Eh]
	 SCS Correlation Energy    =      -1.1325499125331853 [Eh]
	 SCS Total Energy          =    -283.8852627435747991 [Eh]
	-----------------------------------------------------------

  Dipole Moment: [D]
     X:    -4.4592      Y:    -0.7383      Z:     0.4742     Total:     4.5447

*** Psi4 exiting successfully. Buy a developer a beer!
