                               Psi4 1.3.2 release

  ==> Input File <==

--------------------------------------------------------------------------
#psi4
#
memory 32 gb

molecule  {
0 1
  O        1.7075050    -0.5711733    -0.1268227
  O        0.5719120     1.2863760     0.0695120
  N        0.6408460     0.0479760     0.0122270
  C       -0.6264930    -0.7411460     0.1639780
  C       -1.8590060     0.0884880    -0.1216840
  H       -0.5100060    -1.5905650    -0.5103580
  H       -0.6039710    -1.1163170     1.1909310
  H       -1.9382960     0.9237250     0.5735710
  H       -1.8356290     0.4847820    -1.1384320
  H       -2.7433030    -0.5458310    -0.0161270
units angstrom
no_reorient  #important for SAPT in psi4, default
symmetry c1  #important for SAPT in psi4, default
}

set PROPERTIES_ORIGIN ["COM"]
properties('MP2/aug-cc-pvtz', properties = ['dipole'])
--------------------------------------------------------------------------

    Molecular point group: c1
  Charge       = 0
  Multiplicity = 1
  Basis Set: AUG-CC-PVTZ
    Blend: AUG-CC-PVTZ
  Basis Set: (AUG-CC-PVTZ AUX)
    Blend: AUG-CC-PVTZ-JKFIT

    Orbital Energies [Eh]
    ---------------------

    Doubly Occupied:

       1A    -20.607415     2A    -20.605442     3A    -15.848536
       4A    -11.317186     5A    -11.251731     6A     -1.588246
       7A     -1.384906     8A     -1.126519     9A     -0.970578
      10A     -0.839817    11A     -0.750411    12A     -0.731163
      13A     -0.718498    14A     -0.633616    15A     -0.592448
      16A     -0.564333    17A     -0.538707    18A     -0.494081
      19A     -0.488486    20A     -0.450289

  @DF-RHF Final Energy:  -282.80621612800718

   => Energetics <=

    Nuclear Repulsion Energy =            182.4557632002841103
    One-Electron Energy =                -747.5191365957387006
    Two-Electron Energy =                 282.2571572674474396
    Total Energy =                       -282.8062161280071791
  Basis Set: (AUG-CC-PVTZ AUX)
    Blend: AUG-CC-PVTZ-RI
    Molecular point group: c1

    Geometry (in Angstrom), charge = 0, multiplicity = 1:

       Center              X                  Y                   Z               Mass
    ------------   -----------------  -----------------  -----------------  -----------------
         O            1.602003562760    -0.603437983239    -0.124989190837    15.994914619570
         O            0.466410562760     1.254111316761     0.071345509163    15.994914619570
         N            0.535344562760     0.015711316761     0.014060509163    14.003074004430
         C           -0.731994437240    -0.773410683239     0.165811509163    12.000000000000
         C           -1.964507437240     0.056223316761    -0.119850490837    12.000000000000
         H           -0.615507437240    -1.622829683239    -0.508524490837     1.007825032230
         H           -0.709472437240    -1.148581683239     1.192764509163     1.007825032230
         H           -2.043797437240     0.891460316761     0.575404509163     1.007825032230
         H           -1.941130437240     0.452517316761    -1.136598490837     1.007825032230
         H           -2.848804437240    -0.578095683239    -0.014293490837     1.007825032230

  Basis Set: AUG-CC-PVTZ
    Blend: AUG-CC-PVTZ
  Basis Set: (AUG-CC-PVTZ AUX)
    Blend: AUG-CC-PVTZ-JKFIT
	 Reference Energy          =    -282.8062161280071791 [Eh]
	 Singles Energy            =      -0.0000000000000000 [Eh]
	 Same-Spin Energy          =      -0.2809602593457217 [Eh]
	 Opposite-Spin Energy      =      -0.8688819336102729 [Eh]
	 Correlation Energy        =      -1.1498421929559945 [Eh]
	 Total Energy              =    -283.9560583209631659 [Eh]

	 ================> DF-SCS-MP2 Energies <==================
	-----------------------------------------------------------
	 SCS Same-Spin Scale       =       0.3333333333333333 [-]
	 SCS Opposite-Spin Scale   =       1.2000000000000000 [-]
	 SCS Same-Spin Energy      =      -0.0936534197819072 [Eh]
	 SCS Opposite-Spin Energy  =      -1.0426583203323274 [Eh]
	 SCS Correlation Energy    =      -1.1363117401142346 [Eh]
	 SCS Total Energy          =    -283.9425278681214309 [Eh]
	-----------------------------------------------------------

  Dipole Moment: [D]
     X:    -3.3432      Y:    -1.6578      Z:     0.2949     Total:     3.7433

*** Psi4 exiting successfully. Buy a developer a beer!
