                               Psi4 1.3.2 release

  ==> Input File <==

--------------------------------------------------------------------------
#psi4
#
memory 32 gb

molecule  {
0 1
  O        1.6853730    -0.6083350    -0.1243790
  O        0.5719120     1.2863760     0.0695120
  N        0.6408460     0.0479760     0.0122270
  C       -0.4575854    -0.6359739     0.1437530
  C       -1.8590060     0.0884880    -0.1216840
  H       -0.5100060    -1.5905650    -0.5103580
  H       -0.6039710    -1.1163170     1.1909310
  H       -1.9382960     0.9237250     0.5735710
  H       -1.8356290     0.4847820    -1.1384320
  H       -2.7433030    -0.5458310    -0.0161270
units angstrom
no_reorient  #important for SAPT in psi4, default
symmetry c1  #important for SAPT in psi4, default
}

set PROPERTIES_ORIGIN ["COM"]
properties('MP2/aug-cc-pvtz', properties = ['dipole'])
--------------------------------------------------------------------------

    Molecular point group: c1
  Charge       = 0
  Multiplicity = 1
  Basis Set: AUG-CC-PVTZ
    Blend: AUG-CC-PVTZ
  Basis Set: (AUG-CC-PVTZ AUX)
    Blend: AUG-CC-PVTZ-JKFIT

    Orbital Energies [Eh]
    ---------------------

    Doubly Occupied:

       1A    -20.614341     2A    -20.608255     3A    -15.855578
       4A    -11.313038     5A    -11.255073     6A     -1.612546
       7A     -1.399211     8A     -1.170205     9A     -0.981676
      10A     -0.832661    11A     -0.764451    12A     -0.751104
      13A     -0.732824    14A     -0.609508    15A     -0.590452
      16A     -0.532444    17A     -0.519122    18A     -0.512899
      19A     -0.485840    20A     -0.457317

  @DF-RHF Final Energy:  -282.76354395864706

   => Energetics <=

    Nuclear Repulsion Energy =            185.3528744212787558
    One-Electron Energy =                -753.0357445587089842
    Two-Electron Energy =                 284.9193261787831375
    Total Energy =                       -282.7635439586470625
  Basis Set: (AUG-CC-PVTZ AUX)
    Blend: AUG-CC-PVTZ-RI
    Molecular point group: c1

    Geometry (in Angstrom), charge = 0, multiplicity = 1:

       Center              X                  Y                   Z               Mass
    ------------   -----------------  -----------------  -----------------  -----------------
         O            1.557575860708    -0.649498109625    -0.119831806675    15.994914619570
         O            0.444114860708     1.245212890375     0.074059193325    15.994914619570
         N            0.513048860708     0.006812890375     0.016774193325    14.003074004430
         C           -0.585382539292    -0.677137009625     0.148300193325    12.000000000000
         C           -1.986803139292     0.047324890375    -0.117136806675    12.000000000000
         H           -0.637803139292    -1.631728109625    -0.505810806675     1.007825032230
         H           -0.731768139292    -1.157480109625     1.195478193325     1.007825032230
         H           -2.066093139292     0.882561890375     0.578118193325     1.007825032230
         H           -1.963426139292     0.443618890375    -1.133884806675     1.007825032230
         H           -2.871100139292    -0.586994109625    -0.011579806675     1.007825032230

  Basis Set: AUG-CC-PVTZ
    Blend: AUG-CC-PVTZ
  Basis Set: (AUG-CC-PVTZ AUX)
    Blend: AUG-CC-PVTZ-JKFIT
	 Reference Energy          =    -282.7635439586470625 [Eh]
	 Singles Energy            =      -0.0000000000000000 [Eh]
	 Same-Spin Energy          =      -0.2831011276580248 [Eh]
	 Opposite-Spin Energy      =      -0.8712785725203200 [Eh]
	 Correlation Energy        =      -1.1543797001783447 [Eh]
	 Total Energy              =    -283.9179236588254298 [Eh]

	 ================> DF-SCS-MP2 Energies <==================
	-----------------------------------------------------------
	 SCS Same-Spin Scale       =       0.3333333333333333 [-]
	 SCS Opposite-Spin Scale   =       1.2000000000000000 [-]
	 SCS Same-Spin Energy      =      -0.0943670425526749 [Eh]
	 SCS Opposite-Spin Energy  =      -1.0455342870243840 [Eh]
	 SCS Correlation Energy    =      -1.1399013295770590 [Eh]
	 SCS Total Energy          =    -283.9034452882241339 [Eh]
	-----------------------------------------------------------

  Dipole Moment: [D]
     X:    -3.1932      Y:    -1.6070      Z:     0.3100     Total:     3.5882

*** Psi4 exiting successfully. Buy a developer a beer!
