                               Psi4 1.3.2 release

  ==> Input File <==

--------------------------------------------------------------------------
#psi4
#
memory 32 gb

molecule  {
0 1
  O        1.6853730    -0.6083350    -0.1243790
  O        0.5719120     1.2863760     0.0695120
  N        0.5813724     0.1481240     0.1176094
  C       -0.6264930    -0.7411460     0.1639780
  C       -1.8590060     0.0884880    -0.1216840
  H       -0.5100060    -1.5905650    -0.5103580
  H       -0.6039710    -1.1163170     1.1909310
  H       -1.9382960     0.9237250     0.5735710
  H       -1.8356290     0.4847820    -1.1384320
  H       -2.7433030    -0.5458310    -0.0161270
units angstrom
no_reorient  #important for SAPT in psi4, default
symmetry c1  #important for SAPT in psi4, default
}

set PROPERTIES_ORIGIN ["COM"]
properties('MP2/aug-cc-pvtz', properties = ['dipole'])
--------------------------------------------------------------------------

    Molecular point group: c1
  Charge       = 0
  Multiplicity = 1
  Basis Set: AUG-CC-PVTZ
    Blend: AUG-CC-PVTZ
  Basis Set: (AUG-CC-PVTZ AUX)
    Blend: AUG-CC-PVTZ-JKFIT

    Orbital Energies [Eh]
    ---------------------

    Doubly Occupied:

       1A    -20.655173     2A    -20.560770     3A    -15.843631
       4A    -11.315357     5A    -11.253386     6A     -1.644772
       7A     -1.339216     8A     -1.127379     9A     -0.969006
      10A     -0.851635    11A     -0.770498    12A     -0.742938
      13A     -0.725621    14A     -0.640277    15A     -0.592382
      16A     -0.568952    17A     -0.544229    18A     -0.490574
      19A     -0.458644    20A     -0.439435

  @DF-RHF Final Energy:  -282.78082549571764

   => Energetics <=

    Nuclear Repulsion Energy =            182.7864930860174866
    One-Electron Energy =                -748.0668876137970074
    Two-Electron Energy =                 282.4995690320619133
    Total Energy =                       -282.7808254957176359
  Basis Set: (AUG-CC-PVTZ AUX)
    Blend: AUG-CC-PVTZ-RI
    Molecular point group: c1

    Geometry (in Angstrom), charge = 0, multiplicity = 1:

       Center              X                  Y                   Z               Mass
    ------------   -----------------  -----------------  -----------------  -----------------
         O            1.595688976972    -0.651368173095    -0.142733727128    15.994914619570
         O            0.482227976972     1.243342826905     0.051157272872    15.994914619570
         N            0.491688376972     0.105090826905     0.099254672872    14.003074004430
         C           -0.716177023028    -0.784179173095     0.145623272872    12.000000000000
         C           -1.948690023028     0.045454826905    -0.140038727128    12.000000000000
         H           -0.599690023028    -1.633598173095    -0.528712727128     1.007825032230
         H           -0.693655023028    -1.159350173095     1.172576272872     1.007825032230
         H           -2.027980023028     0.880691826905     0.555216272872     1.007825032230
         H           -1.925313023028     0.441748826905    -1.156786727128     1.007825032230
         H           -2.832987023028    -0.588864173095    -0.034481727128     1.007825032230

  Basis Set: AUG-CC-PVTZ
    Blend: AUG-CC-PVTZ
  Basis Set: (AUG-CC-PVTZ AUX)
    Blend: AUG-CC-PVTZ-JKFIT
	 Reference Energy          =    -282.7808254957176359 [Eh]
	 Singles Energy            =      -0.0000000000000000 [Eh]
	 Same-Spin Energy          =      -0.2791098186260391 [Eh]
	 Opposite-Spin Energy      =      -0.8653864926672945 [Eh]
	 Correlation Energy        =      -1.1444963112933335 [Eh]
	 Total Energy              =    -283.9253218070109597 [Eh]

	 ================> DF-SCS-MP2 Energies <==================
	-----------------------------------------------------------
	 SCS Same-Spin Scale       =       0.3333333333333333 [-]
	 SCS Opposite-Spin Scale   =       1.2000000000000000 [-]
	 SCS Same-Spin Energy      =      -0.0930366062086797 [Eh]
	 SCS Opposite-Spin Energy  =      -1.0384637912007533 [Eh]
	 SCS Correlation Energy    =      -1.1315003974094329 [Eh]
	 SCS Total Energy          =    -283.9123258931270470 [Eh]
	-----------------------------------------------------------

  Dipole Moment: [D]
     X:    -3.8468      Y:    -0.9308      Z:     0.4146     Total:     3.9794

*** Psi4 exiting successfully. Buy a developer a beer!
