                               Psi4 1.3.2 release

  ==> Input File <==

--------------------------------------------------------------------------
#psi4
#
memory 32 gb

molecule  {
0 1
  O        1.7283374    -0.5332572    -0.1290970
  O        0.5719120     1.2863760     0.0695120
  N        0.6408460     0.0479760     0.0122270
  C       -0.6264930    -0.7411460     0.1639780
  C       -1.8590060     0.0884880    -0.1216840
  H       -0.5100060    -1.5905650    -0.5103580
  H       -0.6039710    -1.1163170     1.1909310
  H       -1.9382960     0.9237250     0.5735710
  H       -1.8356290     0.4847820    -1.1384320
  H       -2.7433030    -0.5458310    -0.0161270
units angstrom
no_reorient  #important for SAPT in psi4, default
symmetry c1  #important for SAPT in psi4, default
}

set PROPERTIES_ORIGIN ["COM"]
properties('MP2/aug-cc-pvtz', properties = ['dipole'])
--------------------------------------------------------------------------

    Molecular point group: c1
  Charge       = 0
  Multiplicity = 1
  Basis Set: AUG-CC-PVTZ
    Blend: AUG-CC-PVTZ
  Basis Set: (AUG-CC-PVTZ AUX)
    Blend: AUG-CC-PVTZ-JKFIT

    Orbital Energies [Eh]
    ---------------------

    Doubly Occupied:

       1A    -20.604705     2A    -20.603761     3A    -15.847595
       4A    -11.319250     5A    -11.252802     6A     -1.588342
       7A     -1.380497     8A     -1.128537     9A     -0.971855
      10A     -0.839112    11A     -0.750539    12A     -0.730649
      13A     -0.716919    14A     -0.634187    15A     -0.592704
      16A     -0.565337    17A     -0.539631    18A     -0.494353
      19A     -0.486572    20A     -0.447827

  @DF-RHF Final Energy:  -282.80531851838339

   => Energetics <=

    Nuclear Repulsion Energy =            182.4235522955642921
    One-Electron Energy =                -747.4673930758924598
    Two-Electron Energy =                 282.2385222619448086
    Total Energy =                       -282.8053185183833875
  Basis Set: (AUG-CC-PVTZ AUX)
    Blend: AUG-CC-PVTZ-RI
    Molecular point group: c1

    Geometry (in Angstrom), charge = 0, multiplicity = 1:

       Center              X                  Y                   Z               Mass
    ------------   -----------------  -----------------  -----------------  -----------------
         O            1.618395026450    -0.573604628636    -0.126778668087    15.994914619570
         O            0.461969626450     1.246028571364     0.071830331913    15.994914619570
         N            0.530903626450     0.007628571364     0.014545331913    14.003074004430
         C           -0.736435373550    -0.781493428636     0.166296331913    12.000000000000
         C           -1.968948373550     0.048140571364    -0.119365668087    12.000000000000
         H           -0.619948373550    -1.630912428636    -0.508039668087     1.007825032230
         H           -0.713913373550    -1.156664428636     1.193249331913     1.007825032230
         H           -2.048238373550     0.883377571364     0.575889331913     1.007825032230
         H           -1.945571373550     0.444434571364    -1.136113668087     1.007825032230
         H           -2.853245373550    -0.586178428636    -0.013808668087     1.007825032230

  Basis Set: AUG-CC-PVTZ
    Blend: AUG-CC-PVTZ
  Basis Set: (AUG-CC-PVTZ AUX)
    Blend: AUG-CC-PVTZ-JKFIT
	 Reference Energy          =    -282.8053185183833875 [Eh]
	 Singles Energy            =      -0.0000000000000000 [Eh]
	 Same-Spin Energy          =      -0.2808900748923456 [Eh]
	 Opposite-Spin Energy      =      -0.8687894713274077 [Eh]
	 Correlation Energy        =      -1.1496795462197533 [Eh]
	 Total Energy              =    -283.9549980646031599 [Eh]

	 ================> DF-SCS-MP2 Energies <==================
	-----------------------------------------------------------
	 SCS Same-Spin Scale       =       0.3333333333333333 [-]
	 SCS Opposite-Spin Scale   =       1.2000000000000000 [-]
	 SCS Same-Spin Energy      =      -0.0936300249641152 [Eh]
	 SCS Opposite-Spin Energy  =      -1.0425473655928892 [Eh]
	 SCS Correlation Energy    =      -1.1361773905570045 [Eh]
	 SCS Total Energy          =    -283.9414959089403965 [Eh]
	-----------------------------------------------------------

  Dipole Moment: [D]
     X:    -3.4120      Y:    -1.7209      Z:     0.2996     Total:     3.8332

*** Psi4 exiting successfully. Buy a developer a beer!
