                               Psi4 1.3.2 release

  ==> Input File <==

--------------------------------------------------------------------------
#psi4
#
memory 32 gb

molecule  {
0 1
  O        1.6853730    -0.6083350    -0.1243790
  O        0.5719120     1.2863760     0.0695120
  N        0.6027026     0.1157718     0.0823683
  C       -0.6264930    -0.7411460     0.1639780
  C       -1.8590060     0.0884880    -0.1216840
  H       -0.5100060    -1.5905650    -0.5103580
  H       -0.6039710    -1.1163170     1.1909310
  H       -1.9382960     0.9237250     0.5735710
  H       -1.8356290     0.4847820    -1.1384320
  H       -2.7433030    -0.5458310    -0.0161270
units angstrom
no_reorient  #important for SAPT in psi4, default
symmetry c1  #important for SAPT in psi4, default
}

set PROPERTIES_ORIGIN ["COM"]
properties('MP2/aug-cc-pvtz', properties = ['dipole'])
--------------------------------------------------------------------------

    Molecular point group: c1
  Charge       = 0
  Multiplicity = 1
  Basis Set: AUG-CC-PVTZ
    Blend: AUG-CC-PVTZ
  Basis Set: (AUG-CC-PVTZ AUX)
    Blend: AUG-CC-PVTZ-JKFIT

    Orbital Energies [Eh]
    ---------------------

    Doubly Occupied:

       1A    -20.640982     2A    -20.575366     3A    -15.846822
       4A    -11.315072     5A    -11.252548     6A     -1.617289
       7A     -1.363244     8A     -1.126366     9A     -0.968821
      10A     -0.846301    11A     -0.760903    12A     -0.736356
      13A     -0.722716    14A     -0.636620    15A     -0.591403
      16A     -0.567093    17A     -0.542359    18A     -0.497917
      19A     -0.469797    20A     -0.445837

  @DF-RHF Final Energy:  -282.79513661286040

   => Energetics <=

    Nuclear Repulsion Energy =            182.6815570810871350
    One-Electron Energy =                -747.9057614254638793
    Two-Electron Energy =                 282.4290677315163407
    Total Energy =                       -282.7951366128604036
  Basis Set: (AUG-CC-PVTZ AUX)
    Blend: AUG-CC-PVTZ-RI
    Molecular point group: c1

    Geometry (in Angstrom), charge = 0, multiplicity = 1:

       Center              X                  Y                   Z               Mass
    ------------   -----------------  -----------------  -----------------  -----------------
         O            1.591708165371    -0.645330348176    -0.136156752711    15.994914619570
         O            0.478247165371     1.249380651824     0.057734247289    15.994914619570
         N            0.509037765371     0.078776451824     0.070590547289    14.003074004430
         C           -0.720157834629    -0.778141348176     0.152200247289    12.000000000000
         C           -1.952670834629     0.051492651824    -0.133461752711    12.000000000000
         H           -0.603670834629    -1.627560348176    -0.522135752711     1.007825032230
         H           -0.697635834629    -1.153312348176     1.179153247289     1.007825032230
         H           -2.031960834629     0.886729651824     0.561793247289     1.007825032230
         H           -1.929293834629     0.447786651824    -1.150209752711     1.007825032230
         H           -2.836967834629    -0.582826348176    -0.027904752711     1.007825032230

  Basis Set: AUG-CC-PVTZ
    Blend: AUG-CC-PVTZ
  Basis Set: (AUG-CC-PVTZ AUX)
    Blend: AUG-CC-PVTZ-JKFIT
	 Reference Energy          =    -282.7951366128604036 [Eh]
	 Singles Energy            =      -0.0000000000000000 [Eh]
	 Same-Spin Energy          =      -0.2801324169357466 [Eh]
	 Opposite-Spin Energy      =      -0.8671831467408834 [Eh]
	 Correlation Energy        =      -1.1473155636766301 [Eh]
	 Total Energy              =    -283.9424521765370173 [Eh]

	 ================> DF-SCS-MP2 Energies <==================
	-----------------------------------------------------------
	 SCS Same-Spin Scale       =       0.3333333333333333 [-]
	 SCS Opposite-Spin Scale   =       1.2000000000000000 [-]
	 SCS Same-Spin Energy      =      -0.0933774723119155 [Eh]
	 SCS Opposite-Spin Energy  =      -1.0406197760890601 [Eh]
	 SCS Correlation Energy    =      -1.1339972484009757 [Eh]
	 SCS Total Energy          =    -283.9291338612613913 [Eh]
	-----------------------------------------------------------

  Dipole Moment: [D]
     X:    -3.6010      Y:    -1.1902      Z:     0.3653     Total:     3.8102

*** Psi4 exiting successfully. Buy a developer a beer!
