                               Psi4 1.3.2 release

  ==> Input File <==

--------------------------------------------------------------------------
#psi4
#
memory 32 gb

molecule  {
0 1
  O        1.6617850    -0.6446580    -0.1233598
  O        0.5719120     1.2863760     0.0695120
  N        0.6408460     0.0479760     0.0122270
  C       -0.6264930    -0.7411460     0.1639780
  C       -1.8590060     0.0884880    -0.1216840
  H       -0.5100060    -1.5905650    -0.5103580
  H       -0.6039710    -1.1163170     1.1909310
  H       -1.9382960     0.9237250     0.5735710
  H       -1.8356290     0.4847820    -1.1384320
  H       -2.7433030    -0.5458310    -0.0161270
units angstrom
no_reorient  #important for SAPT in psi4, default
symmetry c1  #important for SAPT in psi4, default
}

set PROPERTIES_ORIGIN ["COM"]
properties('MP2/aug-cc-pvtz', properties = ['dipole'])
--------------------------------------------------------------------------

    Molecular point group: c1
  Charge       = 0
  Multiplicity = 1
  Basis Set: AUG-CC-PVTZ
    Blend: AUG-CC-PVTZ
  Basis Set: (AUG-CC-PVTZ AUX)
    Blend: AUG-CC-PVTZ-JKFIT

    Orbital Energies [Eh]
    ---------------------

    Doubly Occupied:

       1A    -20.612678     2A    -20.608473     3A    -15.850209
       4A    -11.312983     5A    -11.249433     6A     -1.588299
       7A     -1.393332     8A     -1.122285     9A     -0.967923
      10A     -0.841438    11A     -0.749889    12A     -0.732341
      13A     -0.721319    14A     -0.632365    15A     -0.591996
      16A     -0.562329    17A     -0.536814    18A     -0.498728
      19A     -0.485910    20A     -0.454954

  @DF-RHF Final Energy:  -282.80557785289358

   => Energetics <=

    Nuclear Repulsion Energy =            182.5731435216383147
    One-Electron Energy =                -747.7300438052651543
    Two-Electron Energy =                 282.3513224307332052
    Total Energy =                       -282.8055778528935775
  Basis Set: (AUG-CC-PVTZ AUX)
    Blend: AUG-CC-PVTZ-RI
    Molecular point group: c1

    Geometry (in Angstrom), charge = 0, multiplicity = 1:

       Center              X                  Y                   Z               Mass
    ------------   -----------------  -----------------  -----------------  -----------------
         O            1.566029900583    -0.661257619567    -0.122264492789    15.994914619570
         O            0.476156900583     1.269776380433     0.070607307211    15.994914619570
         N            0.545090900583     0.031376380433     0.013322307211    14.003074004430
         C           -0.722248099417    -0.757745619567     0.165073307211    12.000000000000
         C           -1.954761099417     0.071888380433    -0.120588692789    12.000000000000
         H           -0.605761099417    -1.607164619567    -0.509262692789     1.007825032230
         H           -0.699726099417    -1.132916619567     1.192026307211     1.007825032230
         H           -2.034051099417     0.907125380433     0.574666307211     1.007825032230
         H           -1.931384099417     0.468182380433    -1.137336692789     1.007825032230
         H           -2.839058099417    -0.562430619567    -0.015031692789     1.007825032230

  Basis Set: AUG-CC-PVTZ
    Blend: AUG-CC-PVTZ
  Basis Set: (AUG-CC-PVTZ AUX)
    Blend: AUG-CC-PVTZ-JKFIT
	 Reference Energy          =    -282.8055778528935775 [Eh]
	 Singles Energy            =      -0.0000000000000000 [Eh]
	 Same-Spin Energy          =      -0.2811492683941964 [Eh]
	 Opposite-Spin Energy      =      -0.8691846780887272 [Eh]
	 Correlation Energy        =      -1.1503339464829236 [Eh]
	 Total Energy              =    -283.9559117993765085 [Eh]

	 ================> DF-SCS-MP2 Energies <==================
	-----------------------------------------------------------
	 SCS Same-Spin Scale       =       0.3333333333333333 [-]
	 SCS Opposite-Spin Scale   =       1.2000000000000000 [-]
	 SCS Same-Spin Energy      =      -0.0937164227980655 [Eh]
	 SCS Opposite-Spin Energy  =      -1.0430216137064727 [Eh]
	 SCS Correlation Energy    =      -1.1367380365045383 [Eh]
	 SCS Total Energy          =    -283.9423158893981167 [Eh]
	-----------------------------------------------------------

  Dipole Moment: [D]
     X:    -3.1966      Y:    -1.5354      Z:     0.2864     Total:     3.5578

*** Psi4 exiting successfully. Buy a developer a beer!
