                               Psi4 1.3.2 release

  ==> Input File <==

--------------------------------------------------------------------------
#psi4
#
memory 32 gb

molecule  {
0 1
  O        1.7287041    -0.5333355    -0.1259170
  O        0.5719120     1.2863760     0.0695120
  N        0.6408460     0.0479760     0.0122270
  C       -0.6264930    -0.7411460     0.1639780
  C       -1.8590060     0.0884880    -0.1216840
  H       -0.5100060    -1.5905650    -0.5103580
  H       -0.6039710    -1.1163170     1.1909310
  H       -1.9382960     0.9237250     0.5735710
  H       -1.8356290     0.4847820    -1.1384320
  H       -2.7433030    -0.5458310    -0.0161270
units angstrom
no_reorient  #important for SAPT in psi4, default
symmetry c1  #important for SAPT in psi4, default
}

set PROPERTIES_ORIGIN ["COM"]
properties('MP2/aug-cc-pvtz', properties = ['dipole'])
--------------------------------------------------------------------------

    Molecular point group: c1
  Charge       = 0
  Multiplicity = 1
  Basis Set: AUG-CC-PVTZ
    Blend: AUG-CC-PVTZ
  Basis Set: (AUG-CC-PVTZ AUX)
    Blend: AUG-CC-PVTZ-JKFIT

    Orbital Energies [Eh]
    ---------------------

    Doubly Occupied:

       1A    -20.604712     2A    -20.603751     3A    -15.847592
       4A    -11.319256     5A    -11.252796     6A     -1.588344
       7A     -1.380492     8A     -1.128538     9A     -0.971850
      10A     -0.839116    11A     -0.750542    12A     -0.730653
      13A     -0.716924    14A     -0.634164    15A     -0.592715
      16A     -0.565334    17A     -0.539626    18A     -0.494362
      19A     -0.486568    20A     -0.447824

  @DF-RHF Final Energy:  -282.80531252653788

   => Energetics <=

    Nuclear Repulsion Energy =            182.4230080254791062
    One-Electron Energy =                -747.4663241521176360
    Two-Electron Energy =                 282.2380036001006260
    Total Energy =                       -282.8053125265378753
  Basis Set: (AUG-CC-PVTZ AUX)
    Blend: AUG-CC-PVTZ-RI
    Molecular point group: c1

    Geometry (in Angstrom), charge = 0, multiplicity = 1:

       Center              X                  Y                   Z               Mass
    ------------   -----------------  -----------------  -----------------  -----------------
         O            1.618683555363    -0.573666237073    -0.124276562975    15.994914619570
         O            0.461891455363     1.246045262927     0.071152437025    15.994914619570
         N            0.530825455363     0.007645262927     0.013867437025    14.003074004430
         C           -0.736513544637    -0.781476737073     0.165618437025    12.000000000000
         C           -1.969026544637     0.048157262927    -0.120043562975    12.000000000000
         H           -0.620026544637    -1.630895737073    -0.508717562975     1.007825032230
         H           -0.713991544637    -1.156647737073     1.192571437025     1.007825032230
         H           -2.048316544637     0.883394262927     0.575211437025     1.007825032230
         H           -1.945649544637     0.444451262927    -1.136791562975     1.007825032230
         H           -2.853323544637    -0.586161737073    -0.014486562975     1.007825032230

  Basis Set: AUG-CC-PVTZ
    Blend: AUG-CC-PVTZ
  Basis Set: (AUG-CC-PVTZ AUX)
    Blend: AUG-CC-PVTZ-JKFIT
	 Reference Energy          =    -282.8053125265378753 [Eh]
	 Singles Energy            =      -0.0000000000000000 [Eh]
	 Same-Spin Energy          =      -0.2808902813819540 [Eh]
	 Opposite-Spin Energy      =      -0.8687902049572092 [Eh]
	 Correlation Energy        =      -1.1496804863391632 [Eh]
	 Total Energy              =    -283.9549930128770256 [Eh]

	 ================> DF-SCS-MP2 Energies <==================
	-----------------------------------------------------------
	 SCS Same-Spin Scale       =       0.3333333333333333 [-]
	 SCS Opposite-Spin Scale   =       1.2000000000000000 [-]
	 SCS Same-Spin Energy      =      -0.0936300937939847 [Eh]
	 SCS Opposite-Spin Energy  =      -1.0425482459486510 [Eh]
	 SCS Correlation Energy    =      -1.1361783397426357 [Eh]
	 SCS Total Energy          =    -283.9414908662805033 [Eh]
	-----------------------------------------------------------

  Dipole Moment: [D]
     X:    -3.4124      Y:    -1.7208      Z:     0.2964     Total:     3.8332

*** Psi4 exiting successfully. Buy a developer a beer!
