                               Psi4 1.3.2 release

  ==> Input File <==

--------------------------------------------------------------------------
#psi4
#
memory 32 gb

molecule  {
0 1
  O        1.6853730    -0.6083350    -0.1243790
  O        0.5719120     1.2863760     0.0695120
  N        0.6408460     0.0479760     0.0122270
  C       -0.7954006    -0.8463181     0.1842030
  C       -1.8590060     0.0884880    -0.1216840
  H       -0.5100060    -1.5905650    -0.5103580
  H       -0.6039710    -1.1163170     1.1909310
  H       -1.9382960     0.9237250     0.5735710
  H       -1.8356290     0.4847820    -1.1384320
  H       -2.7433030    -0.5458310    -0.0161270
units angstrom
no_reorient  #important for SAPT in psi4, default
symmetry c1  #important for SAPT in psi4, default
}

set PROPERTIES_ORIGIN ["COM"]
properties('MP2/aug-cc-pvtz', properties = ['dipole'])
--------------------------------------------------------------------------

    Molecular point group: c1
  Charge       = 0
  Multiplicity = 1
  Basis Set: AUG-CC-PVTZ
    Blend: AUG-CC-PVTZ
  Basis Set: (AUG-CC-PVTZ AUX)
    Blend: AUG-CC-PVTZ-JKFIT

    Orbital Energies [Eh]
    ---------------------

    Doubly Occupied:

       1A    -20.597514     2A    -20.596051     3A    -15.825129
       4A    -11.327859     5A    -11.253864     6A     -1.565358
       7A     -1.373185     8A     -1.117366     9A     -0.948559
      10A     -0.844348    11A     -0.731005    12A     -0.719469
      13A     -0.704265    14A     -0.648846    15A     -0.609902
      16A     -0.587307    17A     -0.551466    18A     -0.485158
      19A     -0.446820    20A     -0.442633

  @DF-RHF Final Energy:  -282.78141576456875

   => Energetics <=

    Nuclear Repulsion Energy =            180.1120081535213444
    One-Electron Energy =                -743.0346436733705104
    Two-Electron Energy =                 280.1412197552803605
    Total Energy =                       -282.7814157645687487
  Basis Set: (AUG-CC-PVTZ AUX)
    Blend: AUG-CC-PVTZ-RI
    Molecular point group: c1

    Geometry (in Angstrom), charge = 0, multiplicity = 1:

       Center              X                  Y                   Z               Mass
    ------------   -----------------  -----------------  -----------------  -----------------
         O            1.611603220573    -0.615857403734    -0.126301044017    15.994914619570
         O            0.498142220573     1.278853596266     0.067589955983    15.994914619570
         N            0.567076220573     0.040453596266     0.010304955983    14.003074004430
         C           -0.869170379427    -0.853840503734     0.182280955983    12.000000000000
         C           -1.932775779427     0.080965596266    -0.123606044017    12.000000000000
         H           -0.583775779427    -1.598087403734    -0.512280044017     1.007825032230
         H           -0.677740779427    -1.123839403734     1.189008955983     1.007825032230
         H           -2.012065779427     0.916202596266     0.571648955983     1.007825032230
         H           -1.909398779427     0.477259596266    -1.140354044017     1.007825032230
         H           -2.817072779427    -0.553353403734    -0.018049044017     1.007825032230

  Basis Set: AUG-CC-PVTZ
    Blend: AUG-CC-PVTZ
  Basis Set: (AUG-CC-PVTZ AUX)
    Blend: AUG-CC-PVTZ-JKFIT
	 Reference Energy          =    -282.7814157645687487 [Eh]
	 Singles Energy            =      -0.0000000000000000 [Eh]
	 Same-Spin Energy          =      -0.2817870410558085 [Eh]
	 Opposite-Spin Energy      =      -0.8704311336267787 [Eh]
	 Correlation Energy        =      -1.1522181746825872 [Eh]
	 Total Energy              =    -283.9336339392513082 [Eh]

	 ================> DF-SCS-MP2 Energies <==================
	-----------------------------------------------------------
	 SCS Same-Spin Scale       =       0.3333333333333333 [-]
	 SCS Opposite-Spin Scale   =       1.2000000000000000 [-]
	 SCS Same-Spin Energy      =      -0.0939290136852695 [Eh]
	 SCS Opposite-Spin Energy  =      -1.0445173603521345 [Eh]
	 SCS Correlation Energy    =      -1.1384463740374040 [Eh]
	 SCS Total Energy          =    -283.9198621386061632 [Eh]
	-----------------------------------------------------------

  Dipole Moment: [D]
     X:    -3.5463      Y:    -1.6303      Z:     0.2825     Total:     3.9133

*** Psi4 exiting successfully. Buy a developer a beer!
