                               Psi4 1.3.2 release

  ==> Input File <==

--------------------------------------------------------------------------
#psi4
#
memory 32 gb

molecule  {
0 1
  O        1.6853730    -0.6083350    -0.1243790
  O        0.5719120     1.2863760     0.0695120
  N        0.5819239     0.1307775    -0.0131321
  C       -0.6264930    -0.7411460     0.1639780
  C       -1.8590060     0.0884880    -0.1216840
  H       -0.5100060    -1.5905650    -0.5103580
  H       -0.6039710    -1.1163170     1.1909310
  H       -1.9382960     0.9237250     0.5735710
  H       -1.8356290     0.4847820    -1.1384320
  H       -2.7433030    -0.5458310    -0.0161270
units angstrom
no_reorient  #important for SAPT in psi4, default
symmetry c1  #important for SAPT in psi4, default
}

set PROPERTIES_ORIGIN ["COM"]
properties('MP2/aug-cc-pvtz', properties = ['dipole'])
--------------------------------------------------------------------------

    Molecular point group: c1
  Charge       = 0
  Multiplicity = 1
  Basis Set: AUG-CC-PVTZ
    Blend: AUG-CC-PVTZ
  Basis Set: (AUG-CC-PVTZ AUX)
    Blend: AUG-CC-PVTZ-JKFIT

    Orbital Energies [Eh]
    ---------------------

    Doubly Occupied:

       1A    -20.646376     2A    -20.570317     3A    -15.845818
       4A    -11.315260     5A    -11.252099     6A     -1.627501
       7A     -1.355688     8A     -1.127190     9A     -0.967011
      10A     -0.849110    11A     -0.765698    12A     -0.738985
      13A     -0.722941    14A     -0.638181    15A     -0.591261
      16A     -0.568598    17A     -0.542099    18A     -0.496356
      19A     -0.466305    20A     -0.444052

  @DF-RHF Final Energy:  -282.79209126275828

   => Energetics <=

    Nuclear Repulsion Energy =            182.8324271140446342
    One-Electron Energy =                -748.1873461790845568
    Two-Electron Energy =                 282.5628278022816176
    Total Energy =                       -282.7920912627582766
  Basis Set: (AUG-CC-PVTZ AUX)
    Blend: AUG-CC-PVTZ-RI
    Molecular point group: c1

    Geometry (in Angstrom), charge = 0, multiplicity = 1:

       Center              X                  Y                   Z               Mass
    ------------   -----------------  -----------------  -----------------  -----------------
         O            1.595586051655    -0.648130831277    -0.118333708378    15.994914619570
         O            0.482125051655     1.246580168723     0.075557291622    15.994914619570
         N            0.492136951655     0.090981668723    -0.007086808378    14.003074004430
         C           -0.716279948345    -0.780941831277     0.170023291622    12.000000000000
         C           -1.948792948345     0.048692168723    -0.115638708378    12.000000000000
         H           -0.599792948345    -1.630360831277    -0.504312708378     1.007825032230
         H           -0.693757948345    -1.156112831277     1.196976291622     1.007825032230
         H           -2.028082948345     0.883929168723     0.579616291622     1.007825032230
         H           -1.925415948345     0.444986168723    -1.132386708378     1.007825032230
         H           -2.833089948345    -0.585626831277    -0.010081708378     1.007825032230

  Basis Set: AUG-CC-PVTZ
    Blend: AUG-CC-PVTZ
  Basis Set: (AUG-CC-PVTZ AUX)
    Blend: AUG-CC-PVTZ-JKFIT
	 Reference Energy          =    -282.7920912627582766 [Eh]
	 Singles Energy            =      -0.0000000000000000 [Eh]
	 Same-Spin Energy          =      -0.2797519655689157 [Eh]
	 Opposite-Spin Energy      =      -0.8665015261083271 [Eh]
	 Correlation Energy        =      -1.1462534916772427 [Eh]
	 Total Energy              =    -283.9383447544355477 [Eh]

	 ================> DF-SCS-MP2 Energies <==================
	-----------------------------------------------------------
	 SCS Same-Spin Scale       =       0.3333333333333333 [-]
	 SCS Opposite-Spin Scale   =       1.2000000000000000 [-]
	 SCS Same-Spin Energy      =      -0.0932506551896386 [Eh]
	 SCS Opposite-Spin Energy  =      -1.0398018313299924 [Eh]
	 SCS Correlation Energy    =      -1.1330524865196310 [Eh]
	 SCS Total Energy          =    -283.9251437492779360 [Eh]
	-----------------------------------------------------------

  Dipole Moment: [D]
     X:    -3.6621      Y:    -1.1100      Z:     0.3460     Total:     3.8423

*** Psi4 exiting successfully. Buy a developer a beer!
