                               Psi4 1.3.2 release

  ==> Input File <==

--------------------------------------------------------------------------
#psi4
#
memory 32 gb

molecule  {
0 1
  O        1.6853730    -0.6083350    -0.1243790
  O        0.5719120     1.2863760     0.0695120
  N        0.6318822     0.0652986     0.0297063
  C       -0.6264930    -0.7411460     0.1639780
  C       -1.8590060     0.0884880    -0.1216840
  H       -0.5100060    -1.5905650    -0.5103580
  H       -0.6039710    -1.1163170     1.1909310
  H       -1.9382960     0.9237250     0.5735710
  H       -1.8356290     0.4847820    -1.1384320
  H       -2.7433030    -0.5458310    -0.0161270
units angstrom
no_reorient  #important for SAPT in psi4, default
symmetry c1  #important for SAPT in psi4, default
}

set PROPERTIES_ORIGIN ["COM"]
properties('MP2/aug-cc-pvtz', properties = ['dipole'])
--------------------------------------------------------------------------

    Molecular point group: c1
  Charge       = 0
  Multiplicity = 1
  Basis Set: AUG-CC-PVTZ
    Blend: AUG-CC-PVTZ
  Basis Set: (AUG-CC-PVTZ AUX)
    Blend: AUG-CC-PVTZ-JKFIT

    Orbital Energies [Eh]
    ---------------------

    Doubly Occupied:

       1A    -20.617976     2A    -20.598962     3A    -15.849244
       4A    -11.315011     5A    -11.251103     6A     -1.590437
       7A     -1.387207     8A     -1.124878     9A     -0.969032
      10A     -0.841249    11A     -0.751311    12A     -0.731881
      13A     -0.720395    14A     -0.633264    15A     -0.591743
      16A     -0.564208    17A     -0.538895    18A     -0.498339
      19A     -0.484364    20A     -0.452002

  @DF-RHF Final Energy:  -282.80573716548309

   => Energetics <=

    Nuclear Repulsion Energy =            182.5438462673706113
    One-Electron Energy =                -747.6761619069206972
    Two-Electron Energy =                 282.3265784740670483
    Total Energy =                       -282.8057371654830945
  Basis Set: (AUG-CC-PVTZ AUX)
    Blend: AUG-CC-PVTZ-RI
    Molecular point group: c1

    Geometry (in Angstrom), charge = 0, multiplicity = 1:

       Center              X                  Y                   Z               Mass
    ------------   -----------------  -----------------  -----------------  -----------------
         O            1.586262436301    -0.635910638089    -0.126328551356    15.994914619570
         O            0.472801436301     1.258800361911     0.067562448644    15.994914619570
         N            0.532771636301     0.037722961911     0.027756748644    14.003074004430
         C           -0.725603563699    -0.768721638089     0.162028448644    12.000000000000
         C           -1.958116563699     0.060912361911    -0.123633551356    12.000000000000
         H           -0.609116563699    -1.618140638089    -0.512307551356     1.007825032230
         H           -0.703081563699    -1.143892638089     1.188981448644     1.007825032230
         H           -2.037406563699     0.896149361911     0.571621448644     1.007825032230
         H           -1.934739563699     0.457206361911    -1.140381551356     1.007825032230
         H           -2.842413563699    -0.573406638089    -0.018076551356     1.007825032230

  Basis Set: AUG-CC-PVTZ
    Blend: AUG-CC-PVTZ
  Basis Set: (AUG-CC-PVTZ AUX)
    Blend: AUG-CC-PVTZ-JKFIT
	 Reference Energy          =    -282.8057371654830945 [Eh]
	 Singles Energy            =      -0.0000000000000000 [Eh]
	 Same-Spin Energy          =      -0.2809726807332255 [Eh]
	 Opposite-Spin Energy      =      -0.8688310057268572 [Eh]
	 Correlation Energy        =      -1.1498036864600827 [Eh]
	 Total Energy              =    -283.9555408519431694 [Eh]

	 ================> DF-SCS-MP2 Energies <==================
	-----------------------------------------------------------
	 SCS Same-Spin Scale       =       0.3333333333333333 [-]
	 SCS Opposite-Spin Scale   =       1.2000000000000000 [-]
	 SCS Same-Spin Energy      =      -0.0936575602444085 [Eh]
	 SCS Opposite-Spin Energy  =      -1.0425972068722287 [Eh]
	 SCS Correlation Energy    =      -1.1362547671166372 [Eh]
	 SCS Total Energy          =    -283.9419919325997057 [Eh]
	-----------------------------------------------------------

  Dipole Moment: [D]
     X:    -3.3388      Y:    -1.5016      Z:     0.3069     Total:     3.6738

*** Psi4 exiting successfully. Buy a developer a beer!
