                               Psi4 1.4a3.dev225

  ==> Input File <==

--------------------------------------------------------------------------
#psi4
#
memory 32 gb

molecule  {
0 1
  O        1.6854460    -0.6082710    -0.1241230
  O        0.5718390     1.2863960     0.0693880
  N        0.6240213     0.0585692     0.0143805
  C       -0.6264640    -0.7412330     0.1636330
  C       -1.8590430     0.0884940    -0.1214310
  H       -0.5100180    -1.5902840    -0.5111790
  H       -0.6037960    -1.1170010     1.1903640
  H       -1.9383190     0.9233440     0.5742920
  H       -1.8358000     0.4853590    -1.1379580
  H       -2.7432880    -0.5459410    -0.0161300
units angstrom
no_reorient  #important for SAPT in psi4, default
symmetry c1  #important for SAPT in psi4, default
}

set PROPERTIES_ORIGIN ["COM"]
properties('MP2/aug-cc-pvtz', properties = ['dipole'])
--------------------------------------------------------------------------

    Molecular point group: c1
  Charge       = 0
  Multiplicity = 1
  Basis Set: AUG-CC-PVTZ
    Blend: AUG-CC-PVTZ
  Basis Set: (AUG-CC-PVTZ AUX)
    Blend: AUG-CC-PVTZ-JKFIT

    Orbital Energies [Eh]
    ---------------------

    Doubly Occupied:

       1A    -20.616963     2A    -20.600274     3A    -15.849515
       4A    -11.315329     5A    -11.251271     6A     -1.586973
       7A     -1.384161     8A     -1.127921     9A     -0.970506
      10A     -0.841202    11A     -0.750770    12A     -0.731576
      13A     -0.719005    14A     -0.632307    15A     -0.591434
      16A     -0.564347    17A     -0.538857    18A     -0.498214
      19A     -0.486110    20A     -0.451116

  @DF-RHF Final Energy:  -282.80466726100792

   => Energetics <=

    Nuclear Repulsion Energy =            182.5229762600088748
    One-Electron Energy =                -747.6395880903349962
    Two-Electron Energy =                 282.3119445693181433
    Total Energy =                       -282.8046672610079213
  Basis Set: (AUG-CC-PVTZ AUX)
    Blend: AUG-CC-PVTZ-RI
    Molecular point group: c1

    Geometry (in Angstrom), charge = 0, multiplicity = 1:

       Center              X                  Y                   Z               Mass
    ------------   -----------------  -----------------  -----------------  -----------------
         O            1.587803994356    -0.634591438197    -0.123223121304    15.994914619570
         O            0.474196994356     1.260075561803     0.070287878696    15.994914619570
         N            0.526379294356     0.032248761803     0.015280378696    14.003074004430
         C           -0.724106005644    -0.767553438197     0.164532878696    12.000000000000
         C           -1.956685005644     0.062173561803    -0.120531121304    12.000000000000
         H           -0.607660005644    -1.616604438197    -0.510279121304     1.007825032230
         H           -0.701438005644    -1.143321438197     1.191263878696     1.007825032230
         H           -2.035961005644     0.897023561803     0.575191878696     1.007825032230
         H           -1.933442005644     0.459038561803    -1.137058121304     1.007825032230
         H           -2.840930005644    -0.572261438197    -0.015230121304     1.007825032230

  Basis Set: AUG-CC-PVTZ
    Blend: AUG-CC-PVTZ
  Basis Set: (AUG-CC-PVTZ AUX)
    Blend: AUG-CC-PVTZ-JKFIT
	 Reference Energy          =    -282.8046672610079213 [Eh]
	 Singles Energy            =      -0.0000000000000000 [Eh]
	 Same-Spin Energy          =      -0.2812799125622901 [Eh]
	 Opposite-Spin Energy      =      -0.8695465776356059 [Eh]
	 Correlation Energy        =      -1.1508264901978960 [Eh]
	 Total Energy              =    -283.9554937512058359 [Eh]

	 ================> DF-SCS-MP2 Energies <==================
	-----------------------------------------------------------
	 SCS Same-Spin Scale       =       0.3333333333333333 [-]
	 SCS Opposite-Spin Scale   =       1.2000000000000000 [-]
	 SCS Same-Spin Energy      =      -0.0937599708540967 [Eh]
	 SCS Opposite-Spin Energy  =      -1.0434558931627271 [Eh]
	 SCS Correlation Energy    =      -1.1372158640168237 [Eh]
	 SCS Total Energy          =    -283.9418831250247308 [Eh]
	-----------------------------------------------------------

  Dipole Moment: [D]
     X:    -3.3527      Y:    -1.5328      Z:     0.3019     Total:     3.6988

*** Psi4 exiting successfully. Buy a developer a beer!
