                               Psi4 1.3.2 release

  ==> Input File <==

--------------------------------------------------------------------------
#psi4
#
memory 32 gb

molecule  {
0 1
  O        1.6853730    -0.6083350    -0.1243790
  O        0.5719120     1.2863760     0.0695120
  N        0.6225352     0.0823756     0.0472265
  C       -0.6264930    -0.7411460     0.1639780
  C       -1.8590060     0.0884880    -0.1216840
  H       -0.5100060    -1.5905650    -0.5103580
  H       -0.6039710    -1.1163170     1.1909310
  H       -1.9382960     0.9237250     0.5735710
  H       -1.8356290     0.4847820    -1.1384320
  H       -2.7433030    -0.5458310    -0.0161270
units angstrom
no_reorient  #important for SAPT in psi4, default
symmetry c1  #important for SAPT in psi4, default
}

set PROPERTIES_ORIGIN ["COM"]
properties('MP2/aug-cc-pvtz', properties = ['dipole'])
--------------------------------------------------------------------------

    Molecular point group: c1
  Charge       = 0
  Multiplicity = 1
  Basis Set: AUG-CC-PVTZ
    Blend: AUG-CC-PVTZ
  Basis Set: (AUG-CC-PVTZ AUX)
    Blend: AUG-CC-PVTZ-JKFIT

    Orbital Energies [Eh]
    ---------------------

    Doubly Occupied:

       1A    -20.625801     2A    -20.590960     3A    -15.848758
       4A    -11.314979     5A    -11.251597     6A     -1.596476
       7A     -1.381778     8A     -1.125354     9A     -0.968883
      10A     -0.842454    11A     -0.753576    12A     -0.732650
      13A     -0.721003    14A     -0.633981    15A     -0.591397
      16A     -0.565157    17A     -0.540078    18A     -0.499573
      19A     -0.480036    20A     -0.450579

  @DF-RHF Final Energy:  -282.80368119109920

   => Energetics <=

    Nuclear Repulsion Energy =            182.5862193553548991
    One-Electron Energy =                -747.7496609740981057
    Two-Electron Energy =                 282.3597604276440620
    Total Energy =                       -282.8036811910992014
  Basis Set: (AUG-CC-PVTZ AUX)
    Blend: AUG-CC-PVTZ-RI
    Molecular point group: c1

    Geometry (in Angstrom), charge = 0, multiplicity = 1:

       Center              X                  Y                   Z               Mass
    ------------   -----------------  -----------------  -----------------  -----------------
         O            1.588006847795    -0.639097683673    -0.129598310449    15.994914619570
         O            0.474545847795     1.255613316327     0.064292689551    15.994914619570
         N            0.525169047795     0.051612916327     0.042007189551    14.003074004430
         C           -0.723859152205    -0.771908683673     0.158758689551    12.000000000000
         C           -1.956372152205     0.057725316327    -0.126903310449    12.000000000000
         H           -0.607372152205    -1.621327683673    -0.515577310449     1.007825032230
         H           -0.701337152205    -1.147079683673     1.185711689551     1.007825032230
         H           -2.035662152205     0.892962316327     0.568351689551     1.007825032230
         H           -1.932995152205     0.454019316327    -1.143651310449     1.007825032230
         H           -2.840669152205    -0.576593683673    -0.021346310449     1.007825032230

  Basis Set: AUG-CC-PVTZ
    Blend: AUG-CC-PVTZ
  Basis Set: (AUG-CC-PVTZ AUX)
    Blend: AUG-CC-PVTZ-JKFIT
	 Reference Energy          =    -282.8036811910992014 [Eh]
	 Singles Energy            =      -0.0000000000000000 [Eh]
	 Same-Spin Energy          =      -0.2807937578997056 [Eh]
	 Opposite-Spin Energy      =      -0.8684553023956100 [Eh]
	 Correlation Energy        =      -1.1492490602953156 [Eh]
	 Total Energy              =    -283.9529302513944913 [Eh]

	 ================> DF-SCS-MP2 Energies <==================
	-----------------------------------------------------------
	 SCS Same-Spin Scale       =       0.3333333333333333 [-]
	 SCS Opposite-Spin Scale   =       1.2000000000000000 [-]
	 SCS Same-Spin Energy      =      -0.0935979192999019 [Eh]
	 SCS Opposite-Spin Energy  =      -1.0421463628747318 [Eh]
	 SCS Correlation Energy    =      -1.1357442821746337 [Eh]
	 SCS Total Energy          =    -283.9394254732738432 [Eh]
	-----------------------------------------------------------

  Dipole Moment: [D]
     X:    -3.4145      Y:    -1.4048      Z:     0.3249     Total:     3.7065

*** Psi4 exiting successfully. Buy a developer a beer!
