                               Psi4 1.3.2 release

  ==> Input File <==

--------------------------------------------------------------------------
#psi4
#
memory 32 gb

molecule  {
0 1
  O        1.6853730    -0.6083350    -0.1243790
  O        0.5719120     1.2863760     0.0695120
  N        0.6408460     0.0479760     0.0122270
  C       -0.5420392    -0.6885599     0.1538655
  C       -1.8590060     0.0884880    -0.1216840
  H       -0.5100060    -1.5905650    -0.5103580
  H       -0.6039710    -1.1163170     1.1909310
  H       -1.9382960     0.9237250     0.5735710
  H       -1.8356290     0.4847820    -1.1384320
  H       -2.7433030    -0.5458310    -0.0161270
units angstrom
no_reorient  #important for SAPT in psi4, default
symmetry c1  #important for SAPT in psi4, default
}

set PROPERTIES_ORIGIN ["COM"]
properties('MP2/aug-cc-pvtz', properties = ['dipole'])
--------------------------------------------------------------------------

    Molecular point group: c1
  Charge       = 0
  Multiplicity = 1
  Basis Set: AUG-CC-PVTZ
    Blend: AUG-CC-PVTZ
  Basis Set: (AUG-CC-PVTZ AUX)
    Blend: AUG-CC-PVTZ-JKFIT

    Orbital Energies [Eh]
    ---------------------

    Doubly Occupied:

       1A    -20.613465     2A    -20.609065     3A    -15.855107
       4A    -11.312899     5A    -11.251913     6A     -1.599848
       7A     -1.395026     8A     -1.141866     9A     -0.977300
      10A     -0.837036    11A     -0.758167    12A     -0.740664
      13A     -0.726947    14A     -0.620805    15A     -0.590817
      16A     -0.545168    17A     -0.528670    18A     -0.506410
      19A     -0.492835    20A     -0.455697

  @DF-RHF Final Energy:  -282.79701786193783

   => Energetics <=

    Nuclear Repulsion Energy =            183.8467683848980698
    One-Electron Energy =                -750.1681604312676654
    Two-Electron Energy =                 283.5243741844317924
    Total Energy =                       -282.7970178619378316
  Basis Set: (AUG-CC-PVTZ AUX)
    Blend: AUG-CC-PVTZ-RI
    Molecular point group: c1

    Geometry (in Angstrom), charge = 0, multiplicity = 1:

       Center              X                  Y                   Z               Mass
    ------------   -----------------  -----------------  -----------------  -----------------
         O            1.571082700674    -0.641087941149    -0.121449116010    15.994914619570
         O            0.457621700674     1.253623058851     0.072441883990    15.994914619570
         N            0.526555700674     0.015223058851     0.015156883990    14.003074004430
         C           -0.656329499326    -0.721312841149     0.156795383990    12.000000000000
         C           -1.973296299326     0.055735058851    -0.118754116010    12.000000000000
         H           -0.624296299326    -1.623317941149    -0.507428116010     1.007825032230
         H           -0.718261299326    -1.149069941149     1.193860883990     1.007825032230
         H           -2.052586299326     0.890972058851     0.576500883990     1.007825032230
         H           -1.949919299326     0.452029058851    -1.135502116010     1.007825032230
         H           -2.857593299326    -0.578583941149    -0.013197116010     1.007825032230

  Basis Set: AUG-CC-PVTZ
    Blend: AUG-CC-PVTZ
  Basis Set: (AUG-CC-PVTZ AUX)
    Blend: AUG-CC-PVTZ-JKFIT
	 Reference Energy          =    -282.7970178619378316 [Eh]
	 Singles Energy            =      -0.0000000000000000 [Eh]
	 Same-Spin Energy          =      -0.2815953663403280 [Eh]
	 Opposite-Spin Energy      =      -0.8695191835876804 [Eh]
	 Correlation Energy        =      -1.1511145499280084 [Eh]
	 Total Energy              =    -283.9481324118658563 [Eh]

	 ================> DF-SCS-MP2 Energies <==================
	-----------------------------------------------------------
	 SCS Same-Spin Scale       =       0.3333333333333333 [-]
	 SCS Opposite-Spin Scale   =       1.2000000000000000 [-]
	 SCS Same-Spin Energy      =      -0.0938651221134427 [Eh]
	 SCS Opposite-Spin Energy  =      -1.0434230203052164 [Eh]
	 SCS Correlation Energy    =      -1.1372881424186589 [Eh]
	 SCS Total Energy          =    -283.9343060043564719 [Eh]
	-----------------------------------------------------------

  Dipole Moment: [D]
     X:    -3.1986      Y:    -1.5914      Z:     0.2966     Total:     3.5849

*** Psi4 exiting successfully. Buy a developer a beer!
