                               Psi4 1.3.2 release

  ==> Input File <==

--------------------------------------------------------------------------
#psi4
#
memory 32 gb

molecule  {
0 1
  O        1.6853730    -0.6083350    -0.1243790
  O        0.5719120     1.2863760     0.0695120
  N        0.6680084     0.0051076     0.0251917
  C       -0.6264930    -0.7411460     0.1639780
  C       -1.8590060     0.0884880    -0.1216840
  H       -0.5100060    -1.5905650    -0.5103580
  H       -0.6039710    -1.1163170     1.1909310
  H       -1.9382960     0.9237250     0.5735710
  H       -1.8356290     0.4847820    -1.1384320
  H       -2.7433030    -0.5458310    -0.0161270
units angstrom
no_reorient  #important for SAPT in psi4, default
symmetry c1  #important for SAPT in psi4, default
}

set PROPERTIES_ORIGIN ["COM"]
properties('MP2/aug-cc-pvtz', properties = ['dipole'])
--------------------------------------------------------------------------

    Molecular point group: c1
  Charge       = 0
  Multiplicity = 1
  Basis Set: AUG-CC-PVTZ
    Blend: AUG-CC-PVTZ
  Basis Set: (AUG-CC-PVTZ AUX)
    Blend: AUG-CC-PVTZ-JKFIT

    Orbital Energies [Eh]
    ---------------------

    Doubly Occupied:

       1A    -20.625457     2A    -20.591195     3A    -15.848767
       4A    -11.315192     5A    -11.249839     6A     -1.599895
       7A     -1.380697     8A     -1.123356     9A     -0.970861
      10A     -0.840750    11A     -0.751166    12A     -0.734241
      13A     -0.721423    14A     -0.634050    15A     -0.593744
      16A     -0.561620    17A     -0.536042    18A     -0.493451
      19A     -0.484590    20A     -0.451484

  @DF-RHF Final Energy:  -282.80300126605812

   => Energetics <=

    Nuclear Repulsion Energy =            182.4450623290621252
    One-Electron Energy =                -747.4804867687097385
    Two-Electron Energy =                 282.2324231735894955
    Total Energy =                       -282.8030012660581178
  Basis Set: (AUG-CC-PVTZ AUX)
    Blend: AUG-CC-PVTZ-RI
    Molecular point group: c1

    Geometry (in Angstrom), charge = 0, multiplicity = 1:

       Center              X                  Y                   Z               Mass
    ------------   -----------------  -----------------  -----------------  -----------------
         O            1.579520277481    -0.624677314863    -0.125486000791    15.994914619570
         O            0.466059277481     1.270033685137     0.068404999209    15.994914619570
         N            0.562155677481    -0.011234714863     0.024084699209    14.003074004430
         C           -0.732345722519    -0.757488314863     0.162870999209    12.000000000000
         C           -1.964858722519     0.072145685137    -0.122791000791    12.000000000000
         H           -0.615858722519    -1.606907314863    -0.511465000791     1.007825032230
         H           -0.709823722519    -1.132659314863     1.189823999209     1.007825032230
         H           -2.044148722519     0.907382685137     0.572463999209     1.007825032230
         H           -1.941481722519     0.468439685137    -1.139539000791     1.007825032230
         H           -2.849155722519    -0.562173314863    -0.017234000791     1.007825032230

  Basis Set: AUG-CC-PVTZ
    Blend: AUG-CC-PVTZ
  Basis Set: (AUG-CC-PVTZ AUX)
    Blend: AUG-CC-PVTZ-JKFIT
	 Reference Energy          =    -282.8030012660581178 [Eh]
	 Singles Energy            =      -0.0000000000000000 [Eh]
	 Same-Spin Energy          =      -0.2806749238133484 [Eh]
	 Opposite-Spin Energy      =      -0.8682277216900824 [Eh]
	 Correlation Energy        =      -1.1489026455034308 [Eh]
	 Total Energy              =    -283.9519039115615442 [Eh]

	 ================> DF-SCS-MP2 Energies <==================
	-----------------------------------------------------------
	 SCS Same-Spin Scale       =       0.3333333333333333 [-]
	 SCS Opposite-Spin Scale   =       1.2000000000000000 [-]
	 SCS Same-Spin Energy      =      -0.0935583079377828 [Eh]
	 SCS Opposite-Spin Energy  =      -1.0418732660280989 [Eh]
	 SCS Correlation Energy    =      -1.1354315739658818 [Eh]
	 SCS Total Energy          =    -283.9384328400240065 [Eh]
	-----------------------------------------------------------

  Dipole Moment: [D]
     X:    -3.1321      Y:    -1.8363      Z:     0.2696     Total:     3.6407

*** Psi4 exiting successfully. Buy a developer a beer!
