                               Psi4 1.3.2 release

  ==> Input File <==

--------------------------------------------------------------------------
#psi4
#
memory 32 gb

molecule  {
0 1
  O        1.6853730    -0.6083350    -0.1243790
  O        0.5719120     1.2863760     0.0695120
  N        0.7175707    -0.0833035     0.0516123
  C       -0.6264930    -0.7411460     0.1639780
  C       -1.8590060     0.0884880    -0.1216840
  H       -0.5100060    -1.5905650    -0.5103580
  H       -0.6039710    -1.1163170     1.1909310
  H       -1.9382960     0.9237250     0.5735710
  H       -1.8356290     0.4847820    -1.1384320
  H       -2.7433030    -0.5458310    -0.0161270
units angstrom
no_reorient  #important for SAPT in psi4, default
symmetry c1  #important for SAPT in psi4, default
}

set PROPERTIES_ORIGIN ["COM"]
properties('MP2/aug-cc-pvtz', properties = ['dipole'])
--------------------------------------------------------------------------

    Molecular point group: c1
  Charge       = 0
  Multiplicity = 1
  Basis Set: AUG-CC-PVTZ
    Blend: AUG-CC-PVTZ
  Basis Set: (AUG-CC-PVTZ AUX)
    Blend: AUG-CC-PVTZ-JKFIT

    Orbital Energies [Eh]
    ---------------------

    Doubly Occupied:

       1A    -20.659128     2A    -20.555600     3A    -15.842835
       4A    -11.315731     5A    -11.248495     6A     -1.667821
       7A     -1.330755     8A     -1.121824     9A     -0.974837
      10A     -0.851606    11A     -0.761668    12A     -0.751020
      13A     -0.737250    14A     -0.640909    15A     -0.594465
      16A     -0.561885    17A     -0.534375    18A     -0.479714
      19A     -0.457760    20A     -0.439589

  @DF-RHF Final Energy:  -282.77449660482785

   => Energetics <=

    Nuclear Repulsion Energy =            182.5254895831400290
    One-Electron Energy =                -747.5454393233264909
    Two-Electron Energy =                 282.2454531353586162
    Total Energy =                       -282.7744966048278457
  Basis Set: (AUG-CC-PVTZ AUX)
    Blend: AUG-CC-PVTZ-RI
    Molecular point group: c1

    Geometry (in Angstrom), charge = 0, multiplicity = 1:

       Center              X                  Y                   Z               Mass
    ------------   -----------------  -----------------  -----------------  -----------------
         O            1.570270566798    -0.608177332089    -0.130416823333    15.994914619570
         O            0.456809566798     1.286533667911     0.063474176667    15.994914619570
         N            0.602468266798    -0.083145832089     0.045574476667    14.003074004430
         C           -0.741595433202    -0.740988332089     0.157940176667    12.000000000000
         C           -1.974108433202     0.088645667911    -0.127721823333    12.000000000000
         H           -0.625108433202    -1.590407332089    -0.516395823333     1.007825032230
         H           -0.719073433202    -1.116159332089     1.184893176667     1.007825032230
         H           -2.053398433202     0.923882667911     0.567533176667     1.007825032230
         H           -1.950731433202     0.484939667911    -1.144469823333     1.007825032230
         H           -2.858405433202    -0.545673332089    -0.022164823333     1.007825032230

  Basis Set: AUG-CC-PVTZ
    Blend: AUG-CC-PVTZ
  Basis Set: (AUG-CC-PVTZ AUX)
    Blend: AUG-CC-PVTZ-JKFIT
	 Reference Energy          =    -282.7744966048278457 [Eh]
	 Singles Energy            =      -0.0000000000000000 [Eh]
	 Same-Spin Energy          =      -0.2781597441371119 [Eh]
	 Opposite-Spin Energy      =      -0.8633623106221384 [Eh]
	 Correlation Energy        =      -1.1415220547592502 [Eh]
	 Total Energy              =    -283.9160186595871096 [Eh]

	 ================> DF-SCS-MP2 Energies <==================
	-----------------------------------------------------------
	 SCS Same-Spin Scale       =       0.3333333333333333 [-]
	 SCS Opposite-Spin Scale   =       1.2000000000000000 [-]
	 SCS Same-Spin Energy      =      -0.0927199147123706 [Eh]
	 SCS Opposite-Spin Energy  =      -1.0360347727465660 [Eh]
	 SCS Correlation Energy    =      -1.1287546874589367 [Eh]
	 SCS Total Energy          =    -283.9032512922867681 [Eh]
	-----------------------------------------------------------

  Dipole Moment: [D]
     X:    -2.8070      Y:    -2.5720      Z:     0.2173     Total:     3.8133

*** Psi4 exiting successfully. Buy a developer a beer!
