                               Psi4 1.4a3.dev225

  ==> Input File <==

--------------------------------------------------------------------------
#psi4
#
memory 32 gb

molecule  {
0 1
  O        1.6854460    -0.6082710    -0.1241230
  O        0.5718390     1.2863960     0.0693880
  N        0.6829359     0.0215561     0.0066928
  C       -0.6264640    -0.7412330     0.1636330
  C       -1.8590430     0.0884940    -0.1214310
  H       -0.5100180    -1.5902840    -0.5111790
  H       -0.6037960    -1.1170010     1.1903640
  H       -1.9383190     0.9233440     0.5742920
  H       -1.8358000     0.4853590    -1.1379580
  H       -2.7432880    -0.5459410    -0.0161300
units angstrom
no_reorient  #important for SAPT in psi4, default
symmetry c1  #important for SAPT in psi4, default
}

set PROPERTIES_ORIGIN ["COM"]
properties('MP2/aug-cc-pvtz', properties = ['dipole'])
--------------------------------------------------------------------------

    Molecular point group: c1
  Charge       = 0
  Multiplicity = 1
  Basis Set: AUG-CC-PVTZ
    Blend: AUG-CC-PVTZ
  Basis Set: (AUG-CC-PVTZ AUX)
    Blend: AUG-CC-PVTZ-JKFIT

    Orbital Energies [Eh]
    ---------------------

    Doubly Occupied:

       1A    -20.623715     2A    -20.592851     3A    -15.848186
       4A    -11.314357     5A    -11.248823     6A     -1.605511
       7A     -1.391018     8A     -1.115796     9A     -0.966076
      10A     -0.841173    11A     -0.752150    12A     -0.734668
      13A     -0.724245    14A     -0.635862    15A     -0.594213
      16A     -0.561234    17A     -0.535264    18A     -0.494812
      19A     -0.480899    20A     -0.454434

  @DF-RHF Final Energy:  -282.80560046735656

   => Energetics <=

    Nuclear Repulsion Energy =            182.5151227211639764
    One-Electron Energy =                -747.6108714089407385
    Two-Electron Energy =                 282.2901482204202352
    Total Energy =                       -282.8056004673565553
  Basis Set: (AUG-CC-PVTZ AUX)
    Blend: AUG-CC-PVTZ-RI
    Molecular point group: c1

    Geometry (in Angstrom), charge = 0, multiplicity = 1:

       Center              X                  Y                   Z               Mass
    ------------   -----------------  -----------------  -----------------  -----------------
         O            1.576808883051    -0.627683759044    -0.121788381576    15.994914619570
         O            0.463201883051     1.266983240956     0.071722618424    15.994914619570
         N            0.574298783051     0.002143340956     0.009027418424    14.003074004430
         C           -0.735101116949    -0.760645759044     0.165967618424    12.000000000000
         C           -1.967680116949     0.069081240956    -0.119096381576    12.000000000000
         H           -0.618655116949    -1.609696759044    -0.508844381576     1.007825032230
         H           -0.712433116949    -1.136413759044     1.192698618424     1.007825032230
         H           -2.046956116949     0.903931240956     0.576626618424     1.007825032230
         H           -1.944437116949     0.465946240956    -1.135623381576     1.007825032230
         H           -2.851925116949    -0.565353759044    -0.013795381576     1.007825032230

  Basis Set: AUG-CC-PVTZ
    Blend: AUG-CC-PVTZ
  Basis Set: (AUG-CC-PVTZ AUX)
    Blend: AUG-CC-PVTZ-JKFIT
	 Reference Energy          =    -282.8056004673565553 [Eh]
	 Singles Energy            =      -0.0000000000000000 [Eh]
	 Same-Spin Energy          =      -0.2800810270578421 [Eh]
	 Opposite-Spin Energy      =      -0.8668683603332192 [Eh]
	 Correlation Energy        =      -1.1469493873910612 [Eh]
	 Total Energy              =    -283.9525498547476445 [Eh]

	 ================> DF-SCS-MP2 Energies <==================
	-----------------------------------------------------------
	 SCS Same-Spin Scale       =       0.3333333333333333 [-]
	 SCS Opposite-Spin Scale   =       1.2000000000000000 [-]
	 SCS Same-Spin Energy      =      -0.0933603423526140 [Eh]
	 SCS Opposite-Spin Energy  =      -1.0402420323998631 [Eh]
	 SCS Correlation Energy    =      -1.1336023747524770 [Eh]
	 SCS Total Energy          =    -283.9392028421090117 [Eh]
	-----------------------------------------------------------

  Dipole Moment: [D]
     X:    -3.0578      Y:    -1.7826      Z:     0.2561     Total:     3.5487

*** Psi4 exiting successfully. Buy a developer a beer!
