                               Psi4 1.3.2 release

  ==> Input File <==

--------------------------------------------------------------------------
#psi4
#
memory 32 gb

molecule  {
0 1
  O        1.6853730    -0.6083350    -0.1243790
  O        0.5719120     1.2863760     0.0695120
  N        0.6121395     0.0898830    -0.0005528
  C       -0.6264930    -0.7411460     0.1639780
  C       -1.8590060     0.0884880    -0.1216840
  H       -0.5100060    -1.5905650    -0.5103580
  H       -0.6039710    -1.1163170     1.1909310
  H       -1.9382960     0.9237250     0.5735710
  H       -1.8356290     0.4847820    -1.1384320
  H       -2.7433030    -0.5458310    -0.0161270
units angstrom
no_reorient  #important for SAPT in psi4, default
symmetry c1  #important for SAPT in psi4, default
}

set PROPERTIES_ORIGIN ["COM"]
properties('MP2/aug-cc-pvtz', properties = ['dipole'])
--------------------------------------------------------------------------

    Molecular point group: c1
  Charge       = 0
  Multiplicity = 1
  Basis Set: AUG-CC-PVTZ
    Blend: AUG-CC-PVTZ
  Basis Set: (AUG-CC-PVTZ AUX)
    Blend: AUG-CC-PVTZ-JKFIT

    Orbital Energies [Eh]
    ---------------------

    Doubly Occupied:

       1A    -20.628701     2A    -20.588384     3A    -15.848409
       4A    -11.315121     5A    -11.251377     6A     -1.599321
       7A     -1.379018     8A     -1.125730     9A     -0.967990
      10A     -0.843604    11A     -0.755307    12A     -0.733128
      13A     -0.720585    14A     -0.634460    15A     -0.591000
      16A     -0.565882    17A     -0.539909    18A     -0.499926
      19A     -0.478692    20A     -0.449922

  @DF-RHF Final Energy:  -282.80267927625317

   => Energetics <=

    Nuclear Repulsion Energy =            182.6354783018703927
    One-Electron Energy =                -747.8433817217279511
    Two-Electron Energy =                 282.4052241436043573
    Total Energy =                       -282.8026792762531727
  Basis Set: (AUG-CC-PVTZ AUX)
    Blend: AUG-CC-PVTZ-RI
    Molecular point group: c1

    Geometry (in Angstrom), charge = 0, multiplicity = 1:

       Center              X                  Y                   Z               Mass
    ------------   -----------------  -----------------  -----------------  -----------------
         O            1.589946976024    -0.640498774380    -0.120681357409    15.994914619570
         O            0.476485976024     1.254212225620     0.073209642591    15.994914619570
         N            0.516713476024     0.057719225620     0.003144842591    14.003074004430
         C           -0.721919023976    -0.773309774380     0.167675642591    12.000000000000
         C           -1.954432023976     0.056324225620    -0.117986357409    12.000000000000
         H           -0.605432023976    -1.622728774380    -0.506660357409     1.007825032230
         H           -0.699397023976    -1.148480774380     1.194628642591     1.007825032230
         H           -2.033722023976     0.891561225620     0.577268642591     1.007825032230
         H           -1.931055023976     0.452618225620    -1.134734357409     1.007825032230
         H           -2.838729023976    -0.577994774380    -0.012429357409     1.007825032230

  Basis Set: AUG-CC-PVTZ
    Blend: AUG-CC-PVTZ
  Basis Set: (AUG-CC-PVTZ AUX)
    Blend: AUG-CC-PVTZ-JKFIT
	 Reference Energy          =    -282.8026792762531727 [Eh]
	 Singles Energy            =      -0.0000000000000000 [Eh]
	 Same-Spin Energy          =      -0.2807230292534892 [Eh]
	 Opposite-Spin Energy      =      -0.8683842235915467 [Eh]
	 Correlation Energy        =      -1.1491072528450359 [Eh]
	 Total Energy              =    -283.9517865290982286 [Eh]

	 ================> DF-SCS-MP2 Energies <==================
	-----------------------------------------------------------
	 SCS Same-Spin Scale       =       0.3333333333333333 [-]
	 SCS Opposite-Spin Scale   =       1.2000000000000000 [-]
	 SCS Same-Spin Energy      =      -0.0935743430844964 [Eh]
	 SCS Opposite-Spin Energy  =      -1.0420610683098559 [Eh]
	 SCS Correlation Energy    =      -1.1356354113943523 [Eh]
	 SCS Total Energy          =    -283.9383146876475053 [Eh]
	-----------------------------------------------------------

  Dipole Moment: [D]
     X:    -3.4358      Y:    -1.3726      Z:     0.3133     Total:     3.7131

*** Psi4 exiting successfully. Buy a developer a beer!
