                               Psi4 1.3.2 release

  ==> Input File <==

--------------------------------------------------------------------------
#psi4
#
memory 32 gb

molecule  {
0 1
  O        1.6853730    -0.6083350    -0.1243790
  O        0.5719120     1.2863760     0.0695120
  N        0.6546223     0.0266587     0.0186872
  C       -0.6264930    -0.7411460     0.1639780
  C       -1.8590060     0.0884880    -0.1216840
  H       -0.5100060    -1.5905650    -0.5103580
  H       -0.6039710    -1.1163170     1.1909310
  H       -1.9382960     0.9237250     0.5735710
  H       -1.8356290     0.4847820    -1.1384320
  H       -2.7433030    -0.5458310    -0.0161270
units angstrom
no_reorient  #important for SAPT in psi4, default
symmetry c1  #important for SAPT in psi4, default
}

set PROPERTIES_ORIGIN ["COM"]
properties('MP2/aug-cc-pvtz', properties = ['dipole'])
--------------------------------------------------------------------------

    Molecular point group: c1
  Charge       = 0
  Multiplicity = 1
  Basis Set: AUG-CC-PVTZ
    Blend: AUG-CC-PVTZ
  Basis Set: (AUG-CC-PVTZ AUX)
    Blend: AUG-CC-PVTZ-JKFIT

    Orbital Energies [Eh]
    ---------------------

    Doubly Occupied:

       1A    -20.616303     2A    -20.600619     3A    -15.849293
       4A    -11.315130     5A    -11.250220     6A     -1.591306
       7A     -1.387185     8A     -1.123867     9A     -0.970025
      10A     -0.840239    11A     -0.750032    12A     -0.732497
      13A     -0.720318    14A     -0.633236    15A     -0.593026
      16A     -0.562317    17A     -0.536832    18A     -0.493490
      19A     -0.488785    20A     -0.452572

  @DF-RHF Final Energy:  -282.80552418863545

   => Energetics <=

    Nuclear Repulsion Energy =            182.4665699488990356
    One-Electron Energy =                -747.5296001454572661
    Two-Electron Energy =                 282.2575060079227569
    Total Energy =                       -282.8055241886354452
  Basis Set: (AUG-CC-PVTZ AUX)
    Blend: AUG-CC-PVTZ-RI
    Molecular point group: c1

    Geometry (in Angstrom), charge = 0, multiplicity = 1:

       Center              X                  Y                   Z               Mass
    ------------   -----------------  -----------------  -----------------  -----------------
         O            1.582018497947    -0.628699352579    -0.124272079259    15.994914619570
         O            0.468557497947     1.266011647421     0.069618920741    15.994914619570
         N            0.551267797947     0.006294347421     0.018794120741    14.003074004430
         C           -0.729847502053    -0.761510352579     0.164084920741    12.000000000000
         C           -1.962360502053     0.068123647421    -0.121577079259    12.000000000000
         H           -0.613360502053    -1.610929352579    -0.510251079259     1.007825032230
         H           -0.707325502053    -1.136681352579     1.191037920741     1.007825032230
         H           -2.041650502053     0.903360647421     0.573677920741     1.007825032230
         H           -1.938983502053     0.464417647421    -1.138325079259     1.007825032230
         H           -2.846657502053    -0.566195352579    -0.016020079259     1.007825032230

  Basis Set: AUG-CC-PVTZ
    Blend: AUG-CC-PVTZ
  Basis Set: (AUG-CC-PVTZ AUX)
    Blend: AUG-CC-PVTZ-JKFIT
	 Reference Energy          =    -282.8055241886354452 [Eh]
	 Singles Energy            =      -0.0000000000000000 [Eh]
	 Same-Spin Energy          =      -0.2809467859069715 [Eh]
	 Opposite-Spin Energy      =      -0.8687949118809863 [Eh]
	 Correlation Energy        =      -1.1497416977879578 [Eh]
	 Total Energy              =    -283.9552658864233763 [Eh]

	 ================> DF-SCS-MP2 Energies <==================
	-----------------------------------------------------------
	 SCS Same-Spin Scale       =       0.3333333333333333 [-]
	 SCS Opposite-Spin Scale   =       1.2000000000000000 [-]
	 SCS Same-Spin Energy      =      -0.0936489286356572 [Eh]
	 SCS Opposite-Spin Energy  =      -1.0425538942571835 [Eh]
	 SCS Correlation Energy    =      -1.1362028228928407 [Eh]
	 SCS Total Energy          =    -283.9417270115282577 [Eh]
	-----------------------------------------------------------

  Dipole Moment: [D]
     X:    -3.2011      Y:    -1.7101      Z:     0.2798     Total:     3.6400

*** Psi4 exiting successfully. Buy a developer a beer!
