                               Psi4 1.3.2 release

  ==> Input File <==

--------------------------------------------------------------------------
#psi4
#
memory 32 gb

molecule  {
0 1
  O        1.6853730    -0.6083350    -0.1243790
  O        0.5719120     1.2863760     0.0695120
  N        0.7250043    -0.0049035     0.0012206
  C       -0.6264930    -0.7411460     0.1639780
  C       -1.8590060     0.0884880    -0.1216840
  H       -0.5100060    -1.5905650    -0.5103580
  H       -0.6039710    -1.1163170     1.1909310
  H       -1.9382960     0.9237250     0.5735710
  H       -1.8356290     0.4847820    -1.1384320
  H       -2.7433030    -0.5458310    -0.0161270
units angstrom
no_reorient  #important for SAPT in psi4, default
symmetry c1  #important for SAPT in psi4, default
}

set PROPERTIES_ORIGIN ["COM"]
properties('MP2/aug-cc-pvtz', properties = ['dipole'])
--------------------------------------------------------------------------

    Molecular point group: c1
  Charge       = 0
  Multiplicity = 1
  Basis Set: AUG-CC-PVTZ
    Blend: AUG-CC-PVTZ
  Basis Set: (AUG-CC-PVTZ AUX)
    Blend: AUG-CC-PVTZ-JKFIT

    Orbital Energies [Eh]
    ---------------------

    Doubly Occupied:

       1A    -20.640035     2A    -20.576043     3A    -15.845732
       4A    -11.313197     5A    -11.246854     6A     -1.641394
       7A     -1.379385     8A     -1.107448     9A     -0.962905
      10A     -0.845452    11A     -0.757706    12A     -0.742186
      13A     -0.732728    14A     -0.639567    15A     -0.595307
      16A     -0.559786    17A     -0.533095    18A     -0.491780
      19A     -0.466752    20A     -0.453099

  @DF-RHF Final Energy:  -282.79660129933342

   => Energetics <=

    Nuclear Repulsion Energy =            182.6146258536925870
    One-Electron Energy =                -747.7615517053053509
    Two-Electron Energy =                 282.3503245522793463
    Total Energy =                       -282.7966012993334175
  Basis Set: (AUG-CC-PVTZ AUX)
    Blend: AUG-CC-PVTZ-RI
    Molecular point group: c1

    Geometry (in Angstrom), charge = 0, multiplicity = 1:

       Center              X                  Y                   Z               Mass
    ------------   -----------------  -----------------  -----------------  -----------------
         O            1.568883249233    -0.622808963744    -0.121012323424    15.994914619570
         O            0.455422249233     1.271902036256     0.072878676576    15.994914619570
         N            0.608514549233    -0.019377463744     0.004587276576    14.003074004430
         C           -0.742982750767    -0.755619963744     0.167344676576    12.000000000000
         C           -1.975495750767     0.074014036256    -0.118317323424    12.000000000000
         H           -0.626495750767    -1.605038963744    -0.506991323424     1.007825032230
         H           -0.720460750767    -1.130790963744     1.194297676576     1.007825032230
         H           -2.054785750767     0.909251036256     0.576937676576     1.007825032230
         H           -1.952118750767     0.470308036256    -1.135065323424     1.007825032230
         H           -2.859792750767    -0.560304963744    -0.012760323424     1.007825032230

  Basis Set: AUG-CC-PVTZ
    Blend: AUG-CC-PVTZ
  Basis Set: (AUG-CC-PVTZ AUX)
    Blend: AUG-CC-PVTZ-JKFIT
	 Reference Energy          =    -282.7966012993334175 [Eh]
	 Singles Energy            =      -0.0000000000000000 [Eh]
	 Same-Spin Energy          =      -0.2786768679716295 [Eh]
	 Opposite-Spin Energy      =      -0.8638067780091795 [Eh]
	 Correlation Energy        =      -1.1424836459808090 [Eh]
	 Total Energy              =    -283.9390849453142209 [Eh]

	 ================> DF-SCS-MP2 Energies <==================
	-----------------------------------------------------------
	 SCS Same-Spin Scale       =       0.3333333333333333 [-]
	 SCS Opposite-Spin Scale   =       1.2000000000000000 [-]
	 SCS Same-Spin Energy      =      -0.0928922893238765 [Eh]
	 SCS Opposite-Spin Energy  =      -1.0365681336110153 [Eh]
	 SCS Correlation Energy    =      -1.1294604229348919 [Eh]
	 SCS Total Energy          =    -283.9260617222682868 [Eh]
	-----------------------------------------------------------

  Dipole Moment: [D]
     X:    -2.8028      Y:    -2.0361      Z:     0.2171     Total:     3.4711

*** Psi4 exiting successfully. Buy a developer a beer!
