                               Psi4 1.3.2 release

  ==> Input File <==

--------------------------------------------------------------------------
#psi4
#
memory 32 gb

molecule  {
0 1
  O        1.6966915    -0.5898709    -0.1248263
  O        0.5719120     1.2863760     0.0695120
  N        0.6408460     0.0479760     0.0122270
  C       -0.6264930    -0.7411460     0.1639780
  C       -1.8590060     0.0884880    -0.1216840
  H       -0.5100060    -1.5905650    -0.5103580
  H       -0.6039710    -1.1163170     1.1909310
  H       -1.9382960     0.9237250     0.5735710
  H       -1.8356290     0.4847820    -1.1384320
  H       -2.7433030    -0.5458310    -0.0161270
units angstrom
no_reorient  #important for SAPT in psi4, default
symmetry c1  #important for SAPT in psi4, default
}

set PROPERTIES_ORIGIN ["COM"]
properties('MP2/aug-cc-pvtz', properties = ['dipole'])
--------------------------------------------------------------------------

    Molecular point group: c1
  Charge       = 0
  Multiplicity = 1
  Basis Set: AUG-CC-PVTZ
    Blend: AUG-CC-PVTZ
  Basis Set: (AUG-CC-PVTZ AUX)
    Blend: AUG-CC-PVTZ-JKFIT

    Orbital Energies [Eh]
    ---------------------

    Doubly Occupied:

       1A    -20.608753     2A    -20.606239     3A    -15.848981
       4A    -11.316147     5A    -11.251174     6A     -1.588230
       7A     -1.387059     8A     -1.125485     9A     -0.969925
      10A     -0.840197    11A     -0.750315    12A     -0.731440
      13A     -0.719248    14A     -0.633308    15A     -0.592329
      16A     -0.563829    17A     -0.538236    18A     -0.494858
      19A     -0.488386    20A     -0.451487

  @DF-RHF Final Energy:  -282.80635884363147

   => Energetics <=

    Nuclear Repulsion Energy =            182.4782997572147849
    One-Electron Energy =                -747.5580670532190197
    Two-Electron Energy =                 282.2734084523727347
    Total Energy =                       -282.8063588436314717
  Basis Set: (AUG-CC-PVTZ AUX)
    Blend: AUG-CC-PVTZ-RI
    Molecular point group: c1

    Geometry (in Angstrom), charge = 0, multiplicity = 1:

       Center              X                  Y                   Z               Mass
    ------------   -----------------  -----------------  -----------------  -----------------
         O            1.593495225140    -0.618149731837    -0.123418372395    15.994914619570
         O            0.468715725140     1.258097168163     0.070919927605    15.994914619570
         N            0.537649725140     0.019697168163     0.013634927605    14.003074004430
         C           -0.729689274860    -0.769424831837     0.165385927605    12.000000000000
         C           -1.962202274860     0.060209168163    -0.120276072395    12.000000000000
         H           -0.613202274860    -1.618843831837    -0.508950072395     1.007825032230
         H           -0.707167274860    -1.144595831837     1.192338927605     1.007825032230
         H           -2.041492274860     0.895446168163     0.574978927605     1.007825032230
         H           -1.938825274860     0.456503168163    -1.137024072395     1.007825032230
         H           -2.846499274860    -0.574109831837    -0.014719072395     1.007825032230

  Basis Set: AUG-CC-PVTZ
    Blend: AUG-CC-PVTZ
  Basis Set: (AUG-CC-PVTZ AUX)
    Blend: AUG-CC-PVTZ-JKFIT
	 Reference Energy          =    -282.8063588436314717 [Eh]
	 Singles Energy            =      -0.0000000000000000 [Eh]
	 Same-Spin Energy          =      -0.2810014487091855 [Eh]
	 Opposite-Spin Energy      =      -0.8689430719119009 [Eh]
	 Correlation Energy        =      -1.1499445206210863 [Eh]
	 Total Energy              =    -283.9563033642525625 [Eh]

	 ================> DF-SCS-MP2 Energies <==================
	-----------------------------------------------------------
	 SCS Same-Spin Scale       =       0.3333333333333333 [-]
	 SCS Opposite-Spin Scale   =       1.2000000000000000 [-]
	 SCS Same-Spin Energy      =      -0.0936671495697285 [Eh]
	 SCS Opposite-Spin Energy  =      -1.0427316862942810 [Eh]
	 SCS Correlation Energy    =      -1.1363988358640096 [Eh]
	 SCS Total Energy          =    -283.9427576794954575 [Eh]
	-----------------------------------------------------------

  Dipole Moment: [D]
     X:    -3.3078      Y:    -1.6267      Z:     0.2916     Total:     3.6977

*** Psi4 exiting successfully. Buy a developer a beer!
