                               Psi4 1.3.2 release

  ==> Input File <==

--------------------------------------------------------------------------
#psi4
#
memory 32 gb

molecule  {
0 1
  O        1.6373198    -0.6802153    -0.1189955
  O        0.5719120     1.2863760     0.0695120
  N        0.6408460     0.0479760     0.0122270
  C       -0.6264930    -0.7411460     0.1639780
  C       -1.8590060     0.0884880    -0.1216840
  H       -0.5100060    -1.5905650    -0.5103580
  H       -0.6039710    -1.1163170     1.1909310
  H       -1.9382960     0.9237250     0.5735710
  H       -1.8356290     0.4847820    -1.1384320
  H       -2.7433030    -0.5458310    -0.0161270
units angstrom
no_reorient  #important for SAPT in psi4, default
symmetry c1  #important for SAPT in psi4, default
}

set PROPERTIES_ORIGIN ["COM"]
properties('MP2/aug-cc-pvtz', properties = ['dipole'])
--------------------------------------------------------------------------

    Molecular point group: c1
  Charge       = 0
  Multiplicity = 1
  Basis Set: AUG-CC-PVTZ
    Blend: AUG-CC-PVTZ
  Basis Set: (AUG-CC-PVTZ AUX)
    Blend: AUG-CC-PVTZ-JKFIT

    Orbital Energies [Eh]
    ---------------------

    Doubly Occupied:

       1A    -20.615240     2A    -20.609816     3A    -15.850934
       4A    -11.310858     5A    -11.248196     6A     -1.588442
       7A     -1.397357     8A     -1.120068     9A     -0.966537
      10A     -0.842366    11A     -0.749506    12A     -0.733003
      13A     -0.722574    14A     -0.631666    15A     -0.591833
      16A     -0.561349    17A     -0.535850    18A     -0.501372
      19A     -0.483649    20A     -0.457148

  @DF-RHF Final Energy:  -282.80403679049971

   => Energetics <=

    Nuclear Repulsion Energy =            182.6579104028863583
    One-Electron Energy =                -747.8883670768175307
    Two-Electron Energy =                 282.4264198834314357
    Total Energy =                       -282.8040367904997083
  Basis Set: (AUG-CC-PVTZ AUX)
    Blend: AUG-CC-PVTZ-RI
    Molecular point group: c1

    Geometry (in Angstrom), charge = 0, multiplicity = 1:

       Center              X                  Y                   Z               Mass
    ------------   -----------------  -----------------  -----------------  -----------------
         O            1.546780057191    -0.689235010165    -0.118830550229    15.994914619570
         O            0.481372257191     1.277356289835     0.069676949771    15.994914619570
         N            0.550306257191     0.038956289835     0.012391949771    14.003074004430
         C           -0.717032742809    -0.750165710165     0.164142949771    12.000000000000
         C           -1.949545742809     0.079468289835    -0.121519050229    12.000000000000
         H           -0.600545742809    -1.599584710165    -0.510193050229     1.007825032230
         H           -0.694510742809    -1.125336710165     1.191095949771     1.007825032230
         H           -2.028835742809     0.914705289835     0.573735949771     1.007825032230
         H           -1.926168742809     0.475762289835    -1.138267050229     1.007825032230
         H           -2.833842742809    -0.554850710165    -0.015962050229     1.007825032230

  Basis Set: AUG-CC-PVTZ
    Blend: AUG-CC-PVTZ
  Basis Set: (AUG-CC-PVTZ AUX)
    Blend: AUG-CC-PVTZ-JKFIT
	 Reference Energy          =    -282.8040367904997083 [Eh]
	 Singles Energy            =      -0.0000000000000000 [Eh]
	 Same-Spin Energy          =      -0.2812689958358026 [Eh]
	 Opposite-Spin Energy      =      -0.8693958059366740 [Eh]
	 Correlation Energy        =      -1.1506648017724765 [Eh]
	 Total Energy              =    -283.9547015922721585 [Eh]

	 ================> DF-SCS-MP2 Energies <==================
	-----------------------------------------------------------
	 SCS Same-Spin Scale       =       0.3333333333333333 [-]
	 SCS Opposite-Spin Scale   =       1.2000000000000000 [-]
	 SCS Same-Spin Energy      =      -0.0937563319452675 [Eh]
	 SCS Opposite-Spin Energy  =      -1.0432749671240087 [Eh]
	 SCS Correlation Energy    =      -1.1370312990692761 [Eh]
	 SCS Total Energy          =    -283.9410680895690007 [Eh]
	-----------------------------------------------------------

  Dipole Moment: [D]
     X:    -3.1191      Y:    -1.4763      Z:     0.2794     Total:     3.4622

*** Psi4 exiting successfully. Buy a developer a beer!
