                               Psi4 1.3.2 release

  ==> Input File <==

--------------------------------------------------------------------------
#psi4
#
memory 32 gb

molecule  {
0 1
  O        1.6853730    -0.6083350    -0.1243790
  O        0.5719120     1.2863760     0.0695120
  N        0.6935937    -0.0386700     0.0383254
  C       -0.6264930    -0.7411460     0.1639780
  C       -1.8590060     0.0884880    -0.1216840
  H       -0.5100060    -1.5905650    -0.5103580
  H       -0.6039710    -1.1163170     1.1909310
  H       -1.9382960     0.9237250     0.5735710
  H       -1.8356290     0.4847820    -1.1384320
  H       -2.7433030    -0.5458310    -0.0161270
units angstrom
no_reorient  #important for SAPT in psi4, default
symmetry c1  #important for SAPT in psi4, default
}

set PROPERTIES_ORIGIN ["COM"]
properties('MP2/aug-cc-pvtz', properties = ['dipole'])
--------------------------------------------------------------------------

    Molecular point group: c1
  Charge       = 0
  Multiplicity = 1
  Basis Set: AUG-CC-PVTZ
    Blend: AUG-CC-PVTZ
  Basis Set: (AUG-CC-PVTZ AUX)
    Blend: AUG-CC-PVTZ-JKFIT

    Orbital Energies [Eh]
    ---------------------

    Doubly Occupied:

       1A    -20.643021     2A    -20.572805     3A    -15.846520
       4A    -11.315402     5A    -11.249121     6A     -1.629267
       7A     -1.358497     8A     -1.122497     9A     -0.972742
      10A     -0.844485    11A     -0.755636    12A     -0.740847
      13A     -0.726927    14A     -0.637008    15A     -0.594500
      16A     -0.561297    17A     -0.534933    18A     -0.490136
      19A     -0.471840    20A     -0.446723

  @DF-RHF Final Energy:  -282.79255581801806

   => Energetics <=

    Nuclear Repulsion Energy =            182.4532163203307675
    One-Electron Energy =                -747.4631319005560499
    Two-Electron Energy =                 282.2173597622072521
    Total Energy =                       -282.7925558180180587
  Basis Set: (AUG-CC-PVTZ AUX)
    Blend: AUG-CC-PVTZ-RI
    Molecular point group: c1

    Geometry (in Angstrom), charge = 0, multiplicity = 1:

       Center              X                  Y                   Z               Mass
    ------------   -----------------  -----------------  -----------------  -----------------
         O            1.574745345270    -0.616507190909    -0.127937116361    15.994914619570
         O            0.461284345270     1.278203809091     0.065953883639    15.994914619570
         N            0.582966045270    -0.046842190909     0.034767283639    14.003074004430
         C           -0.737120654730    -0.749318190909     0.160419883639    12.000000000000
         C           -1.969633654730     0.080315809091    -0.125242116361    12.000000000000
         H           -0.620633654730    -1.598737190909    -0.513916116361     1.007825032230
         H           -0.714598654730    -1.124489190909     1.187372883639     1.007825032230
         H           -2.048923654730     0.915552809091     0.570012883639     1.007825032230
         H           -1.946256654730     0.476609809091    -1.141990116361     1.007825032230
         H           -2.853930654730    -0.554003190909    -0.019685116361     1.007825032230

  Basis Set: AUG-CC-PVTZ
    Blend: AUG-CC-PVTZ
  Basis Set: (AUG-CC-PVTZ AUX)
    Blend: AUG-CC-PVTZ-JKFIT
	 Reference Energy          =    -282.7925558180180587 [Eh]
	 Singles Energy            =      -0.0000000000000000 [Eh]
	 Same-Spin Energy          =      -0.2796598646971068 [Eh]
	 Opposite-Spin Energy      =      -0.8661919527872928 [Eh]
	 Correlation Energy        =      -1.1458518174843997 [Eh]
	 Total Energy              =    -283.9384076355024717 [Eh]

	 ================> DF-SCS-MP2 Energies <==================
	-----------------------------------------------------------
	 SCS Same-Spin Scale       =       0.3333333333333333 [-]
	 SCS Opposite-Spin Scale   =       1.2000000000000000 [-]
	 SCS Same-Spin Energy      =      -0.0932199548990356 [Eh]
	 SCS Opposite-Spin Energy  =      -1.0394303433447514 [Eh]
	 SCS Correlation Energy    =      -1.1326502982437869 [Eh]
	 SCS Total Energy          =    -283.9252061162618475 [Eh]
	-----------------------------------------------------------

  Dipole Moment: [D]
     X:    -2.9836      Y:    -2.1506      Z:     0.2462     Total:     3.6861

*** Psi4 exiting successfully. Buy a developer a beer!
