                               Psi4 1.3.2 release

  ==> Input File <==

--------------------------------------------------------------------------
#psi4
#
memory 32 gb

molecule  {
0 1
  O        1.6369531    -0.6801371    -0.1221754
  O        0.5719120     1.2863760     0.0695120
  N        0.6408460     0.0479760     0.0122270
  C       -0.6264930    -0.7411460     0.1639780
  C       -1.8590060     0.0884880    -0.1216840
  H       -0.5100060    -1.5905650    -0.5103580
  H       -0.6039710    -1.1163170     1.1909310
  H       -1.9382960     0.9237250     0.5735710
  H       -1.8356290     0.4847820    -1.1384320
  H       -2.7433030    -0.5458310    -0.0161270
units angstrom
no_reorient  #important for SAPT in psi4, default
symmetry c1  #important for SAPT in psi4, default
}

set PROPERTIES_ORIGIN ["COM"]
properties('MP2/aug-cc-pvtz', properties = ['dipole'])
--------------------------------------------------------------------------

    Molecular point group: c1
  Charge       = 0
  Multiplicity = 1
  Basis Set: AUG-CC-PVTZ
    Blend: AUG-CC-PVTZ
  Basis Set: (AUG-CC-PVTZ AUX)
    Blend: AUG-CC-PVTZ-JKFIT

    Orbital Energies [Eh]
    ---------------------

    Doubly Occupied:

       1A    -20.615233     2A    -20.609824     3A    -15.850936
       4A    -11.310850     5A    -11.248204     6A     -1.588440
       7A     -1.397361     8A     -1.120067     9A     -0.966543
      10A     -0.842363    11A     -0.749502    12A     -0.733003
      13A     -0.722563    14A     -0.631694    15A     -0.591819
      16A     -0.561352    17A     -0.535857    18A     -0.501370
      19A     -0.483640    20A     -0.457152

  @DF-RHF Final Energy:  -282.80403900489330

   => Energetics <=

    Nuclear Repulsion Energy =            182.6585138335753697
    One-Electron Energy =                -747.8895569414825104
    Two-Electron Energy =                 282.4270041030138145
    Total Energy =                       -282.8040390048932977
  Basis Set: (AUG-CC-PVTZ AUX)
    Blend: AUG-CC-PVTZ-RI
    Molecular point group: c1

    Geometry (in Angstrom), charge = 0, multiplicity = 1:

       Center              X                  Y                   Z               Mass
    ------------   -----------------  -----------------  -----------------  -----------------
         O            1.546491528278    -0.689173480410    -0.121332576659    15.994914619570
         O            0.481450428278     1.277339619590     0.070354823341    15.994914619570
         N            0.550384428278     0.038939619590     0.013069823341    14.003074004430
         C           -0.716954571722    -0.750182380410     0.164820823341    12.000000000000
         C           -1.949467571722     0.079451619590    -0.120841176659    12.000000000000
         H           -0.600467571722    -1.599601380410    -0.509515176659     1.007825032230
         H           -0.694432571722    -1.125353380410     1.191773823341     1.007825032230
         H           -2.028757571722     0.914688619590     0.574413823341     1.007825032230
         H           -1.926090571722     0.475745619590    -1.137589176659     1.007825032230
         H           -2.833764571722    -0.554867380410    -0.015284176659     1.007825032230

  Basis Set: AUG-CC-PVTZ
    Blend: AUG-CC-PVTZ
  Basis Set: (AUG-CC-PVTZ AUX)
    Blend: AUG-CC-PVTZ-JKFIT
	 Reference Energy          =    -282.8040390048932977 [Eh]
	 Singles Energy            =      -0.0000000000000000 [Eh]
	 Same-Spin Energy          =      -0.2812687543086257 [Eh]
	 Opposite-Spin Energy      =      -0.8693951945482552 [Eh]
	 Correlation Energy        =      -1.1506639488568808 [Eh]
	 Total Energy              =    -283.9547029537501999 [Eh]

	 ================> DF-SCS-MP2 Energies <==================
	-----------------------------------------------------------
	 SCS Same-Spin Scale       =       0.3333333333333333 [-]
	 SCS Opposite-Spin Scale   =       1.2000000000000000 [-]
	 SCS Same-Spin Energy      =      -0.0937562514362086 [Eh]
	 SCS Opposite-Spin Energy  =      -1.0432742334579062 [Eh]
	 SCS Correlation Energy    =      -1.1370304848941148 [Eh]
	 SCS Total Energy          =    -283.9410694897874237 [Eh]
	-----------------------------------------------------------

  Dipole Moment: [D]
     X:    -3.1189      Y:    -1.4764      Z:     0.2826     Total:     3.4622

*** Psi4 exiting successfully. Buy a developer a beer!
