                               Psi4 1.3.2 release

  ==> Input File <==

--------------------------------------------------------------------------
#psi4
#
memory 32 gb

molecule  {
0 1
  O        1.6853730    -0.6083350    -0.1243790
  O        0.5719120     1.2863760     0.0695120
  N        0.5566877     0.1008555     0.0232334
  C       -0.6264930    -0.7411460     0.1639780
  C       -1.8590060     0.0884880    -0.1216840
  H       -0.5100060    -1.5905650    -0.5103580
  H       -0.6039710    -1.1163170     1.1909310
  H       -1.9382960     0.9237250     0.5735710
  H       -1.8356290     0.4847820    -1.1384320
  H       -2.7433030    -0.5458310    -0.0161270
units angstrom
no_reorient  #important for SAPT in psi4, default
symmetry c1  #important for SAPT in psi4, default
}

set PROPERTIES_ORIGIN ["COM"]
properties('MP2/aug-cc-pvtz', properties = ['dipole'])
--------------------------------------------------------------------------

    Molecular point group: c1
  Charge       = 0
  Multiplicity = 1
  Basis Set: AUG-CC-PVTZ
    Blend: AUG-CC-PVTZ
  Basis Set: (AUG-CC-PVTZ AUX)
    Blend: AUG-CC-PVTZ-JKFIT

    Orbital Energies [Eh]
    ---------------------

    Doubly Occupied:

       1A    -20.643544     2A    -20.573780     3A    -15.847594
       4A    -11.316149     5A    -11.253663     6A     -1.605281
       7A     -1.348001     8A     -1.141514     9A     -0.975007
      10A     -0.847069    11A     -0.760314    12A     -0.736014
      13A     -0.717761    14A     -0.632828    15A     -0.590372
      16A     -0.569135    17A     -0.543438    18A     -0.500128
      19A     -0.470263    20A     -0.441494

  @DF-RHF Final Energy:  -282.78912464239778

   => Energetics <=

    Nuclear Repulsion Energy =            182.6954642867729035
    One-Electron Energy =                -747.9424800804590632
    Two-Electron Energy =                 282.4578911512883792
    Total Energy =                       -282.7891246423977805
  Basis Set: (AUG-CC-PVTZ AUX)
    Blend: AUG-CC-PVTZ-RI
    Molecular point group: c1

    Geometry (in Angstrom), charge = 0, multiplicity = 1:

       Center              X                  Y                   Z               Mass
    ------------   -----------------  -----------------  -----------------  -----------------
         O            1.600295832047    -0.642546549614    -0.125120527267    15.994914619570
         O            0.486834832047     1.252164450386     0.068770472733    15.994914619570
         N            0.471610532047     0.066643950386     0.022491872733    14.003074004430
         C           -0.711570167953    -0.775357549614     0.163236472733    12.000000000000
         C           -1.944083167953     0.054276450386    -0.122425527267    12.000000000000
         H           -0.595083167953    -1.624776549614    -0.511099527267     1.007825032230
         H           -0.689048167953    -1.150528549614     1.190189472733     1.007825032230
         H           -2.023373167953     0.889513450386     0.572829472733     1.007825032230
         H           -1.920706167953     0.450570450386    -1.139173527267     1.007825032230
         H           -2.828380167953    -0.580042549614    -0.016868527267     1.007825032230

  Basis Set: AUG-CC-PVTZ
    Blend: AUG-CC-PVTZ
  Basis Set: (AUG-CC-PVTZ AUX)
    Blend: AUG-CC-PVTZ-JKFIT
	 Reference Energy          =    -282.7891246423977805 [Eh]
	 Singles Energy            =      -0.0000000000000000 [Eh]
	 Same-Spin Energy          =      -0.2812077560139269 [Eh]
	 Opposite-Spin Energy      =      -0.8696553995670291 [Eh]
	 Correlation Energy        =      -1.1508631555809561 [Eh]
	 Total Energy              =    -283.9399877979787448 [Eh]

	 ================> DF-SCS-MP2 Energies <==================
	-----------------------------------------------------------
	 SCS Same-Spin Scale       =       0.3333333333333333 [-]
	 SCS Opposite-Spin Scale   =       1.2000000000000000 [-]
	 SCS Same-Spin Energy      =      -0.0937359186713090 [Eh]
	 SCS Opposite-Spin Energy  =      -1.0435864794804348 [Eh]
	 SCS Correlation Energy    =      -1.1373223981517437 [Eh]
	 SCS Total Energy          =    -283.9264470405495331 [Eh]
	-----------------------------------------------------------

  Dipole Moment: [D]
     X:    -3.7241      Y:    -1.2697      Z:     0.3601     Total:     3.9510

*** Psi4 exiting successfully. Buy a developer a beer!
