                               Psi4 1.3.2 release

  ==> Input File <==

--------------------------------------------------------------------------
#psi4
#
memory 32 gb

molecule  {
0 1
  O        1.6853730    -0.6083350    -0.1243790
  O        0.5719120     1.2863760     0.0695120
  N        0.6266836     0.0690529     0.0058130
  C       -0.6264930    -0.7411460     0.1639780
  C       -1.8590060     0.0884880    -0.1216840
  H       -0.5100060    -1.5905650    -0.5103580
  H       -0.6039710    -1.1163170     1.1909310
  H       -1.9382960     0.9237250     0.5735710
  H       -1.8356290     0.4847820    -1.1384320
  H       -2.7433030    -0.5458310    -0.0161270
units angstrom
no_reorient  #important for SAPT in psi4, default
symmetry c1  #important for SAPT in psi4, default
}

set PROPERTIES_ORIGIN ["COM"]
properties('MP2/aug-cc-pvtz', properties = ['dipole'])
--------------------------------------------------------------------------

    Molecular point group: c1
  Charge       = 0
  Multiplicity = 1
  Basis Set: AUG-CC-PVTZ
    Blend: AUG-CC-PVTZ
  Basis Set: (AUG-CC-PVTZ AUX)
    Blend: AUG-CC-PVTZ-JKFIT

    Orbital Energies [Eh]
    ---------------------

    Doubly Occupied:

       1A    -20.619464     2A    -20.597674     3A    -15.849113
       4A    -11.315095     5A    -11.250995     6A     -1.591074
       7A     -1.386296     8A     -1.125058     9A     -0.968588
      10A     -0.841741    11A     -0.751952    12A     -0.731913
      13A     -0.720099    14A     -0.633409    15A     -0.591474
      16A     -0.564549    17A     -0.538806    18A     -0.498745
      19A     -0.483858    20A     -0.451757

  @DF-RHF Final Energy:  -282.80535226227352

   => Energetics <=

    Nuclear Repulsion Energy =            182.5618801409520131
    One-Electron Energy =                -747.7111476301156472
    Two-Electron Energy =                 282.3439152268901466
    Total Energy =                       -282.8053522622735159
  Basis Set: (AUG-CC-PVTZ AUX)
    Blend: AUG-CC-PVTZ-RI
    Molecular point group: c1

    Geometry (in Angstrom), charge = 0, multiplicity = 1:

       Center              X                  Y                   Z               Mass
    ------------   -----------------  -----------------  -----------------  -----------------
         O            1.587232640387    -0.636611295420    -0.121869393644    15.994914619570
         O            0.473771640387     1.258099704580     0.072021606356    15.994914619570
         N            0.528543240387     0.040776604580     0.008322606356    14.003074004430
         C           -0.724633359613    -0.769422295420     0.166487606356    12.000000000000
         C           -1.957146359613     0.060211704580    -0.119174393644    12.000000000000
         H           -0.608146359613    -1.618841295420    -0.507848393644     1.007825032230
         H           -0.702111359613    -1.144593295420     1.193440606356     1.007825032230
         H           -2.036436359613     0.895448704580     0.576080606356     1.007825032230
         H           -1.933769359613     0.456505704580    -1.135922393644     1.007825032230
         H           -2.841443359613    -0.574107295420    -0.013617393644     1.007825032230

  Basis Set: AUG-CC-PVTZ
    Blend: AUG-CC-PVTZ
  Basis Set: (AUG-CC-PVTZ AUX)
    Blend: AUG-CC-PVTZ-JKFIT
	 Reference Energy          =    -282.8053522622735159 [Eh]
	 Singles Energy            =      -0.0000000000000000 [Eh]
	 Same-Spin Energy          =      -0.2809710915039134 [Eh]
	 Opposite-Spin Energy      =      -0.8688734056725149 [Eh]
	 Correlation Energy        =      -1.1498444971764283 [Eh]
	 Total Energy              =    -283.9551967594499615 [Eh]

	 ================> DF-SCS-MP2 Energies <==================
	-----------------------------------------------------------
	 SCS Same-Spin Scale       =       0.3333333333333333 [-]
	 SCS Opposite-Spin Scale   =       1.2000000000000000 [-]
	 SCS Same-Spin Energy      =      -0.0936570305013045 [Eh]
	 SCS Opposite-Spin Energy  =      -1.0426480868070178 [Eh]
	 SCS Correlation Energy    =      -1.1363051173083223 [Eh]
	 SCS Total Energy          =    -283.9416573795818408 [Eh]
	-----------------------------------------------------------

  Dipole Moment: [D]
     X:    -3.3481      Y:    -1.4860      Z:     0.3008     Total:     3.6754

*** Psi4 exiting successfully. Buy a developer a beer!
