                               Psi4 1.3.2 release

  ==> Input File <==

--------------------------------------------------------------------------
#psi4
#
memory 32 gb

molecule  {
0 1
  O        1.6853730    -0.6083350    -0.1243790
  O        0.5719120     1.2863760     0.0695120
  N        0.5502361     0.1706097    -0.0254957
  C       -0.6264930    -0.7411460     0.1639780
  C       -1.8590060     0.0884880    -0.1216840
  H       -0.5100060    -1.5905650    -0.5103580
  H       -0.6039710    -1.1163170     1.1909310
  H       -1.9382960     0.9237250     0.5735710
  H       -1.8356290     0.4847820    -1.1384320
  H       -2.7433030    -0.5458310    -0.0161270
units angstrom
no_reorient  #important for SAPT in psi4, default
symmetry c1  #important for SAPT in psi4, default
}

set PROPERTIES_ORIGIN ["COM"]
properties('MP2/aug-cc-pvtz', properties = ['dipole'])
--------------------------------------------------------------------------

    Molecular point group: c1
  Charge       = 0
  Multiplicity = 1
  Basis Set: AUG-CC-PVTZ
    Blend: AUG-CC-PVTZ
  Basis Set: (AUG-CC-PVTZ AUX)
    Blend: AUG-CC-PVTZ-JKFIT

    Orbital Energies [Eh]
    ---------------------

    Doubly Occupied:

       1A    -20.662503     2A    -20.553517     3A    -15.841805
       4A    -11.315512     5A    -11.252736     6A     -1.664211
       7A     -1.327339     8A     -1.128728     9A     -0.966268
      10A     -0.856369    11A     -0.778871    12A     -0.749384
      13A     -0.728061    14A     -0.643083    15A     -0.592785
      16A     -0.571184    17A     -0.544039    18A     -0.485034
      19A     -0.452810    20A     -0.436394

  @DF-RHF Final Energy:  -282.77427061815877

   => Energetics <=

    Nuclear Repulsion Energy =            183.0903271546401356
    One-Electron Energy =                -748.6279268786677221
    Two-Electron Energy =                 282.7633291058688201
    Total Energy =                       -282.7742706181587664
  Basis Set: (AUG-CC-PVTZ AUX)
    Blend: AUG-CC-PVTZ-RI
    Molecular point group: c1

    Geometry (in Angstrom), charge = 0, multiplicity = 1:

       Center              X                  Y                   Z               Mass
    ------------   -----------------  -----------------  -----------------  -----------------
         O            1.601499880960    -0.655564633298    -0.116026314996    15.994914619570
         O            0.488038880960     1.239146366702     0.077864685004    15.994914619570
         N            0.466362980960     0.123380066702    -0.017143014996    14.003074004430
         C           -0.710366119040    -0.788375633298     0.172330685004    12.000000000000
         C           -1.942879119040     0.041258366702    -0.113331314996    12.000000000000
         H           -0.593879119040    -1.637794633298    -0.502005314996     1.007825032230
         H           -0.687844119040    -1.163546633298     1.199283685004     1.007825032230
         H           -2.022169119040     0.876495366702     0.581923685004     1.007825032230
         H           -1.919502119040     0.437552366702    -1.130079314996     1.007825032230
         H           -2.827176119040    -0.593060633298    -0.007774314996     1.007825032230

  Basis Set: AUG-CC-PVTZ
    Blend: AUG-CC-PVTZ
  Basis Set: (AUG-CC-PVTZ AUX)
    Blend: AUG-CC-PVTZ-JKFIT
	 Reference Energy          =    -282.7742706181587664 [Eh]
	 Singles Energy            =      -0.0000000000000000 [Eh]
	 Same-Spin Energy          =      -0.2782875790138487 [Eh]
	 Opposite-Spin Energy      =      -0.8638206764631591 [Eh]
	 Correlation Energy        =      -1.1421082554770079 [Eh]
	 Total Energy              =    -283.9163788736357787 [Eh]

	 ================> DF-SCS-MP2 Energies <==================
	-----------------------------------------------------------
	 SCS Same-Spin Scale       =       0.3333333333333333 [-]
	 SCS Opposite-Spin Scale   =       1.2000000000000000 [-]
	 SCS Same-Spin Energy      =      -0.0927625263379496 [Eh]
	 SCS Opposite-Spin Energy  =      -1.0365848117557908 [Eh]
	 SCS Correlation Energy    =      -1.1293473380937402 [Eh]
	 SCS Total Energy          =    -283.9036179562525035 [Eh]
	-----------------------------------------------------------

  Dipole Moment: [D]
     X:    -3.9735      Y:    -0.7743      Z:     0.3912     Total:     4.0671

*** Psi4 exiting successfully. Buy a developer a beer!
