                               Psi4 1.3.2 release

  ==> Input File <==

--------------------------------------------------------------------------
#psi4
#
memory 32 gb

molecule  {
0 1
  O        1.6109076    -0.7147291    -0.1208273
  O        0.5719120     1.2863760     0.0695120
  N        0.6408460     0.0479760     0.0122270
  C       -0.6264930    -0.7411460     0.1639780
  C       -1.8590060     0.0884880    -0.1216840
  H       -0.5100060    -1.5905650    -0.5103580
  H       -0.6039710    -1.1163170     1.1909310
  H       -1.9382960     0.9237250     0.5735710
  H       -1.8356290     0.4847820    -1.1384320
  H       -2.7433030    -0.5458310    -0.0161270
units angstrom
no_reorient  #important for SAPT in psi4, default
symmetry c1  #important for SAPT in psi4, default
}

set PROPERTIES_ORIGIN ["COM"]
properties('MP2/aug-cc-pvtz', properties = ['dipole'])
--------------------------------------------------------------------------

    Molecular point group: c1
  Charge       = 0
  Multiplicity = 1
  Basis Set: AUG-CC-PVTZ
    Blend: AUG-CC-PVTZ
  Basis Set: (AUG-CC-PVTZ AUX)
    Blend: AUG-CC-PVTZ-JKFIT

    Orbital Energies [Eh]
    ---------------------

    Doubly Occupied:

       1A    -20.617743     2A    -20.611064     3A    -15.851584
       4A    -11.308705     5A    -11.246918     6A     -1.588657
       7A     -1.401276     8A     -1.117782     9A     -0.965127
      10A     -0.843371    11A     -0.749039    12A     -0.733706
      13A     -0.723704    14A     -0.630997    15A     -0.591687
      16A     -0.560406    17A     -0.534904    18A     -0.503777
      19A     -0.481122    20A     -0.459253

  @DF-RHF Final Energy:  -282.80167470687871

   => Energetics <=

    Nuclear Repulsion Energy =            182.7617796934410705
    One-Electron Energy =                -748.0852636210786386
    Two-Electron Energy =                 282.5218092207588256
    Total Energy =                       -282.8016747068787140
  Basis Set: (AUG-CC-PVTZ AUX)
    Blend: AUG-CC-PVTZ-RI
    Molecular point group: c1

    Geometry (in Angstrom), charge = 0, multiplicity = 1:

       Center              X                  Y                   Z               Mass
    ------------   -----------------  -----------------  -----------------  -----------------
         O            1.525998264537    -0.716391348346    -0.120271857193    15.994914619570
         O            0.487002664537     1.284713751654     0.070067442807    15.994914619570
         N            0.555936664537     0.046313751654     0.012782442807    14.003074004430
         C           -0.711402335463    -0.742808248346     0.164533442807    12.000000000000
         C           -1.943915335463     0.086825751654    -0.121128557193    12.000000000000
         H           -0.594915335463    -1.592227248346    -0.509802557193     1.007825032230
         H           -0.688880335463    -1.117979248346     1.191486442807     1.007825032230
         H           -2.023205335463     0.922062751654     0.574126442807     1.007825032230
         H           -1.920538335463     0.483119751654    -1.137876557193     1.007825032230
         H           -2.828212335463    -0.547493248346    -0.015571557193     1.007825032230

  Basis Set: AUG-CC-PVTZ
    Blend: AUG-CC-PVTZ
  Basis Set: (AUG-CC-PVTZ AUX)
    Blend: AUG-CC-PVTZ-JKFIT
	 Reference Energy          =    -282.8016747068787140 [Eh]
	 Singles Energy            =      -0.0000000000000000 [Eh]
	 Same-Spin Energy          =      -0.2814055352038367 [Eh]
	 Opposite-Spin Energy      =      -0.8696453215884490 [Eh]
	 Correlation Energy        =      -1.1510508567922857 [Eh]
	 Total Energy              =    -283.9527255636709810 [Eh]

	 ================> DF-SCS-MP2 Energies <==================
	-----------------------------------------------------------
	 SCS Same-Spin Scale       =       0.3333333333333333 [-]
	 SCS Opposite-Spin Scale   =       1.2000000000000000 [-]
	 SCS Same-Spin Energy      =      -0.0938018450679455 [Eh]
	 SCS Opposite-Spin Energy  =      -1.0435743859061388 [Eh]
	 SCS Correlation Energy    =      -1.1373762309740845 [Eh]
	 SCS Total Energy          =    -283.9390509378528122 [Eh]
	-----------------------------------------------------------

  Dipole Moment: [D]
     X:    -3.0381      Y:    -1.4191      Z:     0.2786     Total:     3.3648

*** Psi4 exiting successfully. Buy a developer a beer!
