                               Psi4 1.4a3.dev225

  ==> Input File <==

--------------------------------------------------------------------------
#psi4
#
memory 32 gb

molecule  {
0 1
  O        1.6854460    -0.6082710    -0.1241230
  O        0.5718390     1.2863960     0.0693880
  N        0.6408540     0.0479940     0.0121840
  C       -0.6095736    -0.7307144     0.1616145
  C       -1.8590430     0.0884940    -0.1214310
  H       -0.5100180    -1.5902840    -0.5111790
  H       -0.6037960    -1.1170010     1.1903640
  H       -1.9383190     0.9233440     0.5742920
  H       -1.8358000     0.4853590    -1.1379580
  H       -2.7432880    -0.5459410    -0.0161300
units angstrom
no_reorient  #important for SAPT in psi4, default
symmetry c1  #important for SAPT in psi4, default
}

set PROPERTIES_ORIGIN ["COM"]
properties('MP2/aug-cc-pvtz', properties = ['dipole'])
--------------------------------------------------------------------------

    Molecular point group: c1
  Charge       = 0
  Multiplicity = 1
  Basis Set: AUG-CC-PVTZ
    Blend: AUG-CC-PVTZ
  Basis Set: (AUG-CC-PVTZ AUX)
    Blend: AUG-CC-PVTZ-JKFIT

    Orbital Energies [Eh]
    ---------------------

    Doubly Occupied:

       1A    -20.610934     2A    -20.607625     3A    -15.850938
       4A    -11.314448     5A    -11.250710     6A     -1.590515
       7A     -1.390477     8A     -1.127031     9A     -0.971123
      10A     -0.839946    11A     -0.751926    12A     -0.733389
      13A     -0.721435    14A     -0.630609    15A     -0.591807
      16A     -0.559585    17A     -0.536091    18A     -0.497302
      19A     -0.490404    20A     -0.453380

  @DF-RHF Final Energy:  -282.80597340036132

   => Energetics <=

    Nuclear Repulsion Energy =            182.7629976421144136
    One-Electron Energy =                -748.0985910197199473
    Two-Electron Energy =                 282.5296199772441810
    Total Energy =                       -282.8059734003613244
  Basis Set: (AUG-CC-PVTZ AUX)
    Blend: AUG-CC-PVTZ-RI
    Molecular point group: c1

    Geometry (in Angstrom), charge = 0, multiplicity = 1:

       Center              X                  Y                   Z               Mass
    ------------   -----------------  -----------------  -----------------  -----------------
         O            1.581961231563    -0.634300067850    -0.122490370861    15.994914619570
         O            0.468354231563     1.260366932150     0.071020629139    15.994914619570
         N            0.537369231563     0.021964932150     0.013816629139    14.003074004430
         C           -0.713058368437    -0.756743467850     0.163247129139    12.000000000000
         C           -1.962527768437     0.062464932150    -0.119798370861    12.000000000000
         H           -0.613502768437    -1.616313067850    -0.509546370861     1.007825032230
         H           -0.707280768437    -1.143030067850     1.191996629139     1.007825032230
         H           -2.041803768437     0.897314932150     0.575924629139     1.007825032230
         H           -1.939284768437     0.459329932150    -1.136325370861     1.007825032230
         H           -2.846772768437    -0.571970067850    -0.014497370861     1.007825032230

  Basis Set: AUG-CC-PVTZ
    Blend: AUG-CC-PVTZ
  Basis Set: (AUG-CC-PVTZ AUX)
    Blend: AUG-CC-PVTZ-JKFIT
	 Reference Energy          =    -282.8059734003613244 [Eh]
	 Singles Energy            =      -0.0000000000000000 [Eh]
	 Same-Spin Energy          =      -0.2810925216567177 [Eh]
	 Opposite-Spin Energy      =      -0.8690287934008365 [Eh]
	 Correlation Energy        =      -1.1501213150575542 [Eh]
	 Total Energy              =    -283.9560947154188852 [Eh]

	 ================> DF-SCS-MP2 Energies <==================
	-----------------------------------------------------------
	 SCS Same-Spin Scale       =       0.3333333333333333 [-]
	 SCS Opposite-Spin Scale   =       1.2000000000000000 [-]
	 SCS Same-Spin Energy      =      -0.0936975072189059 [Eh]
	 SCS Opposite-Spin Energy  =      -1.0428345520810038 [Eh]
	 SCS Correlation Energy    =      -1.1365320592999097 [Eh]
	 SCS Total Energy          =    -283.9425054596612199 [Eh]
	-----------------------------------------------------------

  Dipole Moment: [D]
     X:    -3.2522      Y:    -1.5940      Z:     0.2903     Total:     3.6334

*** Psi4 exiting successfully. Buy a developer a beer!
