                               Psi4 1.4a3.dev225

  ==> Input File <==

--------------------------------------------------------------------------
#psi4
#
memory 32 gb

molecule  {
0 1
  O        1.6854460    -0.6082710    -0.1241230
  O        0.5718390     1.2863960     0.0693880
  N        0.6408540     0.0479940     0.0121840
  C       -0.5842380    -0.7149366     0.1585868
  C       -1.8590430     0.0884940    -0.1214310
  H       -0.5100180    -1.5902840    -0.5111790
  H       -0.6037960    -1.1170010     1.1903640
  H       -1.9383190     0.9233440     0.5742920
  H       -1.8358000     0.4853590    -1.1379580
  H       -2.7432880    -0.5459410    -0.0161300
units angstrom
no_reorient  #important for SAPT in psi4, default
symmetry c1  #important for SAPT in psi4, default
}

set PROPERTIES_ORIGIN ["COM"]
properties('MP2/aug-cc-pvtz', properties = ['dipole'])
--------------------------------------------------------------------------

    Molecular point group: c1
  Charge       = 0
  Multiplicity = 1
  Basis Set: AUG-CC-PVTZ
    Blend: AUG-CC-PVTZ
  Basis Set: (AUG-CC-PVTZ AUX)
    Blend: AUG-CC-PVTZ-JKFIT

    Orbital Energies [Eh]
    ---------------------

    Doubly Occupied:

       1A    -20.612058     2A    -20.608362     3A    -15.852875
       4A    -11.313675     5A    -11.251016     6A     -1.593966
       7A     -1.392303     8A     -1.131745     9A     -0.973695
      10A     -0.838914    11A     -0.754403    12A     -0.736000
      13A     -0.723572    14A     -0.626947    15A     -0.591336
      16A     -0.553999    17A     -0.533455    18A     -0.500231
      19A     -0.492624    20A     -0.454352

  @DF-RHF Final Energy:  -282.80414213349036

   => Energetics <=

    Nuclear Repulsion Energy =            183.1587986672757324
    One-Electron Energy =                -748.8548249102162799
    Two-Electron Energy =                 282.8918841094501886
    Total Energy =                       -282.8041421334903589
  Basis Set: (AUG-CC-PVTZ AUX)
    Blend: AUG-CC-PVTZ-RI
    Molecular point group: c1

    Geometry (in Angstrom), charge = 0, multiplicity = 1:

       Center              X                  Y                   Z               Mass
    ------------   -----------------  -----------------  -----------------  -----------------
         O            1.577909265937    -0.636823438256    -0.122006145648    15.994914619570
         O            0.464302265937     1.257843561744     0.071504854352    15.994914619570
         N            0.533317265937     0.019441561744     0.014300854352    14.003074004430
         C           -0.691774734063    -0.743489038256     0.160703654352    12.000000000000
         C           -1.966579734063     0.059941561744    -0.119314145648    12.000000000000
         H           -0.617554734063    -1.618836438256    -0.509062145648     1.007825032230
         H           -0.711332734063    -1.145553438256     1.192480854352     1.007825032230
         H           -2.045855734063     0.894791561744     0.576408854352     1.007825032230
         H           -1.943336734063     0.456806561744    -1.135841145648     1.007825032230
         H           -2.850824734063    -0.574493438256    -0.014013145648     1.007825032230

  Basis Set: AUG-CC-PVTZ
    Blend: AUG-CC-PVTZ
  Basis Set: (AUG-CC-PVTZ AUX)
    Blend: AUG-CC-PVTZ-JKFIT
	 Reference Energy          =    -282.8041421334903589 [Eh]
	 Singles Energy            =      -0.0000000000000000 [Eh]
	 Same-Spin Energy          =      -0.2812178399746182 [Eh]
	 Opposite-Spin Energy      =      -0.8691281598154844 [Eh]
	 Correlation Energy        =      -1.1503459997901027 [Eh]
	 Total Energy              =    -283.9544881332804493 [Eh]

	 ================> DF-SCS-MP2 Energies <==================
	-----------------------------------------------------------
	 SCS Same-Spin Scale       =       0.3333333333333333 [-]
	 SCS Opposite-Spin Scale   =       1.2000000000000000 [-]
	 SCS Same-Spin Energy      =      -0.0937392799915394 [Eh]
	 SCS Opposite-Spin Energy  =      -1.0429537917785812 [Eh]
	 SCS Correlation Energy    =      -1.1366930717701205 [Eh]
	 SCS Total Energy          =    -283.9408352052604982 [Eh]
	-----------------------------------------------------------

  Dipole Moment: [D]
     X:    -3.2275      Y:    -1.5918      Z:     0.2921     Total:     3.6105

*** Psi4 exiting successfully. Buy a developer a beer!
