                               Psi4 1.3.2 release

  ==> Input File <==

--------------------------------------------------------------------------
#psi4
#
memory 32 gb

molecule  {
0 1
  O        1.7478449    -0.4946329    -0.1311991
  O        0.5719120     1.2863760     0.0695120
  N        0.6408460     0.0479760     0.0122270
  C       -0.6264930    -0.7411460     0.1639780
  C       -1.8590060     0.0884880    -0.1216840
  H       -0.5100060    -1.5905650    -0.5103580
  H       -0.6039710    -1.1163170     1.1909310
  H       -1.9382960     0.9237250     0.5735710
  H       -1.8356290     0.4847820    -1.1384320
  H       -2.7433030    -0.5458310    -0.0161270
units angstrom
no_reorient  #important for SAPT in psi4, default
symmetry c1  #important for SAPT in psi4, default
}

set PROPERTIES_ORIGIN ["COM"]
properties('MP2/aug-cc-pvtz', properties = ['dipole'])
--------------------------------------------------------------------------

    Molecular point group: c1
  Charge       = 0
  Multiplicity = 1
  Basis Set: AUG-CC-PVTZ
    Blend: AUG-CC-PVTZ
  Basis Set: (AUG-CC-PVTZ AUX)
    Blend: AUG-CC-PVTZ-JKFIT

    Orbital Energies [Eh]
    ---------------------

    Doubly Occupied:

       1A    -20.601984     2A    -20.601922     3A    -15.846586
       4A    -11.321285     5A    -11.253822     6A     -1.588526
       7A     -1.375947     8A     -1.130492     9A     -0.973099
      10A     -0.838474    11A     -0.750574    12A     -0.730184
      13A     -0.715230    14A     -0.634715    15A     -0.592972
      16A     -0.566330    17A     -0.540533    18A     -0.495851
      19A     -0.483059    20A     -0.445279

  @DF-RHF Final Energy:  -282.80360051958388

   => Energetics <=

    Nuclear Repulsion Energy =            182.4088486849616118
    One-Electron Energy =                -747.4511741801405833
    Two-Electron Energy =                 282.2387249755950620
    Total Energy =                       -282.8036005195838811
  Basis Set: (AUG-CC-PVTZ AUX)
    Blend: AUG-CC-PVTZ-RI
    Molecular point group: c1

    Geometry (in Angstrom), charge = 0, multiplicity = 1:

       Center              X                  Y                   Z               Mass
    ------------   -----------------  -----------------  -----------------  -----------------
         O            1.633744025026    -0.543214044208    -0.128432653985    15.994914619570
         O            0.457811125026     1.237794855792     0.072278446015    15.994914619570
         N            0.526745125026    -0.000605144208     0.014993446015    14.003074004430
         C           -0.740593874974    -0.789727144208     0.166744446015    12.000000000000
         C           -1.973106874974     0.039906855792    -0.118917553985    12.000000000000
         H           -0.624106874974    -1.639146144208    -0.507591553985     1.007825032230
         H           -0.718071874974    -1.164898144208     1.193697446015     1.007825032230
         H           -2.052396874974     0.875143855792     0.576337446015     1.007825032230
         H           -1.949729874974     0.436200855792    -1.135665553985     1.007825032230
         H           -2.857403874974    -0.594412144208    -0.013360553985     1.007825032230

  Basis Set: AUG-CC-PVTZ
    Blend: AUG-CC-PVTZ
  Basis Set: (AUG-CC-PVTZ AUX)
    Blend: AUG-CC-PVTZ-JKFIT
	 Reference Energy          =    -282.8036005195838811 [Eh]
	 Singles Energy            =      -0.0000000000000000 [Eh]
	 Same-Spin Energy          =      -0.2808358521200343 [Eh]
	 Opposite-Spin Energy      =      -0.8687359993790997 [Eh]
	 Correlation Energy        =      -1.1495718514991340 [Eh]
	 Total Energy              =    -283.9531723710830420 [Eh]

	 ================> DF-SCS-MP2 Energies <==================
	-----------------------------------------------------------
	 SCS Same-Spin Scale       =       0.3333333333333333 [-]
	 SCS Opposite-Spin Scale   =       1.2000000000000000 [-]
	 SCS Same-Spin Energy      =      -0.0936119507066781 [Eh]
	 SCS Opposite-Spin Energy  =      -1.0424831992549197 [Eh]
	 SCS Correlation Energy    =      -1.1360951499615979 [Eh]
	 SCS Total Energy          =    -283.9396956695454719 [Eh]
	-----------------------------------------------------------

  Dipole Moment: [D]
     X:    -3.4779      Y:    -1.7851      Z:     0.3042     Total:     3.9211

*** Psi4 exiting successfully. Buy a developer a beer!
