                               Psi4 1.3.2 release

  ==> Input File <==

--------------------------------------------------------------------------
#psi4
#
memory 32 gb

molecule  {
0 1
  O        1.6853730    -0.6083350    -0.1243790
  O        0.5719120     1.2863760     0.0695120
  N        0.6408460     0.0479760     0.0122270
  C       -0.7109468    -0.7937321     0.1740905
  C       -1.8590060     0.0884880    -0.1216840
  H       -0.5100060    -1.5905650    -0.5103580
  H       -0.6039710    -1.1163170     1.1909310
  H       -1.9382960     0.9237250     0.5735710
  H       -1.8356290     0.4847820    -1.1384320
  H       -2.7433030    -0.5458310    -0.0161270
units angstrom
no_reorient  #important for SAPT in psi4, default
symmetry c1  #important for SAPT in psi4, default
}

set PROPERTIES_ORIGIN ["COM"]
properties('MP2/aug-cc-pvtz', properties = ['dipole'])
--------------------------------------------------------------------------

    Molecular point group: c1
  Charge       = 0
  Multiplicity = 1
  Basis Set: AUG-CC-PVTZ
    Blend: AUG-CC-PVTZ
  Basis Set: (AUG-CC-PVTZ AUX)
    Blend: AUG-CC-PVTZ-JKFIT

    Orbital Energies [Eh]
    ---------------------

    Doubly Occupied:

       1A    -20.604611     2A    -20.602532     3A    -15.839123
       4A    -11.320060     5A    -11.251271     6A     -1.576869
       7A     -1.381821     8A     -1.117232     9A     -0.958960
      10A     -0.843179    11A     -0.740797    12A     -0.724457
      13A     -0.712355    14A     -0.643250    15A     -0.596816
      16A     -0.579974    17A     -0.545251    18A     -0.491300
      19A     -0.468824    20A     -0.448295

  @DF-RHF Final Energy:  -282.79916987249078

   => Energetics <=

    Nuclear Repulsion Energy =            181.2756034475749232
    One-Electron Energy =                -745.2555957734588219
    Two-Electron Energy =                 281.1808224533931480
    Total Energy =                       -282.7991698724907792
  Basis Set: (AUG-CC-PVTZ AUX)
    Blend: AUG-CC-PVTZ-RI
    Molecular point group: c1

    Geometry (in Angstrom), charge = 0, multiplicity = 1:

       Center              X                  Y                   Z               Mass
    ------------   -----------------  -----------------  -----------------  -----------------
         O            1.598096380607    -0.624267572210    -0.124683734681    15.994914619570
         O            0.484635380607     1.270443427790     0.069207265319    15.994914619570
         N            0.553569380607     0.032043427790     0.011922265319    14.003074004430
         C           -0.798223419393    -0.809664672210     0.173785765319    12.000000000000
         C           -1.946282619393     0.072555427790    -0.121988734681    12.000000000000
         H           -0.597282619393    -1.606497572210    -0.510662734681     1.007825032230
         H           -0.691247619393    -1.132249572210     1.190626265319     1.007825032230
         H           -2.025572619393     0.907792427790     0.573266265319     1.007825032230
         H           -1.922905619393     0.468849427790    -1.138736734681     1.007825032230
         H           -2.830579619393    -0.561763572210    -0.016431734681     1.007825032230

  Basis Set: AUG-CC-PVTZ
    Blend: AUG-CC-PVTZ
  Basis Set: (AUG-CC-PVTZ AUX)
    Blend: AUG-CC-PVTZ-JKFIT
	 Reference Energy          =    -282.7991698724907792 [Eh]
	 Singles Energy            =      -0.0000000000000000 [Eh]
	 Same-Spin Energy          =      -0.2811934765006978 [Eh]
	 Opposite-Spin Energy      =      -0.8694431636081522 [Eh]
	 Correlation Energy        =      -1.1506366401088499 [Eh]
	 Total Energy              =    -283.9498065125996504 [Eh]

	 ================> DF-SCS-MP2 Energies <==================
	-----------------------------------------------------------
	 SCS Same-Spin Scale       =       0.3333333333333333 [-]
	 SCS Opposite-Spin Scale   =       1.2000000000000000 [-]
	 SCS Same-Spin Energy      =      -0.0937311588335659 [Eh]
	 SCS Opposite-Spin Energy  =      -1.0433317963297826 [Eh]
	 SCS Correlation Energy    =      -1.1370629551633484 [Eh]
	 SCS Total Energy          =    -283.9362328276541234 [Eh]
	-----------------------------------------------------------

  Dipole Moment: [D]
     X:    -3.3950      Y:    -1.6125      Z:     0.2863     Total:     3.7693

*** Psi4 exiting successfully. Buy a developer a beer!
