                               Psi4 1.3.2 release

  ==> Input File <==

--------------------------------------------------------------------------
#psi4
#
memory 32 gb

molecule  {
0 1
  O        0.0787650     2.1311770    -0.2164080
  N        0.1333340    -0.1752640    -0.2334700
  C        1.5484140    -0.1005230    -0.5118890
  C        2.4562500     0.4082890     0.5600040
  C        2.4806620    -1.0501060     0.1884540
  C       -0.5399690     1.0666720    -0.0960400
  C       -0.5048870    -1.3883940    -0.2151950
  C       -1.9528000     0.9321040     0.1889810
  C       -1.8475120    -1.4809310     0.0203080
  C       -2.5801750    -0.2831070     0.2328620
  H        1.7757480     0.1884380    -1.5349100
  H        1.9894860     0.6779030     1.5004770
  H        3.2759230     1.0506550     0.2582410
  H        3.3211070    -1.4385120    -0.3773670
  H        2.0523810    -1.7508080     0.8974130
  H        0.1298880    -2.2506920    -0.3908910
  H       -2.4932330     1.8615660     0.3382590
  H       -2.3266410    -2.4532080     0.0346430
  H       -3.6573682    -0.3289196     0.3857686
units angstrom
no_reorient  #important for SAPT in psi4, default
symmetry c1  #important for SAPT in psi4, default
}

set PROPERTIES_ORIGIN ["COM"]
properties('MP2/aug-cc-pvtz', properties = ['dipole'])
--------------------------------------------------------------------------

    Molecular point group: c1
  Charge       = 0
  Multiplicity = 1
  Basis Set: AUG-CC-PVTZ
    Blend: AUG-CC-PVTZ
  Basis Set: (AUG-CC-PVTZ AUX)
    Blend: AUG-CC-PVTZ-JKFIT

    Orbital Energies [Eh]
    ---------------------

    Doubly Occupied:

       1A    -20.507238     2A    -15.627340     3A    -11.350008
       4A    -11.307078     5A    -11.279283     6A    -11.270539
       7A    -11.243222     8A    -11.239338     9A    -11.236989
      10A    -11.234087    11A     -1.370106    12A     -1.283052
      13A     -1.156128    14A     -1.095830    15A     -1.024618
      16A     -0.901655    17A     -0.868897    18A     -0.829495
      19A     -0.810782    20A     -0.725880    21A     -0.697639
      22A     -0.682192    23A     -0.663692    24A     -0.640305
      25A     -0.606249    26A     -0.594424    27A     -0.576657
      28A     -0.546305    29A     -0.535419    30A     -0.526180
      31A     -0.480641    32A     -0.455714    33A     -0.440089
      34A     -0.420018    35A     -0.400044    36A     -0.308830

  @DF-RHF Final Energy:  -437.61060424665209

   => Energetics <=

    Nuclear Repulsion Energy =            508.2009908120571708
    One-Electron Energy =               -1601.7512667525656980
    Two-Electron Energy =                 655.9396716938564396
    Total Energy =                       -437.6106042466520876
  Basis Set: (AUG-CC-PVTZ AUX)
    Blend: AUG-CC-PVTZ-RI
    Molecular point group: c1

    Geometry (in Angstrom), charge = 0, multiplicity = 1:

       Center              X                  Y                   Z               Mass
    ------------   -----------------  -----------------  -----------------  -----------------
         O            0.108780612693     2.098575309299    -0.207519371140    15.994914619570
         N            0.163349612693    -0.207865690701    -0.224581371140    14.003074004430
         C            1.578429612693    -0.133124690701    -0.503000371140    12.000000000000
         C            2.486265612693     0.375687309299     0.568892628860    12.000000000000
         C            2.510677612693    -1.082707690701     0.197342628860    12.000000000000
         C           -0.509953387307     1.034070309299    -0.087151371140    12.000000000000
         C           -0.474871387307    -1.420995690701    -0.206306371140    12.000000000000
         C           -1.922784387307     0.899502309299     0.197869628860    12.000000000000
         C           -1.817496387307    -1.513532690701     0.029196628860    12.000000000000
         C           -2.550159387307    -0.315708690701     0.241750628860    12.000000000000
         H            1.805763612693     0.155836309299    -1.526021371140     1.007825032230
         H            2.019501612693     0.645301309299     1.509365628860     1.007825032230
         H            3.305938612693     1.018053309299     0.267129628860     1.007825032230
         H            3.351122612693    -1.471113690701    -0.368478371140     1.007825032230
         H            2.082396612693    -1.783409690701     0.906301628860     1.007825032230
         H            0.159903612693    -2.283293690701    -0.382002371140     1.007825032230
         H           -2.463217387307     1.828964309299     0.347147628860     1.007825032230
         H           -2.296625387307    -2.485809690701     0.043531628860     1.007825032230
         H           -3.627352587307    -0.361521290701     0.394657228860     1.007825032230

  Basis Set: AUG-CC-PVTZ
    Blend: AUG-CC-PVTZ
  Basis Set: (AUG-CC-PVTZ AUX)
    Blend: AUG-CC-PVTZ-JKFIT
	 Reference Energy          =    -437.6106042466520876 [Eh]
	 Singles Energy            =      -0.0000000000000000 [Eh]
	 Same-Spin Energy          =      -0.4677526180226261 [Eh]
	 Opposite-Spin Energy      =      -1.4646495986613015 [Eh]
	 Correlation Energy        =      -1.9324022166839276 [Eh]
	 Total Energy              =    -439.5430064633360416 [Eh]

	 ================> DF-SCS-MP2 Energies <==================
	-----------------------------------------------------------
	 SCS Same-Spin Scale       =       0.3333333333333333 [-]
	 SCS Opposite-Spin Scale   =       1.2000000000000000 [-]
	 SCS Same-Spin Energy      =      -0.1559175393408754 [Eh]
	 SCS Opposite-Spin Energy  =      -1.7575795183935619 [Eh]
	 SCS Correlation Energy    =      -1.9134970577344372 [Eh]
	 SCS Total Energy          =    -439.5241013043865337 [Eh]
	-----------------------------------------------------------

  Dipole Moment: [D]
     X:    -0.0169      Y:    -3.7911      Z:     0.1269     Total:     3.7933

*** Psi4 exiting successfully. Buy a developer a beer!
