                               Psi4 1.3.2 release

  ==> Input File <==

--------------------------------------------------------------------------
#psi4
#
memory 32 gb

molecule  {
0 1
  O        0.0787650     2.1311770    -0.2164080
  N        0.1333340    -0.1752640    -0.2334700
  C        1.5484140    -0.1005230    -0.5118890
  C        2.4562500     0.4082890     0.5600040
  C        2.4806620    -1.0501060     0.1884540
  C       -0.5399690     1.0666720    -0.0960400
  C       -0.5048870    -1.3883940    -0.2151950
  C       -1.9528000     0.9321040     0.1889810
  C       -1.8475120    -1.4809310     0.0203080
  C       -2.5801750    -0.2831070     0.2328620
  H        1.7757480     0.1884380    -1.5349100
  H        1.9894860     0.6779030     1.5004770
  H        3.2759230     1.0506550     0.2582410
  H        3.3211070    -1.4385120    -0.3773670
  H        2.0523810    -1.7508080     0.8974130
  H        0.1298880    -2.2506920    -0.3908910
  H       -2.5322180     1.8727708     0.1424156
  H       -2.3266410    -2.4532080     0.0346430
  H       -3.6480090    -0.3319380     0.4347920
units angstrom
no_reorient  #important for SAPT in psi4, default
symmetry c1  #important for SAPT in psi4, default
}

set PROPERTIES_ORIGIN ["COM"]
properties('MP2/aug-cc-pvtz', properties = ['dipole'])
--------------------------------------------------------------------------

    Molecular point group: c1
  Charge       = 0
  Multiplicity = 1
  Basis Set: AUG-CC-PVTZ
    Blend: AUG-CC-PVTZ
  Basis Set: (AUG-CC-PVTZ AUX)
    Blend: AUG-CC-PVTZ-JKFIT

    Orbital Energies [Eh]
    ---------------------

    Doubly Occupied:

       1A    -20.507145     2A    -15.627545     3A    -11.349940
       4A    -11.307652     5A    -11.279361     6A    -11.271050
       7A    -11.243325     8A    -11.239595     9A    -11.238399
      10A    -11.234112    11A     -1.370075    12A     -1.283190
      13A     -1.156246    14A     -1.095902    15A     -1.024412
      16A     -0.901661    17A     -0.868586    18A     -0.829300
      19A     -0.810690    20A     -0.725366    21A     -0.697746
      22A     -0.682396    23A     -0.663767    24A     -0.637558
      25A     -0.606172    26A     -0.594337    27A     -0.576969
      28A     -0.546778    29A     -0.532636    30A     -0.526042
      31A     -0.480638    32A     -0.455122    33A     -0.439668
      34A     -0.421667    35A     -0.399278    36A     -0.308929

  @DF-RHF Final Energy:  -437.60815735418043

   => Energetics <=

    Nuclear Repulsion Energy =            508.1176521150850931
    One-Electron Energy =               -1601.5851090152755205
    Two-Electron Energy =                 655.8592995460099928
    Total Energy =                       -437.6081573541804346
  Basis Set: (AUG-CC-PVTZ AUX)
    Blend: AUG-CC-PVTZ-RI
    Molecular point group: c1

    Geometry (in Angstrom), charge = 0, multiplicity = 1:

       Center              X                  Y                   Z               Mass
    ------------   -----------------  -----------------  -----------------  -----------------
         O            0.109001668245     2.098514225744    -0.206423860598    15.994914619570
         N            0.163570668245    -0.207926774256    -0.223485860598    14.003074004430
         C            1.578650668245    -0.133185774256    -0.501904860598    12.000000000000
         C            2.486486668245     0.375626225744     0.569988139402    12.000000000000
         C            2.510898668245    -1.082768774256     0.198438139402    12.000000000000
         C           -0.509732331755     1.034009225744    -0.086055860598    12.000000000000
         C           -0.474650331755    -1.421056774256    -0.205210860598    12.000000000000
         C           -1.922563331755     0.899441225744     0.198965139402    12.000000000000
         C           -1.817275331755    -1.513593774256     0.030292139402    12.000000000000
         C           -2.549938331755    -0.315769774256     0.242846139402    12.000000000000
         H            1.805984668245     0.155775225744    -1.524925860598     1.007825032230
         H            2.019722668245     0.645240225744     1.510461139402     1.007825032230
         H            3.306159668245     1.017992225744     0.268225139402     1.007825032230
         H            3.351343668245    -1.471174774256    -0.367382860598     1.007825032230
         H            2.082617668245    -1.783470774256     0.907397139402     1.007825032230
         H            0.160124668245    -2.283354774256    -0.380906860598     1.007825032230
         H           -2.501981331755     1.840108025744     0.152399739402     1.007825032230
         H           -2.296404331755    -2.485870774256     0.044627139402     1.007825032230
         H           -3.617772331755    -0.364600774256     0.444776139402     1.007825032230

  Basis Set: AUG-CC-PVTZ
    Blend: AUG-CC-PVTZ
  Basis Set: (AUG-CC-PVTZ AUX)
    Blend: AUG-CC-PVTZ-JKFIT
	 Reference Energy          =    -437.6081573541804346 [Eh]
	 Singles Energy            =      -0.0000000000000000 [Eh]
	 Same-Spin Energy          =      -0.4678572403371218 [Eh]
	 Opposite-Spin Energy      =      -1.4648789703397820 [Eh]
	 Correlation Energy        =      -1.9327362106769037 [Eh]
	 Total Energy              =    -439.5408935648573561 [Eh]

	 ================> DF-SCS-MP2 Energies <==================
	-----------------------------------------------------------
	 SCS Same-Spin Scale       =       0.3333333333333333 [-]
	 SCS Opposite-Spin Scale   =       1.2000000000000000 [-]
	 SCS Same-Spin Energy      =      -0.1559524134457073 [Eh]
	 SCS Opposite-Spin Energy  =      -1.7578547644077382 [Eh]
	 SCS Correlation Energy    =      -1.9138071778534456 [Eh]
	 SCS Total Energy          =    -439.5219645320339055 [Eh]
	-----------------------------------------------------------

  Dipole Moment: [D]
     X:    -0.0210      Y:    -3.8159      Z:     0.0312     Total:     3.8160

*** Psi4 exiting successfully. Buy a developer a beer!
