                               Psi4 1.3.2 release

  ==> Input File <==

--------------------------------------------------------------------------
#psi4
#
memory 32 gb

molecule  {
0 1
  O        0.0787650     2.1311770    -0.2164080
  N        0.1333340    -0.1752640    -0.2334700
  C        1.5484140    -0.1005230    -0.5118890
  C        2.4562500     0.4082890     0.5600040
  C        2.4806620    -1.0501060     0.1884540
  C       -0.5399690     1.0666720    -0.0960400
  C       -0.5048870    -1.3883940    -0.2151950
  C       -1.9528000     0.9321040     0.1889810
  C       -1.8475120    -1.4809310     0.0203080
  C       -2.5801750    -0.2831070     0.2328620
  H        1.7757480     0.1884380    -1.5349100
  H        1.9894860     0.6779030     1.5004770
  H        3.2759230     1.0506550     0.2582410
  H        3.3211070    -1.4385120    -0.3773670
  H        2.0523810    -1.7508080     0.8974130
  H        0.1824022    -2.2731182    -0.0963756
  H       -2.4932330     1.8615660     0.3382590
  H       -2.3266410    -2.4532080     0.0346430
  H       -3.6480090    -0.3319380     0.4347920
units angstrom
no_reorient  #important for SAPT in psi4, default
symmetry c1  #important for SAPT in psi4, default
}

set PROPERTIES_ORIGIN ["COM"]
properties('MP2/aug-cc-pvtz', properties = ['dipole'])
--------------------------------------------------------------------------

    Molecular point group: c1
  Charge       = 0
  Multiplicity = 1
  Basis Set: AUG-CC-PVTZ
    Blend: AUG-CC-PVTZ
  Basis Set: (AUG-CC-PVTZ AUX)
    Blend: AUG-CC-PVTZ-JKFIT

    Orbital Energies [Eh]
    ---------------------

    Doubly Occupied:

       1A    -20.507356     2A    -15.627331     3A    -11.350231
       4A    -11.309976     5A    -11.279270     6A    -11.270867
       7A    -11.243625     8A    -11.240563     9A    -11.237949
      10A    -11.234158    11A     -1.370206    12A     -1.282859
      13A     -1.156289    14A     -1.096340    15A     -1.023651
      16A     -0.901626    17A     -0.867742    18A     -0.828908
      19A     -0.810516    20A     -0.726384    21A     -0.694310
      22A     -0.681015    23A     -0.662847    24A     -0.638345
      25A     -0.606616    26A     -0.594003    27A     -0.575980
      28A     -0.545196    29A     -0.536152    30A     -0.524171
      31A     -0.479627    32A     -0.456438    33A     -0.440100
      34A     -0.420792    35A     -0.399751    36A     -0.308971

  @DF-RHF Final Energy:  -437.60409276953197

   => Energetics <=

    Nuclear Repulsion Energy =            508.1168724488819066
    One-Electron Energy =               -1601.5816084615962609
    Two-Electron Energy =                 655.8606432431823805
    Total Energy =                       -437.6040927695320306
  Basis Set: (AUG-CC-PVTZ AUX)
    Blend: AUG-CC-PVTZ-RI
    Molecular point group: c1

    Geometry (in Angstrom), charge = 0, multiplicity = 1:

       Center              X                  Y                   Z               Mass
    ------------   -----------------  -----------------  -----------------  -----------------
         O            0.108318938793     2.098765166454    -0.210082716574    15.994914619570
         N            0.162887938793    -0.207675833546    -0.227144716574    14.003074004430
         C            1.577967938793    -0.132934833546    -0.505563716574    12.000000000000
         C            2.485803938793     0.375877166454     0.566329283426    12.000000000000
         C            2.510215938793    -1.082517833546     0.194779283426    12.000000000000
         C           -0.510415061207     1.034260166454    -0.089714716574    12.000000000000
         C           -0.475333061207    -1.420805833546    -0.208869716574    12.000000000000
         C           -1.923246061207     0.899692166454     0.195306283426    12.000000000000
         C           -1.817958061207    -1.513342833546     0.026633283426    12.000000000000
         C           -2.550621061207    -0.315518833546     0.239187283426    12.000000000000
         H            1.805301938793     0.156026166454    -1.528584716574     1.007825032230
         H            2.019039938793     0.645491166454     1.506802283426     1.007825032230
         H            3.305476938793     1.018243166454     0.264566283426     1.007825032230
         H            3.350660938793    -1.470923833546    -0.371041716574     1.007825032230
         H            2.081934938793    -1.783219833546     0.903738283426     1.007825032230
         H            0.211956138793    -2.305530033546    -0.090050316574     1.007825032230
         H           -2.463679061207     1.829154166454     0.344584283426     1.007825032230
         H           -2.297087061207    -2.485619833546     0.040968283426     1.007825032230
         H           -3.618455061207    -0.364349833546     0.441117283426     1.007825032230

  Basis Set: AUG-CC-PVTZ
    Blend: AUG-CC-PVTZ
  Basis Set: (AUG-CC-PVTZ AUX)
    Blend: AUG-CC-PVTZ-JKFIT
	 Reference Energy          =    -437.6040927695319738 [Eh]
	 Singles Energy            =      -0.0000000000000000 [Eh]
	 Same-Spin Energy          =      -0.4683324294622295 [Eh]
	 Opposite-Spin Energy      =      -1.4657102900305430 [Eh]
	 Correlation Energy        =      -1.9340427194927725 [Eh]
	 Total Energy              =    -439.5381354890247394 [Eh]

	 ================> DF-SCS-MP2 Energies <==================
	-----------------------------------------------------------
	 SCS Same-Spin Scale       =       0.3333333333333333 [-]
	 SCS Opposite-Spin Scale   =       1.2000000000000000 [-]
	 SCS Same-Spin Energy      =      -0.1561108098207432 [Eh]
	 SCS Opposite-Spin Energy  =      -1.7588523480366516 [Eh]
	 SCS Correlation Energy    =      -1.9149631578573947 [Eh]
	 SCS Total Energy          =    -439.5190559273893882 [Eh]
	-----------------------------------------------------------

  Dipole Moment: [D]
     X:    -0.0315      Y:    -3.7471      Z:     0.3447     Total:     3.7630

*** Psi4 exiting successfully. Buy a developer a beer!
