                               Psi4 1.3.2 release

  ==> Input File <==

--------------------------------------------------------------------------
#psi4
#
memory 32 gb

molecule  {
0 1
  O        0.0787650     2.1311770    -0.2164080
  N        0.1333340    -0.1752640    -0.2334700
  C        1.5484140    -0.1005230    -0.5118890
  C        2.4562500     0.4082890     0.5600040
  C        2.4806620    -1.0501060     0.1884540
  C       -0.5399690     1.0666720    -0.0960400
  C       -0.5048870    -1.3883940    -0.2151950
  C       -1.9725155     0.9323628     0.0909441
  C       -1.8475120    -1.4809310     0.0203080
  C       -2.5801750    -0.2831070     0.2328620
  H        1.7757480     0.1884380    -1.5349100
  H        1.9894860     0.6779030     1.5004770
  H        3.2759230     1.0506550     0.2582410
  H        3.3211070    -1.4385120    -0.3773670
  H        2.0523810    -1.7508080     0.8974130
  H        0.1298880    -2.2506920    -0.3908910
  H       -2.4932330     1.8615660     0.3382590
  H       -2.3266410    -2.4532080     0.0346430
  H       -3.6480090    -0.3319380     0.4347920
units angstrom
no_reorient  #important for SAPT in psi4, default
symmetry c1  #important for SAPT in psi4, default
}

set PROPERTIES_ORIGIN ["COM"]
properties('MP2/aug-cc-pvtz', properties = ['dipole'])
--------------------------------------------------------------------------

    Molecular point group: c1
  Charge       = 0
  Multiplicity = 1
  Basis Set: AUG-CC-PVTZ
    Blend: AUG-CC-PVTZ
  Basis Set: (AUG-CC-PVTZ AUX)
    Blend: AUG-CC-PVTZ-JKFIT

    Orbital Energies [Eh]
    ---------------------

    Doubly Occupied:

       1A    -20.507552     2A    -15.627219     3A    -11.350483
       4A    -11.307256     5A    -11.279352     6A    -11.270349
       7A    -11.243207     8A    -11.239237     9A    -11.237424
      10A    -11.234171    11A     -1.370221    12A     -1.283133
      13A     -1.156237    14A     -1.096154    15A     -1.024292
      16A     -0.901315    17A     -0.868835    18A     -0.829439
      19A     -0.810717    20A     -0.725765    21A     -0.697229
      22A     -0.682368    23A     -0.663613    24A     -0.639744
      25A     -0.605618    26A     -0.593746    27A     -0.577498
      28A     -0.546116    29A     -0.533938    30A     -0.526218
      31A     -0.480790    32A     -0.455512    33A     -0.440293
      34A     -0.420668    35A     -0.399770    36A     -0.309012

  @DF-RHF Final Energy:  -437.60846014985003

   => Energetics <=

    Nuclear Repulsion Energy =            508.1207768605897286
    One-Electron Energy =               -1601.5894941482374634
    Two-Electron Energy =                 655.8602571377977029
    Total Energy =                       -437.6084601498499751
  Basis Set: (AUG-CC-PVTZ AUX)
    Blend: AUG-CC-PVTZ-RI
    Molecular point group: c1

    Geometry (in Angstrom), charge = 0, multiplicity = 1:

       Center              X                  Y                   Z               Mass
    ------------   -----------------  -----------------  -----------------  -----------------
         O            0.110462379417     2.098574838567    -0.199175186458    15.994914619570
         N            0.165031379417    -0.207866161433    -0.216237186458    14.003074004430
         C            1.580111379417    -0.133125161433    -0.494656186458    12.000000000000
         C            2.487947379417     0.375686838567     0.577236813542    12.000000000000
         C            2.512359379417    -1.082708161433     0.205686813542    12.000000000000
         C           -0.508271620583     1.034069838567    -0.078807186458    12.000000000000
         C           -0.473189620583    -1.420996161433    -0.197962186458    12.000000000000
         C           -1.940818120583     0.899760638567     0.108176913542    12.000000000000
         C           -1.815814620583    -1.513533161433     0.037540813542    12.000000000000
         C           -2.548477620583    -0.315709161433     0.250094813542    12.000000000000
         H            1.807445379417     0.155835838567    -1.517677186458     1.007825032230
         H            2.021183379417     0.645300838567     1.517709813542     1.007825032230
         H            3.307620379417     1.018052838567     0.275473813542     1.007825032230
         H            3.352804379417    -1.471114161433    -0.360134186458     1.007825032230
         H            2.084078379417    -1.783410161433     0.914645813542     1.007825032230
         H            0.161585379417    -2.283294161433    -0.373658186458     1.007825032230
         H           -2.461535620583     1.828963838567     0.355491813542     1.007825032230
         H           -2.294943620583    -2.485810161433     0.051875813542     1.007825032230
         H           -3.616311620583    -0.364540161433     0.452024813542     1.007825032230

  Basis Set: AUG-CC-PVTZ
    Blend: AUG-CC-PVTZ
  Basis Set: (AUG-CC-PVTZ AUX)
    Blend: AUG-CC-PVTZ-JKFIT
	 Reference Energy          =    -437.6084601498500319 [Eh]
	 Singles Energy            =      -0.0000000000000000 [Eh]
	 Same-Spin Energy          =      -0.4677444456903372 [Eh]
	 Opposite-Spin Energy      =      -1.4647382780448810 [Eh]
	 Correlation Energy        =      -1.9324827237352182 [Eh]
	 Total Energy              =    -439.5409428735852657 [Eh]

	 ================> DF-SCS-MP2 Energies <==================
	-----------------------------------------------------------
	 SCS Same-Spin Scale       =       0.3333333333333333 [-]
	 SCS Opposite-Spin Scale   =       1.2000000000000000 [-]
	 SCS Same-Spin Energy      =      -0.1559148152301124 [Eh]
	 SCS Opposite-Spin Energy  =      -1.7576859336538571 [Eh]
	 SCS Correlation Energy    =      -1.9136007488839695 [Eh]
	 SCS Total Energy          =    -439.5220608987340256 [Eh]
	-----------------------------------------------------------

  Dipole Moment: [D]
     X:     0.0069      Y:    -3.8014      Z:     0.2112     Total:     3.8072

*** Psi4 exiting successfully. Buy a developer a beer!
