                               Psi4 1.3.2 release

  ==> Input File <==

--------------------------------------------------------------------------
#psi4
#
memory 32 gb

molecule  {
0 1
  O        0.0787650     2.1311770    -0.2164080
  N        0.1333340    -0.1752640    -0.2334700
  C        1.5484140    -0.1005230    -0.5118890
  C        2.4562500     0.4082890     0.5600040
  C        2.4806620    -1.0501060     0.1884540
  C       -0.5399690     1.0666720    -0.0960400
  C       -0.5048870    -1.3883940    -0.2151950
  C       -1.9528000     0.9321040     0.1889810
  C       -1.8475120    -1.4809310     0.0203080
  C       -2.5801750    -0.2831070     0.2328620
  H        1.7757480     0.1884380    -1.5349100
  H        1.9894860     0.6779030     1.5004770
  H        3.2759230     1.0506550     0.2582410
  H        3.3211070    -1.4385120    -0.3773670
  H        2.0523810    -1.7508080     0.8974130
  H        0.1298880    -2.2506920    -0.3908910
  H       -2.4932330     1.8615660     0.3382590
  H       -2.3178831    -2.4566701     0.0837481
  H       -3.6480090    -0.3319380     0.4347920
units angstrom
no_reorient  #important for SAPT in psi4, default
symmetry c1  #important for SAPT in psi4, default
}

set PROPERTIES_ORIGIN ["COM"]
properties('MP2/aug-cc-pvtz', properties = ['dipole'])
--------------------------------------------------------------------------

    Molecular point group: c1
  Charge       = 0
  Multiplicity = 1
  Basis Set: AUG-CC-PVTZ
    Blend: AUG-CC-PVTZ
  Basis Set: (AUG-CC-PVTZ AUX)
    Blend: AUG-CC-PVTZ-JKFIT

    Orbital Energies [Eh]
    ---------------------

    Doubly Occupied:

       1A    -20.507250     2A    -15.627379     3A    -11.350016
       4A    -11.307101     5A    -11.279295     6A    -11.270426
       7A    -11.243241     8A    -11.239410     9A    -11.236950
      10A    -11.234132    11A     -1.370121    12A     -1.283071
      13A     -1.156144    14A     -1.095840    15A     -1.024597
      16A     -0.901708    17A     -0.868897    18A     -0.829514
      19A     -0.810803    20A     -0.725914    21A     -0.697670
      22A     -0.682041    23A     -0.663808    24A     -0.640430
      25A     -0.606290    26A     -0.593964    27A     -0.576926
      28A     -0.546531    29A     -0.535316    30A     -0.526249
      31A     -0.480700    32A     -0.455258    33A     -0.440048
      34A     -0.420575    35A     -0.399890    36A     -0.308833

  @DF-RHF Final Energy:  -437.61062766256345

   => Energetics <=

    Nuclear Repulsion Energy =            508.2054508069742269
    One-Electron Energy =               -1601.7594833061980353
    Two-Electron Energy =                 655.9434048366604202
    Total Energy =                       -437.6106276625635019
  Basis Set: (AUG-CC-PVTZ AUX)
    Blend: AUG-CC-PVTZ-RI
    Molecular point group: c1

    Geometry (in Angstrom), charge = 0, multiplicity = 1:

       Center              X                  Y                   Z               Mass
    ------------   -----------------  -----------------  -----------------  -----------------
         O            0.108645430333     2.098623664128    -0.208251565705    15.994914619570
         N            0.163214430333    -0.207817335872    -0.225313565705    14.003074004430
         C            1.578294430333    -0.133076335872    -0.503732565705    12.000000000000
         C            2.486130430333     0.375735664128     0.568160434295    12.000000000000
         C            2.510542430333    -1.082659335872     0.196610434295    12.000000000000
         C           -0.510088569667     1.034118664128    -0.087883565705    12.000000000000
         C           -0.475006569667    -1.420947335872    -0.207038565705    12.000000000000
         C           -1.922919569667     0.899550664128     0.197137434295    12.000000000000
         C           -1.817631569667    -1.513484335872     0.028464434295    12.000000000000
         C           -2.550294569667    -0.315660335872     0.241018434295    12.000000000000
         H            1.805628430333     0.155884664128    -1.526753565705     1.007825032230
         H            2.019366430333     0.645349664128     1.508633434295     1.007825032230
         H            3.305803430333     1.018101664128     0.266397434295     1.007825032230
         H            3.350987430333    -1.471065335872    -0.369210565705     1.007825032230
         H            2.082261430333    -1.783361335872     0.905569434295     1.007825032230
         H            0.159768430333    -2.283245335872    -0.382734565705     1.007825032230
         H           -2.463352569667     1.829012664128     0.346415434295     1.007825032230
         H           -2.288002669667    -2.489223435872     0.091904534295     1.007825032230
         H           -3.618128569667    -0.364491335872     0.442948434295     1.007825032230

  Basis Set: AUG-CC-PVTZ
    Blend: AUG-CC-PVTZ
  Basis Set: (AUG-CC-PVTZ AUX)
    Blend: AUG-CC-PVTZ-JKFIT
	 Reference Energy          =    -437.6106276625634450 [Eh]
	 Singles Energy            =      -0.0000000000000000 [Eh]
	 Same-Spin Energy          =      -0.4677461289738232 [Eh]
	 Opposite-Spin Energy      =      -1.4646366273474727 [Eh]
	 Correlation Energy        =      -1.9323827563212959 [Eh]
	 Total Energy              =    -439.5430104188847622 [Eh]

	 ================> DF-SCS-MP2 Energies <==================
	-----------------------------------------------------------
	 SCS Same-Spin Scale       =       0.3333333333333333 [-]
	 SCS Opposite-Spin Scale   =       1.2000000000000000 [-]
	 SCS Same-Spin Energy      =      -0.1559153763246077 [Eh]
	 SCS Opposite-Spin Energy  =      -1.7575639528169671 [Eh]
	 SCS Correlation Energy    =      -1.9134793291415748 [Eh]
	 SCS Total Energy          =    -439.5241069917050254 [Eh]
	-----------------------------------------------------------

  Dipole Moment: [D]
     X:    -0.0049      Y:    -3.7933      Z:     0.1924     Total:     3.7981

*** Psi4 exiting successfully. Buy a developer a beer!
