                               Psi4 1.3.2 release

  ==> Input File <==

--------------------------------------------------------------------------
#psi4
#
memory 32 gb

molecule  {
0 1
  O        0.0787650     2.1311770    -0.2164080
  N        0.1333340    -0.1752640    -0.2334700
  C        1.5484140    -0.1005230    -0.5118890
  C        2.4562500     0.4082890     0.5600040
  C        2.4806620    -1.0501060     0.1884540
  C       -0.5399690     1.0666720    -0.0960400
  C       -0.5048870    -1.3883940    -0.2151950
  C       -1.9528000     0.9321040     0.1889810
  C       -1.8475120    -1.4809310     0.0203080
  C       -2.5801750    -0.2831070     0.2328620
  H        1.7757480     0.1884380    -1.5349100
  H        1.9894860     0.6779030     1.5004770
  H        3.2759230     1.0506550     0.2582410
  H        3.3211070    -1.4385120    -0.3773670
  H        2.0523810    -1.7508080     0.8974130
  H        0.1298880    -2.2506920    -0.3908910
  H       -2.5127255     1.8671684     0.2403373
  H       -2.3266410    -2.4532080     0.0346430
  H       -3.6480090    -0.3319380     0.4347920
units angstrom
no_reorient  #important for SAPT in psi4, default
symmetry c1  #important for SAPT in psi4, default
}

set PROPERTIES_ORIGIN ["COM"]
properties('MP2/aug-cc-pvtz', properties = ['dipole'])
--------------------------------------------------------------------------

    Molecular point group: c1
  Charge       = 0
  Multiplicity = 1
  Basis Set: AUG-CC-PVTZ
    Blend: AUG-CC-PVTZ
  Basis Set: (AUG-CC-PVTZ AUX)
    Blend: AUG-CC-PVTZ-JKFIT

    Orbital Energies [Eh]
    ---------------------

    Doubly Occupied:

       1A    -20.507157     2A    -15.627398     3A    -11.349942
       4A    -11.307265     5A    -11.279296     6A    -11.270651
       7A    -11.243248     8A    -11.239418     9A    -11.237318
      10A    -11.234075    11A     -1.370066    12A     -1.283079
      13A     -1.156157    14A     -1.095869    15A     -1.024554
      16A     -0.901690    17A     -0.868822    18A     -0.829429
      19A     -0.810801    20A     -0.725700    21A     -0.697653
      22A     -0.682248    23A     -0.663884    24A     -0.639406
      25A     -0.606275    26A     -0.594234    27A     -0.577054
      28A     -0.546480    29A     -0.534415    30A     -0.526161
      31A     -0.480645    32A     -0.455300    33A     -0.439883
      34A     -0.421113    35A     -0.399584    36A     -0.308867

  @DF-RHF Final Energy:  -437.61012017653007

   => Energetics <=

    Nuclear Repulsion Energy =            508.1801966352157933
    One-Electron Energy =               -1601.7103583425118813
    Two-Electron Energy =                 655.9200415307659568
    Total Energy =                       -437.6101201765300175
  Basis Set: (AUG-CC-PVTZ AUX)
    Blend: AUG-CC-PVTZ-RI
    Molecular point group: c1

    Geometry (in Angstrom), charge = 0, multiplicity = 1:

       Center              X                  Y                   Z               Mass
    ------------   -----------------  -----------------  -----------------  -----------------
         O            0.108856223216     2.098556028552    -0.207154512107    15.994914619570
         N            0.163425223216    -0.207884971448    -0.224216512107    14.003074004430
         C            1.578505223216    -0.133143971448    -0.502635512107    12.000000000000
         C            2.486341223216     0.375668028552     0.569257487893    12.000000000000
         C            2.510753223216    -1.082726971448     0.197707487893    12.000000000000
         C           -0.509877776784     1.034051028552    -0.086786512107    12.000000000000
         C           -0.474795776784    -1.421014971448    -0.205941512107    12.000000000000
         C           -1.922708776784     0.899483028552     0.198234487893    12.000000000000
         C           -1.817420776784    -1.513551971448     0.029561487893    12.000000000000
         C           -2.550083776784    -0.315727971448     0.242115487893    12.000000000000
         H            1.805839223216     0.155817028552    -1.525656512107     1.007825032230
         H            2.019577223216     0.645282028552     1.509730487893     1.007825032230
         H            3.306014223216     1.018034028552     0.267494487893     1.007825032230
         H            3.351198223216    -1.471132971448    -0.368113512107     1.007825032230
         H            2.082472223216    -1.783428971448     0.906666487893     1.007825032230
         H            0.159979223216    -2.283312971448    -0.381637512107     1.007825032230
         H           -2.482634276784     1.834547428552     0.249590787893     1.007825032230
         H           -2.296549776784    -2.485828971448     0.043896487893     1.007825032230
         H           -3.617917776784    -0.364558971448     0.444045487893     1.007825032230

  Basis Set: AUG-CC-PVTZ
    Blend: AUG-CC-PVTZ
  Basis Set: (AUG-CC-PVTZ AUX)
    Blend: AUG-CC-PVTZ-JKFIT
	 Reference Energy          =    -437.6101201765300743 [Eh]
	 Singles Energy            =      -0.0000000000000000 [Eh]
	 Same-Spin Energy          =      -0.4677729418326204 [Eh]
	 Opposite-Spin Energy      =      -1.4646870565816263 [Eh]
	 Correlation Energy        =      -1.9324599984142468 [Eh]
	 Total Energy              =    -439.5425801749443053 [Eh]

	 ================> DF-SCS-MP2 Energies <==================
	-----------------------------------------------------------
	 SCS Same-Spin Scale       =       0.3333333333333333 [-]
	 SCS Opposite-Spin Scale   =       1.2000000000000000 [-]
	 SCS Same-Spin Energy      =      -0.1559243139442068 [Eh]
	 SCS Opposite-Spin Energy  =      -1.7576244678979516 [Eh]
	 SCS Correlation Energy    =      -1.9135487818421584 [Eh]
	 SCS Total Energy          =    -439.5236689583722409 [Eh]
	-----------------------------------------------------------

  Dipole Moment: [D]
     X:    -0.0216      Y:    -3.7997      Z:     0.0946     Total:     3.8010

*** Psi4 exiting successfully. Buy a developer a beer!
