                               Psi4 1.3.2 release

  ==> Input File <==

--------------------------------------------------------------------------
#psi4
#
memory 32 gb

molecule  {
0 1
  O        0.0787650     2.1311770    -0.2164080
  N        0.1333340    -0.1752640    -0.2334700
  C        1.5484140    -0.1005230    -0.5118890
  C        2.4562500     0.4082890     0.5600040
  C        2.4806620    -1.0501060     0.1884540
  C       -0.5399690     1.0666720    -0.0960400
  C       -0.5048870    -1.3883940    -0.2151950
  C       -1.9528000     0.9321040     0.1889810
  C       -1.8475120    -1.4809310     0.0203080
  C       -2.5801750    -0.2831070     0.2328620
  H        1.7757480     0.1884380    -1.5349100
  H        1.9894860     0.6779030     1.5004770
  H        3.2759230     1.0506550     0.2582410
  H        3.3211070    -1.4385120    -0.3773670
  H        2.0523810    -1.7508080     0.8974130
  H        0.1298880    -2.2506920    -0.3908910
  H       -2.5029792     1.8643672     0.2892982
  H       -2.3266410    -2.4532080     0.0346430
  H       -3.6480090    -0.3319380     0.4347920
units angstrom
no_reorient  #important for SAPT in psi4, default
symmetry c1  #important for SAPT in psi4, default
}

set PROPERTIES_ORIGIN ["COM"]
properties('MP2/aug-cc-pvtz', properties = ['dipole'])
--------------------------------------------------------------------------

    Molecular point group: c1
  Charge       = 0
  Multiplicity = 1
  Basis Set: AUG-CC-PVTZ
    Blend: AUG-CC-PVTZ
  Basis Set: (AUG-CC-PVTZ AUX)
    Blend: AUG-CC-PVTZ-JKFIT

    Orbital Energies [Eh]
    ---------------------

    Doubly Occupied:

       1A    -20.507184     2A    -15.627356     3A    -11.349961
       4A    -11.307144     5A    -11.279283     6A    -11.270517
       7A    -11.243229     8A    -11.239364     9A    -11.237047
      10A    -11.234075    11A     -1.370076    12A     -1.283052
      13A     -1.156134    14A     -1.095856    15A     -1.024594
      16A     -0.901700    17A     -0.868884    18A     -0.829470
      19A     -0.810827    20A     -0.725821    21A     -0.697633
      22A     -0.682195    23A     -0.663885    24A     -0.640006
      25A     -0.606263    26A     -0.594182    27A     -0.577130
      28A     -0.546309    29A     -0.534995    30A     -0.526195
      31A     -0.480644    32A     -0.455378    33A     -0.439996
      34A     -0.420835    35A     -0.399699    36A     -0.308845

  @DF-RHF Final Energy:  -437.61058973652530

   => Energetics <=

    Nuclear Repulsion Energy =            508.1982169022958828
    One-Electron Energy =               -1601.7460889389685690
    Two-Electron Energy =                 655.9372823001474444
    Total Energy =                       -437.6105897365252986
  Basis Set: (AUG-CC-PVTZ AUX)
    Blend: AUG-CC-PVTZ-RI
    Molecular point group: c1

    Geometry (in Angstrom), charge = 0, multiplicity = 1:

       Center              X                  Y                   Z               Mass
    ------------   -----------------  -----------------  -----------------  -----------------
         O            0.108783500328     2.098576929956    -0.207519838235    15.994914619570
         N            0.163352500328    -0.207864070044    -0.224581838235    14.003074004430
         C            1.578432500328    -0.133123070044    -0.503000838235    12.000000000000
         C            2.486268500328     0.375688929956     0.568892161765    12.000000000000
         C            2.510680500328    -1.082706070044     0.197342161765    12.000000000000
         C           -0.509950499672     1.034071929956    -0.087151838235    12.000000000000
         C           -0.474868499672    -1.420994070044    -0.206306838235    12.000000000000
         C           -1.922781499672     0.899503929956     0.197869161765    12.000000000000
         C           -1.817493499672    -1.513531070044     0.029196161765    12.000000000000
         C           -2.550156499672    -0.315707070044     0.241750161765    12.000000000000
         H            1.805766500328     0.155837929956    -1.526021838235     1.007825032230
         H            2.019504500328     0.645302929956     1.509365161765     1.007825032230
         H            3.305941500328     1.018054929956     0.267129161765     1.007825032230
         H            3.351125500328    -1.471112070044    -0.368478838235     1.007825032230
         H            2.082399500328    -1.783408070044     0.906301161765     1.007825032230
         H            0.159906500328    -2.283292070044    -0.382002838235     1.007825032230
         H           -2.472960699672     1.831767129956     0.298186361765     1.007825032230
         H           -2.296622499672    -2.485808070044     0.043531161765     1.007825032230
         H           -3.617990499672    -0.364538070044     0.443680161765     1.007825032230

  Basis Set: AUG-CC-PVTZ
    Blend: AUG-CC-PVTZ
  Basis Set: (AUG-CC-PVTZ AUX)
    Blend: AUG-CC-PVTZ-JKFIT
	 Reference Energy          =    -437.6105897365252986 [Eh]
	 Singles Energy            =      -0.0000000000000000 [Eh]
	 Same-Spin Energy          =      -0.4677508279468140 [Eh]
	 Opposite-Spin Energy      =      -1.4646424576641293 [Eh]
	 Correlation Energy        =      -1.9323932856109431 [Eh]
	 Total Energy              =    -439.5429830221362408 [Eh]

	 ================> DF-SCS-MP2 Energies <==================
	-----------------------------------------------------------
	 SCS Same-Spin Scale       =       0.3333333333333333 [-]
	 SCS Opposite-Spin Scale   =       1.2000000000000000 [-]
	 SCS Same-Spin Energy      =      -0.1559169426489380 [Eh]
	 SCS Opposite-Spin Energy  =      -1.7575709491969551 [Eh]
	 SCS Correlation Energy    =      -1.9134878918458931 [Eh]
	 SCS Total Energy          =    -439.5240776283711739 [Eh]
	-----------------------------------------------------------

  Dipole Moment: [D]
     X:    -0.0185      Y:    -3.7952      Z:     0.1258     Total:     3.7973

*** Psi4 exiting successfully. Buy a developer a beer!
