                               Psi4 1.3.2 release

  ==> Input File <==

--------------------------------------------------------------------------
#psi4
#
memory 32 gb

molecule  {
0 1
  O        0.0787650     2.1311770    -0.2164080
  N        0.1333340    -0.1752640    -0.2334700
  C        1.5484140    -0.1005230    -0.5118890
  C        2.4562500     0.4082890     0.5600040
  C        2.4806620    -1.0501060     0.1884540
  C       -0.5399690     1.0666720    -0.0960400
  C       -0.5048870    -1.3883940    -0.2151950
  C       -1.9528000     0.9321040     0.1889810
  C       -1.8475120    -1.4809310     0.0203080
  C       -2.5801750    -0.2831070     0.2328620
  H        1.7757480     0.1884380    -1.5349100
  H        1.9894860     0.6779030     1.5004770
  H        3.2759230     1.0506550     0.2582410
  H        3.3211070    -1.4385120    -0.3773670
  H        2.0523810    -1.7508080     0.8974130
  H        0.1298880    -2.2506920    -0.3908910
  H       -2.4932330     1.8615660     0.3382590
  H       -2.2740933    -2.4739807     0.3292737
  H       -3.6480090    -0.3319380     0.4347920
units angstrom
no_reorient  #important for SAPT in psi4, default
symmetry c1  #important for SAPT in psi4, default
}

set PROPERTIES_ORIGIN ["COM"]
properties('MP2/aug-cc-pvtz', properties = ['dipole'])
--------------------------------------------------------------------------

    Molecular point group: c1
  Charge       = 0
  Multiplicity = 1
  Basis Set: AUG-CC-PVTZ
    Blend: AUG-CC-PVTZ
  Basis Set: (AUG-CC-PVTZ AUX)
    Blend: AUG-CC-PVTZ-JKFIT

    Orbital Energies [Eh]
    ---------------------

    Doubly Occupied:

       1A    -20.508142     2A    -15.628297     3A    -11.350732
       4A    -11.308307     5A    -11.279741     6A    -11.270527
       7A    -11.243671     8A    -11.242360     9A    -11.237052
      10A    -11.234708    11A     -1.370888    12A     -1.283840
      13A     -1.156518    14A     -1.095730    15A     -1.024202
      16A     -0.901789    17A     -0.868662    18A     -0.829827
      19A     -0.810130    20A     -0.724565    21A     -0.698120
      22A     -0.680742    23A     -0.663850    24A     -0.639216
      25A     -0.605972    26A     -0.593497    27A     -0.575164
      28A     -0.545770    29A     -0.534885    30A     -0.526640
      31A     -0.480732    32A     -0.454004    33A     -0.439901
      34A     -0.421142    35A     -0.400571    36A     -0.309179

  @DF-RHF Final Energy:  -437.60517229126538

   => Energetics <=

    Nuclear Repulsion Energy =            508.0707778667101024
    One-Electron Energy =               -1601.4737554280698077
    Two-Electron Energy =                 655.7978052700942726
    Total Energy =                       -437.6051722912653759
  Basis Set: (AUG-CC-PVTZ AUX)
    Blend: AUG-CC-PVTZ-RI
    Molecular point group: c1

    Geometry (in Angstrom), charge = 0, multiplicity = 1:

       Center              X                  Y                   Z               Mass
    ------------   -----------------  -----------------  -----------------  -----------------
         O            0.108318688830     2.098752828716    -0.210083576895    15.994914619570
         N            0.162887688830    -0.207688171284    -0.227145576895    14.003074004430
         C            1.577967688830    -0.132947171284    -0.505564576895    12.000000000000
         C            2.485803688830     0.375864828716     0.566328423105    12.000000000000
         C            2.510215688830    -1.082530171284     0.194778423105    12.000000000000
         C           -0.510415311170     1.034247828716    -0.089715576895    12.000000000000
         C           -0.475333311170    -1.420818171284    -0.208870576895    12.000000000000
         C           -1.923246311170     0.899679828716     0.195305423105    12.000000000000
         C           -1.817958311170    -1.513355171284     0.026632423105    12.000000000000
         C           -2.550621311170    -0.315531171284     0.239186423105    12.000000000000
         H            1.805301688830     0.156013828716    -1.528585576895     1.007825032230
         H            2.019039688830     0.645478828716     1.506801423105     1.007825032230
         H            3.305476688830     1.018230828716     0.264565423105     1.007825032230
         H            3.350660688830    -1.470936171284    -0.371042576895     1.007825032230
         H            2.081934688830    -1.783232171284     0.903737423105     1.007825032230
         H            0.159441688830    -2.283116171284    -0.384566576895     1.007825032230
         H           -2.463679311170     1.829141828716     0.344583423105     1.007825032230
         H           -2.244539611170    -2.506404871284     0.335598123105     1.007825032230
         H           -3.618455311170    -0.364362171284     0.441116423105     1.007825032230

  Basis Set: AUG-CC-PVTZ
    Blend: AUG-CC-PVTZ
  Basis Set: (AUG-CC-PVTZ AUX)
    Blend: AUG-CC-PVTZ-JKFIT
	 Reference Energy          =    -437.6051722912653759 [Eh]
	 Singles Energy            =      -0.0000000000000000 [Eh]
	 Same-Spin Energy          =      -0.4678999942525623 [Eh]
	 Opposite-Spin Energy      =      -1.4651615843659687 [Eh]
	 Correlation Energy        =      -1.9330615786185310 [Eh]
	 Total Energy              =    -439.5382338698839249 [Eh]

	 ================> DF-SCS-MP2 Energies <==================
	-----------------------------------------------------------
	 SCS Same-Spin Scale       =       0.3333333333333333 [-]
	 SCS Opposite-Spin Scale   =       1.2000000000000000 [-]
	 SCS Same-Spin Energy      =      -0.1559666647508541 [Eh]
	 SCS Opposite-Spin Energy  =      -1.7581939012391623 [Eh]
	 SCS Correlation Energy    =      -1.9141605659900165 [Eh]
	 SCS Total Energy          =    -439.5193328572553924 [Eh]
	-----------------------------------------------------------

  Dipole Moment: [D]
     X:     0.0785      Y:    -3.7267      Z:     0.3635     Total:     3.7452

*** Psi4 exiting successfully. Buy a developer a beer!
