                               Psi4 1.3.2 release

  ==> Input File <==

--------------------------------------------------------------------------
#psi4
#
memory 32 gb

molecule  {
0 1
  O        0.0787650     2.1311770    -0.2164080
  N        0.1333340    -0.1752640    -0.2334700
  C        1.5484140    -0.1005230    -0.5118890
  C        2.4562500     0.4082890     0.5600040
  C        2.4806620    -1.0501060     0.1884540
  C       -0.5399690     1.0666720    -0.0960400
  C       -0.5048870    -1.3883940    -0.2151950
  C       -1.9528000     0.9321040     0.1889810
  C       -1.8475120    -1.4809310     0.0203080
  C       -2.5801750    -0.2831070     0.2328620
  H        1.7757480     0.1884380    -1.5349100
  H        1.9894860     0.6779030     1.5004770
  H        3.2759230     1.0506550     0.2582410
  H        3.3211070    -1.4385120    -0.3773670
  H        2.0523810    -1.7508080     0.8974130
  H        0.1298880    -2.2506920    -0.3908910
  H       -2.5224717     1.8699696     0.1913765
  H       -2.3266410    -2.4532080     0.0346430
  H       -3.6480090    -0.3319380     0.4347920
units angstrom
no_reorient  #important for SAPT in psi4, default
symmetry c1  #important for SAPT in psi4, default
}

set PROPERTIES_ORIGIN ["COM"]
properties('MP2/aug-cc-pvtz', properties = ['dipole'])
--------------------------------------------------------------------------

    Molecular point group: c1
  Charge       = 0
  Multiplicity = 1
  Basis Set: AUG-CC-PVTZ
    Blend: AUG-CC-PVTZ
  Basis Set: (AUG-CC-PVTZ AUX)
    Blend: AUG-CC-PVTZ-JKFIT

    Orbital Energies [Eh]
    ---------------------

    Doubly Occupied:

       1A    -20.507144     2A    -15.627460     3A    -11.349934
       4A    -11.307434     5A    -11.279322     6A    -11.270829
       7A    -11.243280     8A    -11.239496     9A    -11.237770
      10A    -11.234088    11A     -1.370065    12A     -1.283125
      13A     -1.156194    14A     -1.095884    15A     -1.024493
      16A     -0.901676    17A     -0.868721    18A     -0.829371
      19A     -0.810755    20A     -0.725545    21A     -0.697691
      22A     -0.682315    23A     -0.663841    24A     -0.638585
      25A     -0.606246    26A     -0.594285    27A     -0.577000
      28A     -0.546638    29A     -0.533626    30A     -0.526115
      31A     -0.480643    32A     -0.455215    33A     -0.439773
      34A     -0.421391    35A     -0.399443    36A     -0.308895

  @DF-RHF Final Energy:  -437.60932117337518

   => Energetics <=

    Nuclear Repulsion Energy =            508.1532322295630024
    One-Electron Energy =               -1601.6565296506005325
    Two-Electron Energy =                 655.8939762476624082
    Total Energy =                       -437.6093211733751787
  Basis Set: (AUG-CC-PVTZ AUX)
    Blend: AUG-CC-PVTZ-RI
    Molecular point group: c1

    Geometry (in Angstrom), charge = 0, multiplicity = 1:

       Center              X                  Y                   Z               Mass
    ------------   -----------------  -----------------  -----------------  -----------------
         O            0.108928945357     2.098535127148    -0.206789186726    15.994914619570
         N            0.163497945357    -0.207905872852    -0.223851186726    14.003074004430
         C            1.578577945357    -0.133164872852    -0.502270186726    12.000000000000
         C            2.486413945357     0.375647127148     0.569622813274    12.000000000000
         C            2.510825945357    -1.082747872852     0.198072813274    12.000000000000
         C           -0.509805054643     1.034030127148    -0.086421186726    12.000000000000
         C           -0.474723054643    -1.421035872852    -0.205576186726    12.000000000000
         C           -1.922636054643     0.899462127148     0.198599813274    12.000000000000
         C           -1.817348054643    -1.513572872852     0.029926813274    12.000000000000
         C           -2.550011054643    -0.315748872852     0.242480813274    12.000000000000
         H            1.805911945357     0.155796127148    -1.525291186726     1.007825032230
         H            2.019649945357     0.645261127148     1.510095813274     1.007825032230
         H            3.306086945357     1.018013127148     0.267859813274     1.007825032230
         H            3.351270945357    -1.471153872852    -0.367748186726     1.007825032230
         H            2.082544945357    -1.783449872852     0.907031813274     1.007825032230
         H            0.160051945357    -2.283333872852    -0.381272186726     1.007825032230
         H           -2.492307754643     1.837327727148     0.200995313274     1.007825032230
         H           -2.296477054643    -2.485849872852     0.044261813274     1.007825032230
         H           -3.617845054643    -0.364579872852     0.444410813274     1.007825032230

  Basis Set: AUG-CC-PVTZ
    Blend: AUG-CC-PVTZ
  Basis Set: (AUG-CC-PVTZ AUX)
    Blend: AUG-CC-PVTZ-JKFIT
	 Reference Energy          =    -437.6093211733751787 [Eh]
	 Singles Energy            =      -0.0000000000000000 [Eh]
	 Same-Spin Energy          =      -0.4678084369300282 [Eh]
	 Opposite-Spin Energy      =      -1.4647644772777946 [Eh]
	 Correlation Energy        =      -1.9325729142078227 [Eh]
	 Total Energy              =    -439.5418940875829890 [Eh]

	 ================> DF-SCS-MP2 Energies <==================
	-----------------------------------------------------------
	 SCS Same-Spin Scale       =       0.3333333333333333 [-]
	 SCS Opposite-Spin Scale   =       1.2000000000000000 [-]
	 SCS Same-Spin Energy      =      -0.1559361456433427 [Eh]
	 SCS Opposite-Spin Energy  =      -1.7577173727333535 [Eh]
	 SCS Correlation Energy    =      -1.9136535183766963 [Eh]
	 SCS Total Energy          =    -439.5229746917518696 [Eh]
	-----------------------------------------------------------

  Dipole Moment: [D]
     X:    -0.0224      Y:    -3.8066      Z:     0.0630     Total:     3.8072

*** Psi4 exiting successfully. Buy a developer a beer!
