                               Psi4 1.3.2 release

  ==> Input File <==

--------------------------------------------------------------------------
#psi4
#
memory 32 gb

molecule  {
0 1
  O        0.0787650     2.1311770    -0.2164080
  N        0.1333340    -0.1752640    -0.2334700
  C        1.5484140    -0.1005230    -0.5118890
  C        2.4562500     0.4082890     0.5600040
  C        2.4806620    -1.0501060     0.1884540
  C       -0.5399690     1.0666720    -0.0960400
  C       -0.5048870    -1.3883940    -0.2151950
  C       -1.9823733     0.9324922     0.0419257
  C       -1.8475120    -1.4809310     0.0203080
  C       -2.5801750    -0.2831070     0.2328620
  H        1.7757480     0.1884380    -1.5349100
  H        1.9894860     0.6779030     1.5004770
  H        3.2759230     1.0506550     0.2582410
  H        3.3211070    -1.4385120    -0.3773670
  H        2.0523810    -1.7508080     0.8974130
  H        0.1298880    -2.2506920    -0.3908910
  H       -2.4932330     1.8615660     0.3382590
  H       -2.3266410    -2.4532080     0.0346430
  H       -3.6480090    -0.3319380     0.4347920
units angstrom
no_reorient  #important for SAPT in psi4, default
symmetry c1  #important for SAPT in psi4, default
}

set PROPERTIES_ORIGIN ["COM"]
properties('MP2/aug-cc-pvtz', properties = ['dipole'])
--------------------------------------------------------------------------

    Molecular point group: c1
  Charge       = 0
  Multiplicity = 1
  Basis Set: AUG-CC-PVTZ
    Blend: AUG-CC-PVTZ
  Basis Set: (AUG-CC-PVTZ AUX)
    Blend: AUG-CC-PVTZ-JKFIT

    Orbital Energies [Eh]
    ---------------------

    Doubly Occupied:

       1A    -20.507842     2A    -15.627236     3A    -11.350963
       4A    -11.307763     5A    -11.279457     6A    -11.271039
       7A    -11.243272     8A    -11.239266     9A    -11.238089
      10A    -11.234274    11A     -1.370303    12A     -1.283272
      13A     -1.156274    14A     -1.096085    15A     -1.023857
      16A     -0.900915    17A     -0.868683    18A     -0.829432
      19A     -0.810496    20A     -0.725645    21A     -0.696795
      22A     -0.682231    23A     -0.663591    24A     -0.638793
      25A     -0.605331    26A     -0.593340    27A     -0.577521
      28A     -0.546050    29A     -0.532537    30A     -0.526164
      31A     -0.480867    32A     -0.455437    33A     -0.440424
      34A     -0.420489    35A     -0.399615    36A     -0.309246

  @DF-RHF Final Energy:  -437.60525062161071

   => Energetics <=

    Nuclear Repulsion Energy =            507.9917473676967461
    One-Electron Energy =               -1601.3288156815578986
    Two-Electron Energy =                 655.7318176922505018
    Total Energy =                       -437.6052506216107076
  Basis Set: (AUG-CC-PVTZ AUX)
    Blend: AUG-CC-PVTZ-RI
    Molecular point group: c1

    Geometry (in Angstrom), charge = 0, multiplicity = 1:

       Center              X                  Y                   Z               Mass
    ------------   -----------------  -----------------  -----------------  -----------------
         O            0.111338184474     2.098563342171    -0.194820202321    15.994914619570
         N            0.165907184474    -0.207877657829    -0.211882202321    14.003074004430
         C            1.580987184474    -0.133136657829    -0.490301202321    12.000000000000
         C            2.488823184474     0.375675342171     0.581591797679    12.000000000000
         C            2.513235184474    -1.082719657829     0.210041797679    12.000000000000
         C           -0.507395815526     1.034058342171    -0.074452202321    12.000000000000
         C           -0.472313815526    -1.421007657829    -0.193607202321    12.000000000000
         C           -1.949800115526     0.899878542171     0.063513497679    12.000000000000
         C           -1.814938815526    -1.513544657829     0.041895797679    12.000000000000
         C           -2.547601815526    -0.315720657829     0.254449797679    12.000000000000
         H            1.808321184474     0.155824342171    -1.513322202321     1.007825032230
         H            2.022059184474     0.645289342171     1.522064797679     1.007825032230
         H            3.308496184474     1.018041342171     0.279828797679     1.007825032230
         H            3.353680184474    -1.471125657829    -0.355779202321     1.007825032230
         H            2.084954184474    -1.783421657829     0.919000797679     1.007825032230
         H            0.162461184474    -2.283305657829    -0.369303202321     1.007825032230
         H           -2.460659815526     1.828952342171     0.359846797679     1.007825032230
         H           -2.294067815526    -2.485821657829     0.056230797679     1.007825032230
         H           -3.615435815526    -0.364551657829     0.456379797679     1.007825032230

  Basis Set: AUG-CC-PVTZ
    Blend: AUG-CC-PVTZ
  Basis Set: (AUG-CC-PVTZ AUX)
    Blend: AUG-CC-PVTZ-JKFIT
	 Reference Energy          =    -437.6052506216107076 [Eh]
	 Singles Energy            =      -0.0000000000000000 [Eh]
	 Same-Spin Energy          =      -0.4678228864311185 [Eh]
	 Opposite-Spin Energy      =      -1.4650518695886880 [Eh]
	 Correlation Energy        =      -1.9328747560198065 [Eh]
	 Total Energy              =    -439.5381253776305357 [Eh]

	 ================> DF-SCS-MP2 Energies <==================
	-----------------------------------------------------------
	 SCS Same-Spin Scale       =       0.3333333333333333 [-]
	 SCS Opposite-Spin Scale   =       1.2000000000000000 [-]
	 SCS Same-Spin Energy      =      -0.1559409621437061 [Eh]
	 SCS Opposite-Spin Energy  =      -1.7580622435064257 [Eh]
	 SCS Correlation Energy    =      -1.9140032056501319 [Eh]
	 SCS Total Energy          =    -439.5192538272608545 [Eh]
	-----------------------------------------------------------

  Dipole Moment: [D]
     X:     0.0296      Y:    -3.8138      Z:     0.2368     Total:     3.8212

*** Psi4 exiting successfully. Buy a developer a beer!
