                               Psi4 1.3.2 release

  ==> Input File <==

--------------------------------------------------------------------------
#psi4
#
memory 32 gb

molecule  {
0 1
  O        0.0787650     2.1311770    -0.2164080
  N        0.1333340    -0.1752640    -0.2334700
  C        1.5484140    -0.1005230    -0.5118890
  C        2.4562500     0.4082890     0.5600040
  C        2.4806620    -1.0501060     0.1884540
  C       -0.5399690     1.0666720    -0.0960400
  C       -0.5048870    -1.3883940    -0.2151950
  C       -2.0119466     0.9328803    -0.1051297
  C       -1.8475120    -1.4809310     0.0203080
  C       -2.5801750    -0.2831070     0.2328620
  H        1.7757480     0.1884380    -1.5349100
  H        1.9894860     0.6779030     1.5004770
  H        3.2759230     1.0506550     0.2582410
  H        3.3211070    -1.4385120    -0.3773670
  H        2.0523810    -1.7508080     0.8974130
  H        0.1298880    -2.2506920    -0.3908910
  H       -2.4932330     1.8615660     0.3382590
  H       -2.3266410    -2.4532080     0.0346430
  H       -3.6480090    -0.3319380     0.4347920
units angstrom
no_reorient  #important for SAPT in psi4, default
symmetry c1  #important for SAPT in psi4, default
}

set PROPERTIES_ORIGIN ["COM"]
properties('MP2/aug-cc-pvtz', properties = ['dipole'])
--------------------------------------------------------------------------

    Molecular point group: c1
  Charge       = 0
  Multiplicity = 1
  Basis Set: AUG-CC-PVTZ
    Blend: AUG-CC-PVTZ
  Basis Set: (AUG-CC-PVTZ AUX)
    Blend: AUG-CC-PVTZ-JKFIT

    Orbital Energies [Eh]
    ---------------------

    Doubly Occupied:

       1A    -20.509274     2A    -15.627661     3A    -11.353208
       4A    -11.310955     5A    -11.280077     6A    -11.275899
       7A    -11.243781     8A    -11.241704     9A    -11.239735
      10A    -11.234853    11A     -1.370671    12A     -1.284113
      13A     -1.156386    14A     -1.095093    15A     -1.021400
      16A     -0.899059    17A     -0.867906    18A     -0.829546
      19A     -0.809343    20A     -0.725363    21A     -0.695122
      22A     -0.680493    23A     -0.664129    24A     -0.634294
      25A     -0.604442    26A     -0.591657    27A     -0.577080
      28A     -0.545716    29A     -0.528446    30A     -0.522187
      31A     -0.481153    32A     -0.454841    33A     -0.441013
      34A     -0.418882    35A     -0.398635    36A     -0.310582

  @DF-RHF Final Energy:  -437.58702383993881

   => Energetics <=

    Nuclear Repulsion Energy =            507.2754686505222708
    One-Electron Energy =               -1599.8755879133109374
    Two-Electron Energy =                 655.0130954228499149
    Total Energy =                       -437.5870238399387517
  Basis Set: (AUG-CC-PVTZ AUX)
    Blend: AUG-CC-PVTZ-RI
    Molecular point group: c1

    Geometry (in Angstrom), charge = 0, multiplicity = 1:

       Center              X                  Y                   Z               Mass
    ------------   -----------------  -----------------  -----------------  -----------------
         O            0.113965590762     2.098528861867    -0.181755232142    15.994914619570
         N            0.168534590762    -0.207912138133    -0.198817232142    14.003074004430
         C            1.583614590762    -0.133171138133    -0.477236232142    12.000000000000
         C            2.491450590762     0.375640861867     0.594656767858    12.000000000000
         C            2.515862590762    -1.082754138133     0.223106767858    12.000000000000
         C           -0.504768409238     1.034023861867    -0.061387232142    12.000000000000
         C           -0.469686409238    -1.421042138133    -0.180542232142    12.000000000000
         C           -1.976746009238     0.900232161867    -0.070476932142    12.000000000000
         C           -1.812311409238    -1.513579138133     0.054960767858    12.000000000000
         C           -2.544974409238    -0.315755138133     0.267514767858    12.000000000000
         H            1.810948590762     0.155789861867    -1.500257232142     1.007825032230
         H            2.024686590762     0.645254861867     1.535129767858     1.007825032230
         H            3.311123590762     1.018006861867     0.292893767858     1.007825032230
         H            3.356307590762    -1.471160138133    -0.342714232142     1.007825032230
         H            2.087581590762    -1.783456138133     0.932065767858     1.007825032230
         H            0.165088590762    -2.283340138133    -0.356238232142     1.007825032230
         H           -2.458032409238     1.828917861867     0.372911767858     1.007825032230
         H           -2.291440409238    -2.485856138133     0.069295767858     1.007825032230
         H           -3.612808409238    -0.364586138133     0.469444767858     1.007825032230

  Basis Set: AUG-CC-PVTZ
    Blend: AUG-CC-PVTZ
  Basis Set: (AUG-CC-PVTZ AUX)
    Blend: AUG-CC-PVTZ-JKFIT
	 Reference Energy          =    -437.5870238399388086 [Eh]
	 Singles Energy            =      -0.0000000000000000 [Eh]
	 Same-Spin Energy          =      -0.4683770722508041 [Eh]
	 Opposite-Spin Energy      =      -1.4671417902132169 [Eh]
	 Correlation Energy        =      -1.9355188624640209 [Eh]
	 Total Energy              =    -439.5225427024028022 [Eh]

	 ================> DF-SCS-MP2 Energies <==================
	-----------------------------------------------------------
	 SCS Same-Spin Scale       =       0.3333333333333333 [-]
	 SCS Opposite-Spin Scale   =       1.2000000000000000 [-]
	 SCS Same-Spin Energy      =      -0.1561256907502680 [Eh]
	 SCS Opposite-Spin Energy  =      -1.7605701482558602 [Eh]
	 SCS Correlation Energy    =      -1.9166958390061282 [Eh]
	 SCS Total Energy          =    -439.5037196789449467 [Eh]
	-----------------------------------------------------------

  Dipole Moment: [D]
     X:     0.1499      Y:    -3.8823      Z:     0.3129     Total:     3.8978

*** Psi4 exiting successfully. Buy a developer a beer!
