                               Psi4 1.3.2 release

  ==> Input File <==

--------------------------------------------------------------------------
#psi4
#
memory 32 gb

molecule  {
0 1
  O        0.0787650     2.1311770    -0.2164080
  N        0.1333340    -0.1752640    -0.2334700
  C        1.5484140    -0.1005230    -0.5118890
  C        2.4562500     0.4082890     0.5600040
  C        2.4806620    -1.0501060     0.1884540
  C       -0.5399690     1.0666720    -0.0960400
  C       -0.5048870    -1.3883940    -0.2151950
  C       -1.9528000     0.9321040     0.1889810
  C       -1.8475120    -1.4809310     0.0203080
  C       -2.5801750    -0.2831070     0.2328620
  H        1.7757480     0.1884380    -1.5349100
  H        1.9894860     0.6779030     1.5004770
  H        3.2759230     1.0506550     0.2582410
  H        3.3211070    -1.4385120    -0.3773670
  H        2.0523810    -1.7508080     0.8974130
  H        0.1298880    -2.2506920    -0.3908910
  H       -2.4932330     1.8615660     0.3382590
  H       -2.3266410    -2.4532080     0.0346430
  H       -3.7041645    -0.3138276     0.1406516
units angstrom
no_reorient  #important for SAPT in psi4, default
symmetry c1  #important for SAPT in psi4, default
}

set PROPERTIES_ORIGIN ["COM"]
properties('MP2/aug-cc-pvtz', properties = ['dipole'])
--------------------------------------------------------------------------

    Molecular point group: c1
  Charge       = 0
  Multiplicity = 1
  Basis Set: AUG-CC-PVTZ
    Blend: AUG-CC-PVTZ
  Basis Set: (AUG-CC-PVTZ AUX)
    Blend: AUG-CC-PVTZ-JKFIT

    Orbital Energies [Eh]
    ---------------------

    Doubly Occupied:

       1A    -20.507780     2A    -15.627541     3A    -11.350525
       4A    -11.307125     5A    -11.279444     6A    -11.274248
       7A    -11.243354     8A    -11.239574     9A    -11.238066
      10A    -11.234234    11A     -1.370525    12A     -1.283334
      13A     -1.156244    14A     -1.095387    15A     -1.024901
      16A     -0.900115    17A     -0.868734    18A     -0.829651
      19A     -0.809545    20A     -0.725660    21A     -0.697402
      22A     -0.681000    23A     -0.661070    24A     -0.639381
      25A     -0.606559    26A     -0.595840    27A     -0.572016
      28A     -0.546994    29A     -0.534955    30A     -0.525913
      31A     -0.480795    32A     -0.456588    33A     -0.440096
      34A     -0.417722    35A     -0.400172    36A     -0.309108

  @DF-RHF Final Energy:  -437.60429109260508

   => Energetics <=

    Nuclear Repulsion Energy =            508.0455631643106926
    One-Electron Energy =               -1601.4365115493430949
    Two-Electron Energy =                 655.7866572924274351
    Total Energy =                       -437.6042910926050808
  Basis Set: (AUG-CC-PVTZ AUX)
    Blend: AUG-CC-PVTZ-RI
    Molecular point group: c1

    Geometry (in Angstrom), charge = 0, multiplicity = 1:

       Center              X                  Y                   Z               Mass
    ------------   -----------------  -----------------  -----------------  -----------------
         O            0.109129787464     2.098462698993    -0.205690408755    15.994914619570
         N            0.163698787464    -0.207978301007    -0.222752408755    14.003074004430
         C            1.578778787464    -0.133237301007    -0.501171408755    12.000000000000
         C            2.486614787464     0.375574698993     0.570721591245    12.000000000000
         C            2.511026787464    -1.082820301007     0.199171591245    12.000000000000
         C           -0.509604212536     1.033957698993    -0.085322408755    12.000000000000
         C           -0.474522212536    -1.421108301007    -0.204477408755    12.000000000000
         C           -1.922435212536     0.899389698993     0.199698591245    12.000000000000
         C           -1.817147212536    -1.513645301007     0.031025591245    12.000000000000
         C           -2.549810212536    -0.315821301007     0.243579591245    12.000000000000
         H            1.806112787464     0.155723698993    -1.524192408755     1.007825032230
         H            2.019850787464     0.645188698993     1.511194591245     1.007825032230
         H            3.306287787464     1.017940698993     0.268958591245     1.007825032230
         H            3.351471787464    -1.471226301007    -0.366649408755     1.007825032230
         H            2.082745787464    -1.783522301007     0.908130591245     1.007825032230
         H            0.160252787464    -2.283406301007    -0.380173408755     1.007825032230
         H           -2.462868212536     1.828851698993     0.348976591245     1.007825032230
         H           -2.296276212536    -2.485922301007     0.045360591245     1.007825032230
         H           -3.673799712536    -0.346541901007     0.151369191245     1.007825032230

  Basis Set: AUG-CC-PVTZ
    Blend: AUG-CC-PVTZ
  Basis Set: (AUG-CC-PVTZ AUX)
    Blend: AUG-CC-PVTZ-JKFIT
	 Reference Energy          =    -437.6042910926050808 [Eh]
	 Singles Energy            =      -0.0000000000000000 [Eh]
	 Same-Spin Energy          =      -0.4680930326309302 [Eh]
	 Opposite-Spin Energy      =      -1.4654969899794892 [Eh]
	 Correlation Energy        =      -1.9335900226104195 [Eh]
	 Total Energy              =    -439.5378811152154981 [Eh]

	 ================> DF-SCS-MP2 Energies <==================
	-----------------------------------------------------------
	 SCS Same-Spin Scale       =       0.3333333333333333 [-]
	 SCS Opposite-Spin Scale   =       1.2000000000000000 [-]
	 SCS Same-Spin Energy      =      -0.1560310108769767 [Eh]
	 SCS Opposite-Spin Energy  =      -1.7585963879753870 [Eh]
	 SCS Correlation Energy    =      -1.9146273988523637 [Eh]
	 SCS Total Energy          =    -439.5189184914574412 [Eh]
	-----------------------------------------------------------

  Dipole Moment: [D]
     X:     0.0221      Y:    -3.7684      Z:    -0.0276     Total:     3.7686

*** Psi4 exiting successfully. Buy a developer a beer!
