                               Psi4 1.3.2 release

  ==> Input File <==

--------------------------------------------------------------------------
#psi4
#
memory 32 gb

molecule  {
0 1
  O        0.0787650     2.1311770    -0.2164080
  N        0.1333340    -0.1752640    -0.2334700
  C        1.5484140    -0.1005230    -0.5118890
  C        2.4562500     0.4082890     0.5600040
  C        2.4806620    -1.0501060     0.1884540
  C       -0.5399690     1.0666720    -0.0960400
  C       -0.5048870    -1.3883940    -0.2151950
  C       -1.9528000     0.9321040     0.1889810
  C       -1.8475120    -1.4809310     0.0203080
  C       -2.5801750    -0.2831070     0.2328620
  H        1.7757480     0.1884380    -1.5349100
  H        1.9894860     0.6779030     1.5004770
  H        3.2759230     1.0506550     0.2582410
  H        3.3211070    -1.4385120    -0.3773670
  H        2.0523810    -1.7508080     0.8974130
  H        0.1473927    -2.2581674    -0.2927192
  H       -2.4932330     1.8615660     0.3382590
  H       -2.3266410    -2.4532080     0.0346430
  H       -3.6480090    -0.3319380     0.4347920
units angstrom
no_reorient  #important for SAPT in psi4, default
symmetry c1  #important for SAPT in psi4, default
}

set PROPERTIES_ORIGIN ["COM"]
properties('MP2/aug-cc-pvtz', properties = ['dipole'])
--------------------------------------------------------------------------

    Molecular point group: c1
  Charge       = 0
  Multiplicity = 1
  Basis Set: AUG-CC-PVTZ
    Blend: AUG-CC-PVTZ
  Basis Set: (AUG-CC-PVTZ AUX)
    Blend: AUG-CC-PVTZ-JKFIT

    Orbital Energies [Eh]
    ---------------------

    Doubly Occupied:

       1A    -20.507207     2A    -15.627409     3A    -11.350007
       4A    -11.307403     5A    -11.279363     6A    -11.270475
       7A    -11.243454     8A    -11.239470     9A    -11.237063
      10A    -11.234182    11A     -1.370107    12A     -1.283051
      13A     -1.156217    14A     -1.095930    15A     -1.024507
      16A     -0.901789    17A     -0.868817    18A     -0.829486
      19A     -0.810770    20A     -0.726414    21A     -0.696792
      22A     -0.681802    23A     -0.664158    24A     -0.640006
      25A     -0.606505    26A     -0.594364    27A     -0.576900
      28A     -0.545798    29A     -0.535728    30A     -0.525847
      31A     -0.480544    32A     -0.455847    33A     -0.440202
      34A     -0.420646    35A     -0.399783    36A     -0.308815

  @DF-RHF Final Energy:  -437.61007554250733

   => Energetics <=

    Nuclear Repulsion Energy =            508.2138812801356949
    One-Electron Energy =               -1601.7741899758430009
    Two-Electron Energy =                 655.9502331531999744
    Total Energy =                       -437.6100755425073885
  Basis Set: (AUG-CC-PVTZ AUX)
    Blend: AUG-CC-PVTZ-RI
    Molecular point group: c1

    Geometry (in Angstrom), charge = 0, multiplicity = 1:

       Center              X                  Y                   Z               Mass
    ------------   -----------------  -----------------  -----------------  -----------------
         O            0.108580165304     2.098653609725    -0.208617681269    15.994914619570
         N            0.163149165304    -0.207787390275    -0.225679681269    14.003074004430
         C            1.578229165304    -0.133046390275    -0.504098681269    12.000000000000
         C            2.486065165304     0.375765609725     0.567794318731    12.000000000000
         C            2.510477165304    -1.082629390275     0.196244318731    12.000000000000
         C           -0.510153834696     1.034148609725    -0.088249681269    12.000000000000
         C           -0.475071834696    -1.420917390275    -0.207404681269    12.000000000000
         C           -1.922984834696     0.899580609725     0.196771318731    12.000000000000
         C           -1.817696834696    -1.513454390275     0.028098318731    12.000000000000
         C           -2.550359834696    -0.315630390275     0.240652318731    12.000000000000
         H            1.805563165304     0.155914609725    -1.527119681269     1.007825032230
         H            2.019301165304     0.645379609725     1.508267318731     1.007825032230
         H            3.305738165304     1.018131609725     0.266031318731     1.007825032230
         H            3.350922165304    -1.471035390275    -0.369576681269     1.007825032230
         H            2.082196165304    -1.783331390275     0.905203318731     1.007825032230
         H            0.177207865304    -2.290690790275    -0.284928881269     1.007825032230
         H           -2.463417834696     1.829042609725     0.346049318731     1.007825032230
         H           -2.296825834696    -2.485731390275     0.042433318731     1.007825032230
         H           -3.618193834696    -0.364461390275     0.442582318731     1.007825032230

  Basis Set: AUG-CC-PVTZ
    Blend: AUG-CC-PVTZ
  Basis Set: (AUG-CC-PVTZ AUX)
    Blend: AUG-CC-PVTZ-JKFIT
	 Reference Energy          =    -437.6100755425073316 [Eh]
	 Singles Energy            =      -0.0000000000000000 [Eh]
	 Same-Spin Energy          =      -0.4678286683585498 [Eh]
	 Opposite-Spin Energy      =      -1.4647350627134248 [Eh]
	 Correlation Energy        =      -1.9325637310719745 [Eh]
	 Total Energy              =    -439.5426392735793115 [Eh]

	 ================> DF-SCS-MP2 Energies <==================
	-----------------------------------------------------------
	 SCS Same-Spin Scale       =       0.3333333333333333 [-]
	 SCS Opposite-Spin Scale   =       1.2000000000000000 [-]
	 SCS Same-Spin Energy      =      -0.1559428894528499 [Eh]
	 SCS Opposite-Spin Energy  =      -1.7576820752561098 [Eh]
	 SCS Correlation Energy    =      -1.9136249647089596 [Eh]
	 SCS Total Energy          =    -439.5237005072162901 [Eh]
	-----------------------------------------------------------

  Dipole Moment: [D]
     X:    -0.0066      Y:    -3.7887      Z:     0.2187     Total:     3.7950

*** Psi4 exiting successfully. Buy a developer a beer!
