                               Psi4 1.3.2 release

  ==> Input File <==

--------------------------------------------------------------------------
#psi4
#
memory 32 gb

molecule  {
0 1
  O        0.0787650     2.1311770    -0.2164080
  N        0.1333340    -0.1752640    -0.2334700
  C        1.5484140    -0.1005230    -0.5118890
  C        2.4562500     0.4082890     0.5600040
  C        2.4806620    -1.0501060     0.1884540
  C       -0.5399690     1.0666720    -0.0960400
  C       -0.5048870    -1.3883940    -0.2151950
  C       -1.9626578     0.9322334     0.1399626
  C       -1.8475120    -1.4809310     0.0203080
  C       -2.5801750    -0.2831070     0.2328620
  H        1.7757480     0.1884380    -1.5349100
  H        1.9894860     0.6779030     1.5004770
  H        3.2759230     1.0506550     0.2582410
  H        3.3211070    -1.4385120    -0.3773670
  H        2.0523810    -1.7508080     0.8974130
  H        0.1298880    -2.2506920    -0.3908910
  H       -2.4932330     1.8615660     0.3382590
  H       -2.3266410    -2.4532080     0.0346430
  H       -3.6480090    -0.3319380     0.4347920
units angstrom
no_reorient  #important for SAPT in psi4, default
symmetry c1  #important for SAPT in psi4, default
}

set PROPERTIES_ORIGIN ["COM"]
properties('MP2/aug-cc-pvtz', properties = ['dipole'])
--------------------------------------------------------------------------

    Molecular point group: c1
  Charge       = 0
  Multiplicity = 1
  Basis Set: AUG-CC-PVTZ
    Blend: AUG-CC-PVTZ
  Basis Set: (AUG-CC-PVTZ AUX)
    Blend: AUG-CC-PVTZ-JKFIT

    Orbital Energies [Eh]
    ---------------------

    Doubly Occupied:

       1A    -20.507346     2A    -15.627253     3A    -11.350158
       4A    -11.307027     5A    -11.279295     6A    -11.270145
       7A    -11.243191     8A    -11.239260     9A    -11.237048
      10A    -11.234109    11A     -1.370153    12A     -1.283058
      13A     -1.156189    14A     -1.096074    15A     -1.024543
      16A     -0.901581    17A     -0.868911    18A     -0.829460
      19A     -0.810831    20A     -0.725855    21A     -0.697512
      22A     -0.682342    23A     -0.663706    24A     -0.640280
      25A     -0.605914    26A     -0.594014    27A     -0.577397
      28A     -0.546149    29A     -0.534879    30A     -0.526223
      31A     -0.480715    32A     -0.455515    33A     -0.440192
      34A     -0.420688    35A     -0.399829    36A     -0.308873

  @DF-RHF Final Energy:  -437.61028831631461

   => Energetics <=

    Nuclear Repulsion Energy =            508.1927330565073362
    One-Electron Energy =               -1601.7346140527997704
    Two-Electron Energy =                 655.9315926799779390
    Total Energy =                       -437.6102883163146089
  Basis Set: (AUG-CC-PVTZ AUX)
    Blend: AUG-CC-PVTZ-RI
    Molecular point group: c1

    Geometry (in Angstrom), charge = 0, multiplicity = 1:

       Center              X                  Y                   Z               Mass
    ------------   -----------------  -----------------  -----------------  -----------------
         O            0.109586583244     2.098586334964    -0.203530179480    15.994914619570
         N            0.164155583244    -0.207854665036    -0.220592179480    14.003074004430
         C            1.579235583244    -0.133113665036    -0.499011179480    12.000000000000
         C            2.487071583244     0.375698334964     0.572881820520    12.000000000000
         C            2.511483583244    -1.082696665036     0.201331820520    12.000000000000
         C           -0.509147416756     1.034081334964    -0.083162179480    12.000000000000
         C           -0.474065416756    -1.420984665036    -0.202317179480    12.000000000000
         C           -1.931836216756     0.899642734964     0.152840420520    12.000000000000
         C           -1.816690416756    -1.513521665036     0.033185820520    12.000000000000
         C           -2.549353416756    -0.315697665036     0.245739820520    12.000000000000
         H            1.806569583244     0.155847334964    -1.522032179480     1.007825032230
         H            2.020307583244     0.645312334964     1.513354820520     1.007825032230
         H            3.306744583244     1.018064334964     0.271118820520     1.007825032230
         H            3.351928583244    -1.471102665036    -0.364489179480     1.007825032230
         H            2.083202583244    -1.783398665036     0.910290820520     1.007825032230
         H            0.160709583244    -2.283282665036    -0.378013179480     1.007825032230
         H           -2.462411416756     1.828975334964     0.351136820520     1.007825032230
         H           -2.295819416756    -2.485798665036     0.047520820520     1.007825032230
         H           -3.617187416756    -0.364528665036     0.447669820520     1.007825032230

  Basis Set: AUG-CC-PVTZ
    Blend: AUG-CC-PVTZ
  Basis Set: (AUG-CC-PVTZ AUX)
    Blend: AUG-CC-PVTZ-JKFIT
	 Reference Energy          =    -437.6102883163146089 [Eh]
	 Singles Energy            =      -0.0000000000000000 [Eh]
	 Same-Spin Energy          =      -0.4677189255229636 [Eh]
	 Opposite-Spin Energy      =      -1.4646116340030235 [Eh]
	 Correlation Energy        =      -1.9323305595259872 [Eh]
	 Total Energy              =    -439.5426188758406170 [Eh]

	 ================> DF-SCS-MP2 Energies <==================
	-----------------------------------------------------------
	 SCS Same-Spin Scale       =       0.3333333333333333 [-]
	 SCS Opposite-Spin Scale   =       1.2000000000000000 [-]
	 SCS Same-Spin Energy      =      -0.1559063085076545 [Eh]
	 SCS Opposite-Spin Energy  =      -1.7575339608036282 [Eh]
	 SCS Correlation Energy    =      -1.9134402693112826 [Eh]
	 SCS Total Energy          =    -439.5237285856259177 [Eh]
	-----------------------------------------------------------

  Dipole Moment: [D]
     X:    -0.0073      Y:    -3.7944      Z:     0.1847     Total:     3.7989

*** Psi4 exiting successfully. Buy a developer a beer!
