                               Psi4 1.3.2 release

  ==> Input File <==

--------------------------------------------------------------------------
#psi4
#
memory 32 gb

molecule  {
0 1
  O        0.0787650     2.1311770    -0.2164080
  N        0.1333340    -0.1752640    -0.2334700
  C        1.5484140    -0.1005230    -0.5118890
  C        2.4562500     0.4082890     0.5600040
  C        2.4806620    -1.0501060     0.1884540
  C       -0.5399690     1.0666720    -0.0960400
  C       -0.5048870    -1.3883940    -0.2151950
  C       -1.9528000     0.9321040     0.1889810
  C       -1.8475120    -1.4809310     0.0203080
  C       -2.5801750    -0.2831070     0.2328620
  H        1.7757480     0.1884380    -1.5349100
  H        1.9894860     0.6779030     1.5004770
  H        3.2759230     1.0506550     0.2582410
  H        3.3211070    -1.4385120    -0.3773670
  H        2.0523810    -1.7508080     0.8974130
  H        0.1386404    -2.2544297    -0.3418051
  H       -2.4932330     1.8615660     0.3382590
  H       -2.3266410    -2.4532080     0.0346430
  H       -3.6480090    -0.3319380     0.4347920
units angstrom
no_reorient  #important for SAPT in psi4, default
symmetry c1  #important for SAPT in psi4, default
}

set PROPERTIES_ORIGIN ["COM"]
properties('MP2/aug-cc-pvtz', properties = ['dipole'])
--------------------------------------------------------------------------

    Molecular point group: c1
  Charge       = 0
  Multiplicity = 1
  Basis Set: AUG-CC-PVTZ
    Blend: AUG-CC-PVTZ
  Basis Set: (AUG-CC-PVTZ AUX)
    Blend: AUG-CC-PVTZ-JKFIT

    Orbital Energies [Eh]
    ---------------------

    Doubly Occupied:

       1A    -20.507208     2A    -15.627384     3A    -11.349992
       4A    -11.307154     5A    -11.279334     6A    -11.270438
       7A    -11.243351     8A    -11.239366     9A    -11.236982
      10A    -11.234144    11A     -1.370099    12A     -1.283058
      13A     -1.156177    14A     -1.095876    15A     -1.024590
      16A     -0.901763    17A     -0.868903    18A     -0.829517
      19A     -0.810808    20A     -0.726206    21A     -0.697269
      22A     -0.681984    23A     -0.664074    24A     -0.640223
      25A     -0.606372    26A     -0.594290    27A     -0.577073
      28A     -0.545962    29A     -0.535555    30A     -0.526068
      31A     -0.480621    32A     -0.455656    33A     -0.440171
      34A     -0.420604    35A     -0.399785    36A     -0.308814

  @DF-RHF Final Energy:  -437.61058258628026

   => Energetics <=

    Nuclear Repulsion Energy =            508.2153019514299217
    One-Electron Energy =               -1601.7780323504346143
    Two-Electron Energy =                 655.9521478127244336
    Total Energy =                       -437.6105825862803158
  Basis Set: (AUG-CC-PVTZ AUX)
    Blend: AUG-CC-PVTZ-RI
    Molecular point group: c1

    Geometry (in Angstrom), charge = 0, multiplicity = 1:

       Center              X                  Y                   Z               Mass
    ------------   -----------------  -----------------  -----------------  -----------------
         O            0.108645471372     2.098625720542    -0.208251422443    15.994914619570
         N            0.163214471372    -0.207815279458    -0.225313422443    14.003074004430
         C            1.578294471372    -0.133074279458    -0.503732422443    12.000000000000
         C            2.486130471372     0.375737720542     0.568160577557    12.000000000000
         C            2.510542471372    -1.082657279458     0.196610577557    12.000000000000
         C           -0.510088528628     1.034120720542    -0.087883422443    12.000000000000
         C           -0.475006528628    -1.420945279458    -0.207038422443    12.000000000000
         C           -1.922919528628     0.899552720542     0.197137577557    12.000000000000
         C           -1.817631528628    -1.513482279458     0.028464577557    12.000000000000
         C           -2.550294528628    -0.315658279458     0.241018577557    12.000000000000
         H            1.805628471372     0.155886720542    -1.526753422443     1.007825032230
         H            2.019366471372     0.645351720542     1.508633577557     1.007825032230
         H            3.305803471372     1.018103720542     0.266397577557     1.007825032230
         H            3.350987471372    -1.471063279458    -0.369210422443     1.007825032230
         H            2.082261471372    -1.783359279458     0.905569577557     1.007825032230
         H            0.168520871372    -2.286980979458    -0.333648522443     1.007825032230
         H           -2.463352528628     1.829014720542     0.346415577557     1.007825032230
         H           -2.296760528628    -2.485759279458     0.042799577557     1.007825032230
         H           -3.618128528628    -0.364489279458     0.442948577557     1.007825032230

  Basis Set: AUG-CC-PVTZ
    Blend: AUG-CC-PVTZ
  Basis Set: (AUG-CC-PVTZ AUX)
    Blend: AUG-CC-PVTZ-JKFIT
	 Reference Energy          =    -437.6105825862802590 [Eh]
	 Singles Energy            =      -0.0000000000000000 [Eh]
	 Same-Spin Energy          =      -0.4677713460014062 [Eh]
	 Opposite-Spin Energy      =      -1.4646514475785304 [Eh]
	 Correlation Energy        =      -1.9324227935799365 [Eh]
	 Total Energy              =    -439.5430053798601762 [Eh]

	 ================> DF-SCS-MP2 Energies <==================
	-----------------------------------------------------------
	 SCS Same-Spin Scale       =       0.3333333333333333 [-]
	 SCS Opposite-Spin Scale   =       1.2000000000000000 [-]
	 SCS Same-Spin Energy      =      -0.1559237820004687 [Eh]
	 SCS Opposite-Spin Energy  =      -1.7575817370942364 [Eh]
	 SCS Correlation Energy    =      -1.9135055190947050 [Eh]
	 SCS Total Energy          =    -439.5240881053749717 [Eh]
	-----------------------------------------------------------

  Dipole Moment: [D]
     X:    -0.0082      Y:    -3.7923      Z:     0.1875     Total:     3.7969

*** Psi4 exiting successfully. Buy a developer a beer!
