                               Psi4 1.3.2 release

  ==> Input File <==

--------------------------------------------------------------------------
#psi4
#
memory 32 gb

molecule  {
0 1
  O        0.0787650     2.1311770    -0.2164080
  N        0.1333340    -0.1752640    -0.2334700
  C        1.5484140    -0.1005230    -0.5118890
  C        2.4562500     0.4082890     0.5600040
  C        2.4806620    -1.0501060     0.1884540
  C       -0.5399690     1.0666720    -0.0960400
  C       -0.5048870    -1.3883940    -0.2151950
  C       -1.9528000     0.9321040     0.1889810
  C       -1.8475120    -1.4809310     0.0203080
  C       -2.5801750    -0.2831070     0.2328620
  H        1.7757480     0.1884380    -1.5349100
  H        1.9894860     0.6779030     1.5004770
  H        3.2759230     1.0506550     0.2582410
  H        3.3211070    -1.4385120    -0.3773670
  H        2.0523810    -1.7508080     0.8974130
  H        0.1298880    -2.2506920    -0.3908910
  H       -2.5419642     1.8755721     0.0934548
  H       -2.3266410    -2.4532080     0.0346430
  H       -3.6480090    -0.3319380     0.4347920
units angstrom
no_reorient  #important for SAPT in psi4, default
symmetry c1  #important for SAPT in psi4, default
}

set PROPERTIES_ORIGIN ["COM"]
properties('MP2/aug-cc-pvtz', properties = ['dipole'])
--------------------------------------------------------------------------

    Molecular point group: c1
  Charge       = 0
  Multiplicity = 1
  Basis Set: AUG-CC-PVTZ
    Blend: AUG-CC-PVTZ
  Basis Set: (AUG-CC-PVTZ AUX)
    Blend: AUG-CC-PVTZ-JKFIT

    Orbital Energies [Eh]
    ---------------------

    Doubly Occupied:

       1A    -20.507159     2A    -15.627651     3A    -11.349960
       4A    -11.307916     5A    -11.279413     6A    -11.271314
       7A    -11.243382     8A    -11.239718     9A    -11.239198
      10A    -11.234148    11A     -1.370094    12A     -1.283275
      13A     -1.156313    14A     -1.095925    15A     -1.024316
      16A     -0.901648    17A     -0.868425    18A     -0.829220
      19A     -0.810610    20A     -0.725170    21A     -0.697819
      22A     -0.682491    23A     -0.663673    24A     -0.636352
      25A     -0.606050    26A     -0.594390    27A     -0.576963
      28A     -0.546904    29A     -0.531467    30A     -0.525904
      31A     -0.480630    32A     -0.455023    33A     -0.439566
      34A     -0.421942    35A     -0.399089    36A     -0.308970

  @DF-RHF Final Energy:  -437.60658639433598

   => Energetics <=

    Nuclear Repulsion Energy =            508.0738842153629093
    One-Electron Energy =               -1601.4967683563697847
    Two-Electron Energy =                 655.8162977466707844
    Total Energy =                       -437.6065863943359773
  Basis Set: (AUG-CC-PVTZ AUX)
    Blend: AUG-CC-PVTZ-RI
    Molecular point group: c1

    Geometry (in Angstrom), charge = 0, multiplicity = 1:

       Center              X                  Y                   Z               Mass
    ------------   -----------------  -----------------  -----------------  -----------------
         O            0.109074390387     2.098493323594    -0.206058535217    15.994914619570
         N            0.163643390387    -0.207947676406    -0.223120535217    14.003074004430
         C            1.578723390387    -0.133206676406    -0.501539535217    12.000000000000
         C            2.486559390387     0.375605323594     0.570353464783    12.000000000000
         C            2.510971390387    -1.082789676406     0.198803464783    12.000000000000
         C           -0.509659609613     1.033988323594    -0.085690535217    12.000000000000
         C           -0.474577609613    -1.421077676406    -0.204845535217    12.000000000000
         C           -1.922490609613     0.899420323594     0.199330464783    12.000000000000
         C           -1.817202609613    -1.513614676406     0.030657464783    12.000000000000
         C           -2.549865609613    -0.315790676406     0.243211464783    12.000000000000
         H            1.806057390387     0.155754323594    -1.524560535217     1.007825032230
         H            2.019795390387     0.645219323594     1.510826464783     1.007825032230
         H            3.306232390387     1.017971323594     0.268590464783     1.007825032230
         H            3.351416390387    -1.471195676406    -0.367017535217     1.007825032230
         H            2.082690390387    -1.783491676406     0.907762464783     1.007825032230
         H            0.160197390387    -2.283375676406    -0.380541535217     1.007825032230
         H           -2.511654809613     1.842888423594     0.103804264783     1.007825032230
         H           -2.296331609613    -2.485891676406     0.044992464783     1.007825032230
         H           -3.617699609613    -0.364621676406     0.445141464783     1.007825032230

  Basis Set: AUG-CC-PVTZ
    Blend: AUG-CC-PVTZ
  Basis Set: (AUG-CC-PVTZ AUX)
    Blend: AUG-CC-PVTZ-JKFIT
	 Reference Energy          =    -437.6065863943359773 [Eh]
	 Singles Energy            =      -0.0000000000000000 [Eh]
	 Same-Spin Energy          =      -0.4679190249972026 [Eh]
	 Opposite-Spin Energy      =      -1.4650336647491984 [Eh]
	 Correlation Energy        =      -1.9329526897464011 [Eh]
	 Total Energy              =    -439.5395390840823779 [Eh]

	 ================> DF-SCS-MP2 Energies <==================
	-----------------------------------------------------------
	 SCS Same-Spin Scale       =       0.3333333333333333 [-]
	 SCS Opposite-Spin Scale   =       1.2000000000000000 [-]
	 SCS Same-Spin Energy      =      -0.1559730083324009 [Eh]
	 SCS Opposite-Spin Energy  =      -1.7580403976990380 [Eh]
	 SCS Correlation Energy    =      -1.9140134060314389 [Eh]
	 SCS Total Energy          =    -439.5205998003673926 [Eh]
	-----------------------------------------------------------

  Dipole Moment: [D]
     X:    -0.0174      Y:    -3.8273      Z:    -0.0006     Total:     3.8274

*** Psi4 exiting successfully. Buy a developer a beer!
