                               Psi4 1.3.2 release

  ==> Input File <==

--------------------------------------------------------------------------
#psi4
#
memory 32 gb

molecule  {
0 1
  O        0.0787650     2.1311770    -0.2164080
  N        0.1333340    -0.1752640    -0.2334700
  C        1.5484140    -0.1005230    -0.5118890
  C        2.4562500     0.4082890     0.5600040
  C        2.4806620    -1.0501060     0.1884540
  C       -0.5399690     1.0666720    -0.0960400
  C       -0.5048870    -1.3883940    -0.2151950
  C       -2.0020888     0.9327509    -0.0561112
  C       -1.8475120    -1.4809310     0.0203080
  C       -2.5801750    -0.2831070     0.2328620
  H        1.7757480     0.1884380    -1.5349100
  H        1.9894860     0.6779030     1.5004770
  H        3.2759230     1.0506550     0.2582410
  H        3.3211070    -1.4385120    -0.3773670
  H        2.0523810    -1.7508080     0.8974130
  H        0.1298880    -2.2506920    -0.3908910
  H       -2.4932330     1.8615660     0.3382590
  H       -2.3266410    -2.4532080     0.0346430
  H       -3.6480090    -0.3319380     0.4347920
units angstrom
no_reorient  #important for SAPT in psi4, default
symmetry c1  #important for SAPT in psi4, default
}

set PROPERTIES_ORIGIN ["COM"]
properties('MP2/aug-cc-pvtz', properties = ['dipole'])
--------------------------------------------------------------------------

    Molecular point group: c1
  Charge       = 0
  Multiplicity = 1
  Basis Set: AUG-CC-PVTZ
    Blend: AUG-CC-PVTZ
  Basis Set: (AUG-CC-PVTZ AUX)
    Blend: AUG-CC-PVTZ-JKFIT

    Orbital Energies [Eh]
    ---------------------

    Doubly Occupied:

       1A    -20.508695     2A    -15.627450     3A    -11.352341
       4A    -11.309612     5A    -11.279817     6A    -11.273836
       7A    -11.243556     8A    -11.240248     9A    -11.239507
      10A    -11.234612    11A     -1.370522    12A     -1.283757
      13A     -1.156340    14A     -1.095539    15A     -1.022420
      16A     -0.899767    17A     -0.868203    18A     -0.829482
      19A     -0.809790    20A     -0.725414    21A     -0.695664
      22A     -0.681345    23A     -0.663842    24A     -0.635952
      25A     -0.604758    26A     -0.592245    27A     -0.577315
      28A     -0.545855    29A     -0.529152    30A     -0.524849
      31A     -0.481043    32A     -0.455094    33A     -0.440781
      34A     -0.419610    35A     -0.399039    36A     -0.310022

  @DF-RHF Final Energy:  -437.59456532625791

   => Energetics <=

    Nuclear Repulsion Energy =            507.5672908550603779
    One-Electron Energy =               -1600.4687573063240507
    Two-Electron Energy =                 655.3069011250058793
    Total Energy =                       -437.5945653262579071
  Basis Set: (AUG-CC-PVTZ AUX)
    Blend: AUG-CC-PVTZ-RI
    Molecular point group: c1

    Geometry (in Angstrom), charge = 0, multiplicity = 1:

       Center              X                  Y                   Z               Mass
    ------------   -----------------  -----------------  -----------------  -----------------
         O            0.113089785704     2.098540358263    -0.186110225163    15.994914619570
         N            0.167658785704    -0.207900641737    -0.203172225163    14.003074004430
         C            1.582738785704    -0.133159641737    -0.481591225163    12.000000000000
         C            2.490574785704     0.375652358263     0.590301774837    12.000000000000
         C            2.514986785704    -1.082742641737     0.218751774837    12.000000000000
         C           -0.505644214296     1.034035358263    -0.065742225163    12.000000000000
         C           -0.470562214296    -1.421030641737    -0.184897225163    12.000000000000
         C           -1.967764014296     0.900114258263    -0.025813425163    12.000000000000
         C           -1.813187214296    -1.513567641737     0.050605774837    12.000000000000
         C           -2.545850214296    -0.315743641737     0.263159774837    12.000000000000
         H            1.810072785704     0.155801358263    -1.504612225163     1.007825032230
         H            2.023810785704     0.645266358263     1.530774774837     1.007825032230
         H            3.310247785704     1.018018358263     0.288538774837     1.007825032230
         H            3.355431785704    -1.471148641737    -0.347069225163     1.007825032230
         H            2.086705785704    -1.783444641737     0.927710774837     1.007825032230
         H            0.164212785704    -2.283328641737    -0.360593225163     1.007825032230
         H           -2.458908214296     1.828929358263     0.368556774837     1.007825032230
         H           -2.292316214296    -2.485844641737     0.064940774837     1.007825032230
         H           -3.613684214296    -0.364574641737     0.465089774837     1.007825032230

  Basis Set: AUG-CC-PVTZ
    Blend: AUG-CC-PVTZ
  Basis Set: (AUG-CC-PVTZ AUX)
    Blend: AUG-CC-PVTZ-JKFIT
	 Reference Energy          =    -437.5945653262579071 [Eh]
	 Singles Energy            =      -0.0000000000000000 [Eh]
	 Same-Spin Energy          =      -0.4681405509053906 [Eh]
	 Opposite-Spin Energy      =      -1.4662631271117155 [Eh]
	 Correlation Energy        =      -1.9344036780171061 [Eh]
	 Total Energy              =    -439.5289690042750408 [Eh]

	 ================> DF-SCS-MP2 Energies <==================
	-----------------------------------------------------------
	 SCS Same-Spin Scale       =       0.3333333333333333 [-]
	 SCS Opposite-Spin Scale   =       1.2000000000000000 [-]
	 SCS Same-Spin Energy      =      -0.1560468503017969 [Eh]
	 SCS Opposite-Spin Energy  =      -1.7595157525340586 [Eh]
	 SCS Correlation Energy    =      -1.9155626028358554 [Eh]
	 SCS Total Energy          =    -439.5101279290937555 [Eh]
	-----------------------------------------------------------

  Dipole Moment: [D]
     X:     0.1010      Y:    -3.8544      Z:     0.2873     Total:     3.8665

*** Psi4 exiting successfully. Buy a developer a beer!
