                               Psi4 1.3.2 release

  ==> Input File <==

--------------------------------------------------------------------------
#psi4
#
memory 32 gb

molecule  {
0 1
  O        0.0787650     2.1311770    -0.2164080
  N        0.1333340    -0.1752640    -0.2334700
  C        1.5484140    -0.1005230    -0.5118890
  C        2.4562500     0.4082890     0.5600040
  C        2.4806620    -1.0501060     0.1884540
  C       -0.5399690     1.0666720    -0.0960400
  C       -0.5048870    -1.3883940    -0.2151950
  C       -1.9528000     0.9321040     0.1889810
  C       -1.8475120    -1.4809310     0.0203080
  C       -2.5801750    -0.2831070     0.2328620
  H        1.7757480     0.1884380    -1.5349100
  H        1.9894860     0.6779030     1.5004770
  H        3.2759230     1.0506550     0.2582410
  H        3.3211070    -1.4385120    -0.3773670
  H        2.0523810    -1.7508080     0.8974130
  H        0.1736499    -2.2693805    -0.1454615
  H       -2.4932330     1.8615660     0.3382590
  H       -2.3266410    -2.4532080     0.0346430
  H       -3.6480090    -0.3319380     0.4347920
units angstrom
no_reorient  #important for SAPT in psi4, default
symmetry c1  #important for SAPT in psi4, default
}

set PROPERTIES_ORIGIN ["COM"]
properties('MP2/aug-cc-pvtz', properties = ['dipole'])
--------------------------------------------------------------------------

    Molecular point group: c1
  Charge       = 0
  Multiplicity = 1
  Basis Set: AUG-CC-PVTZ
    Blend: AUG-CC-PVTZ
  Basis Set: (AUG-CC-PVTZ AUX)
    Blend: AUG-CC-PVTZ-JKFIT

    Orbital Energies [Eh]
    ---------------------

    Doubly Occupied:

       1A    -20.507294     2A    -15.627373     3A    -11.350150
       4A    -11.309110     5A    -11.279323     6A    -11.270733
       7A    -11.243618     8A    -11.240193     9A    -11.237648
      10A    -11.234190    11A     -1.370170    12A     -1.282928
      13A     -1.156283    14A     -1.096209    15A     -1.023929
      16A     -0.901699    17A     -0.868102    18A     -0.829111
      19A     -0.810591    20A     -0.726499    21A     -0.694950
      22A     -0.681211    23A     -0.663421    24A     -0.638894
      25A     -0.606672    26A     -0.594171    27A     -0.576245
      28A     -0.545334    29A     -0.536094    30A     -0.524730
      31A     -0.479948    32A     -0.456318    33A     -0.440158
      34A     -0.420758    35A     -0.399762    36A     -0.308909

  @DF-RHF Final Energy:  -437.60626153652288

   => Energetics <=

    Nuclear Repulsion Energy =            508.1540492333472230
    One-Electron Energy =               -1601.6551723762840993
    Two-Electron Energy =                 655.8948616064139969
    Total Energy =                       -437.6062615365228794
  Basis Set: (AUG-CC-PVTZ AUX)
    Blend: AUG-CC-PVTZ-RI
    Molecular point group: c1

    Geometry (in Angstrom), charge = 0, multiplicity = 1:

       Center              X                  Y                   Z               Mass
    ------------   -----------------  -----------------  -----------------  -----------------
         O            0.108384244861     2.098737277272    -0.209716457748    15.994914619570
         N            0.162953244861    -0.207703722728    -0.226778457748    14.003074004430
         C            1.578033244861    -0.132962722728    -0.505197457748    12.000000000000
         C            2.485869244861     0.375849277272     0.566695542252    12.000000000000
         C            2.510281244861    -1.082545722728     0.195145542252    12.000000000000
         C           -0.510349755139     1.034232277272    -0.089348457748    12.000000000000
         C           -0.475267755139    -1.420833722728    -0.208503457748    12.000000000000
         C           -1.923180755139     0.899664277272     0.195672542252    12.000000000000
         C           -1.817892755139    -1.513370722728     0.026999542252    12.000000000000
         C           -2.550555755139    -0.315546722728     0.239553542252    12.000000000000
         H            1.805367244861     0.155998277272    -1.528218457748     1.007825032230
         H            2.019105244861     0.645463277272     1.507168542252     1.007825032230
         H            3.305542244861     1.018215277272     0.264932542252     1.007825032230
         H            3.350726244861    -1.470951722728    -0.370675457748     1.007825032230
         H            2.082000244861    -1.783247722728     0.904104542252     1.007825032230
         H            0.203269144861    -2.301820222728    -0.138769957748     1.007825032230
         H           -2.463613755139     1.829126277272     0.344950542252     1.007825032230
         H           -2.297021755139    -2.485647722728     0.041334542252     1.007825032230
         H           -3.618389755139    -0.364377722728     0.441483542252     1.007825032230

  Basis Set: AUG-CC-PVTZ
    Blend: AUG-CC-PVTZ
  Basis Set: (AUG-CC-PVTZ AUX)
    Blend: AUG-CC-PVTZ-JKFIT
	 Reference Energy          =    -437.6062615365228794 [Eh]
	 Singles Energy            =      -0.0000000000000000 [Eh]
	 Same-Spin Energy          =      -0.4681664596637160 [Eh]
	 Opposite-Spin Energy      =      -1.4653670496011131 [Eh]
	 Correlation Energy        =      -1.9335335092648291 [Eh]
	 Total Energy              =    -439.5397950457876846 [Eh]

	 ================> DF-SCS-MP2 Energies <==================
	-----------------------------------------------------------
	 SCS Same-Spin Scale       =       0.3333333333333333 [-]
	 SCS Opposite-Spin Scale   =       1.2000000000000000 [-]
	 SCS Same-Spin Energy      =      -0.1560554865545720 [Eh]
	 SCS Opposite-Spin Energy  =      -1.7584404595213357 [Eh]
	 SCS Correlation Energy    =      -1.9144959460759077 [Eh]
	 SCS Total Energy          =    -439.5207574825988104 [Eh]
	-----------------------------------------------------------

  Dipole Moment: [D]
     X:    -0.0209      Y:    -3.7615      Z:     0.3133     Total:     3.7746

*** Psi4 exiting successfully. Buy a developer a beer!
