                               Psi4 1.3.2 release

  ==> Input File <==

--------------------------------------------------------------------------
#psi4
#
memory 32 gb

molecule  {
0 1
  O        0.0787650     2.1311770    -0.2164080
  N        0.1333340    -0.1752640    -0.2334700
  C        1.5484140    -0.1005230    -0.5118890
  C        2.4562500     0.4082890     0.5600040
  C        2.4806620    -1.0501060     0.1884540
  C       -0.5399690     1.0666720    -0.0960400
  C       -0.5048870    -1.3883940    -0.2151950
  C       -1.9528000     0.9321040     0.1889810
  C       -1.8475120    -1.4809310     0.0203080
  C       -2.5801750    -0.2831070     0.2328620
  H        1.7757480     0.1884380    -1.5349100
  H        1.9894860     0.6779030     1.5004770
  H        3.2759230     1.0506550     0.2582410
  H        3.3211070    -1.4385120    -0.3773670
  H        2.0523810    -1.7508080     0.8974130
  H        0.1298880    -2.2506920    -0.3908910
  H       -2.4932330     1.8615660     0.3382590
  H       -2.3266410    -2.4532080     0.0346430
  H       -3.6854460    -0.3198644     0.2386984
units angstrom
no_reorient  #important for SAPT in psi4, default
symmetry c1  #important for SAPT in psi4, default
}

set PROPERTIES_ORIGIN ["COM"]
properties('MP2/aug-cc-pvtz', properties = ['dipole'])
--------------------------------------------------------------------------

    Molecular point group: c1
  Charge       = 0
  Multiplicity = 1
  Basis Set: AUG-CC-PVTZ
    Blend: AUG-CC-PVTZ
  Basis Set: (AUG-CC-PVTZ AUX)
    Blend: AUG-CC-PVTZ-JKFIT

    Orbital Energies [Eh]
    ---------------------

    Doubly Occupied:

       1A    -20.507470     2A    -15.627422     3A    -11.350231
       4A    -11.307097     5A    -11.279347     6A    -11.272159
       7A    -11.243274     8A    -11.239433     9A    -11.237452
      10A    -11.234145    11A     -1.370283    12A     -1.283171
      13A     -1.156173    14A     -1.095627    15A     -1.024736
      16A     -0.900946    17A     -0.868819    18A     -0.829558
      19A     -0.810208    20A     -0.725755    21A     -0.697523
      22A     -0.681690    23A     -0.662480    24A     -0.639886
      25A     -0.606408    26A     -0.595304    27A     -0.574199
      28A     -0.546770    29A     -0.535315    30A     -0.526041
      31A     -0.480703    32A     -0.456319    33A     -0.440064
      34A     -0.418534    35A     -0.400373    36A     -0.308943

  @DF-RHF Final Energy:  -437.60805390812169

   => Energetics <=

    Nuclear Repulsion Energy =            508.1314609568740934
    One-Electron Energy =               -1601.6113158119835589
    Two-Electron Energy =                 655.8718009469877188
    Total Energy =                       -437.6080539081216330
  Basis Set: (AUG-CC-PVTZ AUX)
    Blend: AUG-CC-PVTZ-RI
    Molecular point group: c1

    Geometry (in Angstrom), charge = 0, multiplicity = 1:

       Center              X                  Y                   Z               Mass
    ------------   -----------------  -----------------  -----------------  -----------------
         O            0.108990117705     2.098507743115    -0.206421993709    15.994914619570
         N            0.163559117705    -0.207933256885    -0.223483993709    14.003074004430
         C            1.578639117705    -0.133192256885    -0.501902993709    12.000000000000
         C            2.486475117705     0.375619743115     0.569990006291    12.000000000000
         C            2.510887117705    -1.082775256885     0.198440006291    12.000000000000
         C           -0.509743882295     1.034002743115    -0.086053993709    12.000000000000
         C           -0.474661882295    -1.421063256885    -0.205208993709    12.000000000000
         C           -1.922574882295     0.899434743115     0.198967006291    12.000000000000
         C           -1.817286882295    -1.513600256885     0.030294006291    12.000000000000
         C           -2.549949882295    -0.315776256885     0.242848006291    12.000000000000
         H            1.805973117705     0.155768743115    -1.524923993709     1.007825032230
         H            2.019711117705     0.645233743115     1.510463006291     1.007825032230
         H            3.306148117705     1.017985743115     0.268227006291     1.007825032230
         H            3.351332117705    -1.471181256885    -0.367380993709     1.007825032230
         H            2.082606117705    -1.783477256885     0.907399006291     1.007825032230
         H            0.160113117705    -2.283361256885    -0.380904993709     1.007825032230
         H           -2.463007882295     1.828896743115     0.348245006291     1.007825032230
         H           -2.296415882295    -2.485877256885     0.044629006291     1.007825032230
         H           -3.655220882295    -0.352533656885     0.248684406291     1.007825032230

  Basis Set: AUG-CC-PVTZ
    Blend: AUG-CC-PVTZ
  Basis Set: (AUG-CC-PVTZ AUX)
    Blend: AUG-CC-PVTZ-JKFIT
	 Reference Energy          =    -437.6080539081216898 [Eh]
	 Singles Energy            =      -0.0000000000000000 [Eh]
	 Same-Spin Energy          =      -0.4679004054172754 [Eh]
	 Opposite-Spin Energy      =      -1.4649991868424268 [Eh]
	 Correlation Energy        =      -1.9328995922597021 [Eh]
	 Total Energy              =    -439.5409535003814199 [Eh]

	 ================> DF-SCS-MP2 Energies <==================
	-----------------------------------------------------------
	 SCS Same-Spin Scale       =       0.3333333333333333 [-]
	 SCS Opposite-Spin Scale   =       1.2000000000000000 [-]
	 SCS Same-Spin Energy      =      -0.1559668018057584 [Eh]
	 SCS Opposite-Spin Energy  =      -1.7579990242109120 [Eh]
	 SCS Correlation Energy    =      -1.9139658260166705 [Eh]
	 SCS Total Energy          =    -439.5220197341383823 [Eh]
	-----------------------------------------------------------

  Dipole Moment: [D]
     X:    -0.0049      Y:    -3.7799      Z:     0.0348     Total:     3.7800

*** Psi4 exiting successfully. Buy a developer a beer!
