                               Psi4 1.3.2 release

  ==> Input File <==

--------------------------------------------------------------------------
#psi4
#
memory 32 gb

molecule  {
0 1
  O        0.0787650     2.1311770    -0.2164080
  N        0.1333340    -0.1752640    -0.2334700
  C        1.5484140    -0.1005230    -0.5118890
  C        2.4562500     0.4082890     0.5600040
  C        2.4806620    -1.0501060     0.1884540
  C       -0.5399690     1.0666720    -0.0960400
  C       -0.5048870    -1.3883940    -0.2151950
  C       -1.9528000     0.9321040     0.1889810
  C       -1.8475120    -1.4809310     0.0203080
  C       -2.5801750    -0.2831070     0.2328620
  H        1.7757480     0.1884380    -1.5349100
  H        1.9894860     0.6779030     1.5004770
  H        3.2759230     1.0506550     0.2582410
  H        3.3211070    -1.4385120    -0.3773670
  H        2.0523810    -1.7508080     0.8974130
  H        0.1298880    -2.2506920    -0.3908910
  H       -2.4932330     1.8615660     0.3382590
  H       -2.2916092    -2.4670564     0.2310635
  H       -3.6480090    -0.3319380     0.4347920
units angstrom
no_reorient  #important for SAPT in psi4, default
symmetry c1  #important for SAPT in psi4, default
}

set PROPERTIES_ORIGIN ["COM"]
properties('MP2/aug-cc-pvtz', properties = ['dipole'])
--------------------------------------------------------------------------

    Molecular point group: c1
  Charge       = 0
  Multiplicity = 1
  Basis Set: AUG-CC-PVTZ
    Blend: AUG-CC-PVTZ
  Basis Set: (AUG-CC-PVTZ AUX)
    Blend: AUG-CC-PVTZ-JKFIT

    Orbital Energies [Eh]
    ---------------------

    Doubly Occupied:

       1A    -20.507637     2A    -15.627792     3A    -11.350329
       4A    -11.307616     5A    -11.279487     6A    -11.270460
       7A    -11.243433     8A    -11.240684     9A    -11.236977
      10A    -11.234411    11A     -1.370455    12A     -1.283408
      13A     -1.156310    14A     -1.095785    15A     -1.024411
      16A     -0.901737    17A     -0.868783    18A     -0.829658
      19A     -0.810482    20A     -0.725332    21A     -0.697890
      22A     -0.681368    23A     -0.663790    24A     -0.639988
      25A     -0.606224    26A     -0.593603    27A     -0.575894
      28A     -0.546674    29A     -0.535134    30A     -0.526433
      31A     -0.480763    32A     -0.454562    33A     -0.439931
      34A     -0.420824    35A     -0.400268    36A     -0.308974

  @DF-RHF Final Energy:  -437.60845374616292

   => Energetics <=

    Nuclear Repulsion Energy =            508.1486858608272428
    One-Electron Energy =               -1601.6392608042137908
    Two-Electron Energy =                 655.8821211972235687
    Total Energy =                       -437.6084537461629225
  Basis Set: (AUG-CC-PVTZ AUX)
    Blend: AUG-CC-PVTZ-RI
    Molecular point group: c1

    Geometry (in Angstrom), charge = 0, multiplicity = 1:

       Center              X                  Y                   Z               Mass
    ------------   -----------------  -----------------  -----------------  -----------------
         O            0.108449385282     2.098701162433    -0.209350772718    15.994914619570
         N            0.163018385282    -0.207739837567    -0.226412772718    14.003074004430
         C            1.578098385282    -0.132998837567    -0.504831772718    12.000000000000
         C            2.485934385282     0.375813162433     0.567061227282    12.000000000000
         C            2.510346385282    -1.082581837567     0.195511227282    12.000000000000
         C           -0.510284614718     1.034196162433    -0.088982772718    12.000000000000
         C           -0.475202614718    -1.420869837567    -0.208137772718    12.000000000000
         C           -1.923115614718     0.899628162433     0.196038227282    12.000000000000
         C           -1.817827614718    -1.513406837567     0.027365227282    12.000000000000
         C           -2.550490614718    -0.315582837567     0.239919227282    12.000000000000
         H            1.805432385282     0.155962162433    -1.527852772718     1.007825032230
         H            2.019170385282     0.645427162433     1.507534227282     1.007825032230
         H            3.305607385282     1.018179162433     0.265298227282     1.007825032230
         H            3.350791385282    -1.470987837567    -0.370309772718     1.007825032230
         H            2.082065385282    -1.783283837567     0.904470227282     1.007825032230
         H            0.159572385282    -2.283167837567    -0.383833772718     1.007825032230
         H           -2.463548614718     1.829090162433     0.345316227282     1.007825032230
         H           -2.261924814718    -2.499532237567     0.238120727282     1.007825032230
         H           -3.618324614718    -0.364413837567     0.441849227282     1.007825032230

  Basis Set: AUG-CC-PVTZ
    Blend: AUG-CC-PVTZ
  Basis Set: (AUG-CC-PVTZ AUX)
    Blend: AUG-CC-PVTZ-JKFIT
	 Reference Energy          =    -437.6084537461629225 [Eh]
	 Singles Energy            =      -0.0000000000000000 [Eh]
	 Same-Spin Energy          =      -0.4678122333737410 [Eh]
	 Opposite-Spin Energy      =      -1.4648424284770420 [Eh]
	 Correlation Energy        =      -1.9326546618507829 [Eh]
	 Total Energy              =    -439.5411084080137130 [Eh]

	 ================> DF-SCS-MP2 Energies <==================
	-----------------------------------------------------------
	 SCS Same-Spin Scale       =       0.3333333333333333 [-]
	 SCS Opposite-Spin Scale   =       1.2000000000000000 [-]
	 SCS Same-Spin Energy      =      -0.1559374111245803 [Eh]
	 SCS Opposite-Spin Energy  =      -1.7578109141724505 [Eh]
	 SCS Correlation Energy    =      -1.9137483252970309 [Eh]
	 SCS Total Energy          =    -439.5222020714599580 [Eh]
	-----------------------------------------------------------

  Dipole Moment: [D]
     X:     0.0371      Y:    -3.7664      Z:     0.2970     Total:     3.7783

*** Psi4 exiting successfully. Buy a developer a beer!
