                               Psi4 1.3.2 release

  ==> Input File <==

--------------------------------------------------------------------------
#psi4
#
memory 32 gb

molecule  {
0 1
  O        0.0787650     2.1311770    -0.2164080
  N        0.1333340    -0.1752640    -0.2334700
  C        1.5484140    -0.1005230    -0.5118890
  C        2.4562500     0.4082890     0.5600040
  C        2.4806620    -1.0501060     0.1884540
  C       -0.5399690     1.0666720    -0.0960400
  C       -0.5048870    -1.3883940    -0.2151950
  C       -1.9528000     0.9321040     0.1889810
  C       -1.8475120    -1.4809310     0.0203080
  C       -2.5801750    -0.2831070     0.2328620
  H        1.7757480     0.1884380    -1.5349100
  H        1.9894860     0.6779030     1.5004770
  H        3.2759230     1.0506550     0.2582410
  H        3.3211070    -1.4385120    -0.3773670
  H        2.0523810    -1.7508080     0.8974130
  H        0.1298880    -2.2506920    -0.3908910
  H       -2.4932330     1.8615660     0.3382590
  H       -2.3266410    -2.4532080     0.0346430
  H       -3.6948052    -0.3168460     0.1896750
units angstrom
no_reorient  #important for SAPT in psi4, default
symmetry c1  #important for SAPT in psi4, default
}

set PROPERTIES_ORIGIN ["COM"]
properties('MP2/aug-cc-pvtz', properties = ['dipole'])
--------------------------------------------------------------------------

    Molecular point group: c1
  Charge       = 0
  Multiplicity = 1
  Basis Set: AUG-CC-PVTZ
    Blend: AUG-CC-PVTZ
  Basis Set: (AUG-CC-PVTZ AUX)
    Blend: AUG-CC-PVTZ-JKFIT

    Orbital Energies [Eh]
    ---------------------

    Doubly Occupied:

       1A    -20.507610     2A    -15.627475     3A    -11.350364
       4A    -11.307109     5A    -11.279390     6A    -11.273109
       7A    -11.243309     8A    -11.239495     9A    -11.237730
      10A    -11.234185    11A     -1.370392    12A     -1.283244
      13A     -1.156204    14A     -1.095514    15A     -1.024809
      16A     -0.900557    17A     -0.868778    18A     -0.829599
      19A     -0.809899    20A     -0.725705    21A     -0.697461
      22A     -0.681367    23A     -0.661830    24A     -0.639660
      25A     -0.606479    26A     -0.595579    27A     -0.573156
      28A     -0.546893    29A     -0.535170    30A     -0.525984
      31A     -0.480744    32A     -0.456465    33A     -0.440075
      34A     -0.418106    35A     -0.400317    36A     -0.309017

  @DF-RHF Final Energy:  -437.60640482092487

   => Energetics <=

    Nuclear Repulsion Energy =            508.0921748160991456
    One-Electron Energy =               -1601.5316106307902828
    Two-Electron Energy =                 655.8330309937662150
    Total Energy =                       -437.6064048209248085
  Basis Set: (AUG-CC-PVTZ AUX)
    Blend: AUG-CC-PVTZ-RI
    Molecular point group: c1

    Geometry (in Angstrom), charge = 0, multiplicity = 1:

       Center              X                  Y                   Z               Mass
    ------------   -----------------  -----------------  -----------------  -----------------
         O            0.109059952212     2.098485221054    -0.206056201232    15.994914619570
         N            0.163628952212    -0.207955778946    -0.223118201232    14.003074004430
         C            1.578708952212    -0.133214778946    -0.501537201232    12.000000000000
         C            2.486544952212     0.375597221054     0.570355798768    12.000000000000
         C            2.510956952212    -1.082797778946     0.198805798768    12.000000000000
         C           -0.509674047788     1.033980221054    -0.085688201232    12.000000000000
         C           -0.474592047788    -1.421085778946    -0.204843201232    12.000000000000
         C           -1.922505047788     0.899412221054     0.199332798768    12.000000000000
         C           -1.817217047788    -1.513622778946     0.030659798768    12.000000000000
         C           -2.549880047788    -0.315798778946     0.243213798768    12.000000000000
         H            1.806042952212     0.155746221054    -1.524558201232     1.007825032230
         H            2.019780952212     0.645211221054     1.510828798768     1.007825032230
         H            3.306217952212     1.017963221054     0.268592798768     1.007825032230
         H            3.351401952212    -1.471203778946    -0.367015201232     1.007825032230
         H            2.082675952212    -1.783499778946     0.907764798768     1.007825032230
         H            0.160182952212    -2.283383778946    -0.380539201232     1.007825032230
         H           -2.462938047788     1.828874221054     0.348610798768     1.007825032230
         H           -2.296346047788    -2.485899778946     0.044994798768     1.007825032230
         H           -3.664510247788    -0.349537778946     0.200026798768     1.007825032230

  Basis Set: AUG-CC-PVTZ
    Blend: AUG-CC-PVTZ
  Basis Set: (AUG-CC-PVTZ AUX)
    Blend: AUG-CC-PVTZ-JKFIT
	 Reference Energy          =    -437.6064048209248654 [Eh]
	 Singles Energy            =      -0.0000000000000000 [Eh]
	 Same-Spin Energy          =      -0.4679876851436839 [Eh]
	 Opposite-Spin Energy      =      -1.4652201962133797 [Eh]
	 Correlation Energy        =      -1.9332078813570637 [Eh]
	 Total Energy              =    -439.5396127022819428 [Eh]

	 ================> DF-SCS-MP2 Energies <==================
	-----------------------------------------------------------
	 SCS Same-Spin Scale       =       0.3333333333333333 [-]
	 SCS Opposite-Spin Scale   =       1.2000000000000000 [-]
	 SCS Same-Spin Energy      =      -0.1559958950478946 [Eh]
	 SCS Opposite-Spin Energy  =      -1.7582642354560556 [Eh]
	 SCS Correlation Energy    =      -1.9142601305039502 [Eh]
	 SCS Total Energy          =    -439.5206649514288415 [Eh]
	-----------------------------------------------------------

  Dipole Moment: [D]
     X:     0.0067      Y:    -3.7745      Z:     0.0036     Total:     3.7745

*** Psi4 exiting successfully. Buy a developer a beer!
