                               Psi4 1.3.2 release

  ==> Input File <==

--------------------------------------------------------------------------
#psi4
#
memory 32 gb

molecule  {
0 1
  O        0.0787650     2.1311770    -0.2164080
  N        0.1333340    -0.1752640    -0.2334700
  C        1.5484140    -0.1005230    -0.5118890
  C        2.4562500     0.4082890     0.5600040
  C        2.4806620    -1.0501060     0.1884540
  C       -0.5399690     1.0666720    -0.0960400
  C       -0.5048870    -1.3883940    -0.2151950
  C       -1.9528000     0.9321040     0.1889810
  C       -1.8475120    -1.4809310     0.0203080
  C       -2.5801750    -0.2831070     0.2328620
  H        1.7757480     0.1884380    -1.5349100
  H        1.9894860     0.6779030     1.5004770
  H        3.2759230     1.0506550     0.2582410
  H        3.3211070    -1.4385120    -0.3773670
  H        2.0523810    -1.7508080     0.8974130
  H        0.1561451    -2.2619051    -0.2436333
  H       -2.4932330     1.8615660     0.3382590
  H       -2.3266410    -2.4532080     0.0346430
  H       -3.6480090    -0.3319380     0.4347920
units angstrom
no_reorient  #important for SAPT in psi4, default
symmetry c1  #important for SAPT in psi4, default
}

set PROPERTIES_ORIGIN ["COM"]
properties('MP2/aug-cc-pvtz', properties = ['dipole'])
--------------------------------------------------------------------------

    Molecular point group: c1
  Charge       = 0
  Multiplicity = 1
  Basis Set: AUG-CC-PVTZ
    Blend: AUG-CC-PVTZ
  Basis Set: (AUG-CC-PVTZ AUX)
    Blend: AUG-CC-PVTZ-JKFIT

    Orbital Energies [Eh]
    ---------------------

    Doubly Occupied:

       1A    -20.507220     2A    -15.627415     3A    -11.350039
       4A    -11.307815     5A    -11.279371     6A    -11.270537
       7A    -11.243533     8A    -11.239644     9A    -11.237202
      10A    -11.234203    11A     -1.370121    12A     -1.283026
      13A     -1.156248    14A     -1.096004    15A     -1.024365
      16A     -0.901785    17A     -0.868649    18A     -0.829405
      19A     -0.810720    20A     -0.726527    21A     -0.696225
      22A     -0.681610    23A     -0.664080    24A     -0.639716
      25A     -0.606606    26A     -0.594362    27A     -0.576705
      28A     -0.545637    29A     -0.535877    30A     -0.525557
      31A     -0.480406    32A     -0.456022    33A     -0.440210
      34A     -0.420686    35A     -0.399778    36A     -0.308831

  @DF-RHF Final Energy:  -437.60921022798578

   => Energetics <=

    Nuclear Repulsion Energy =            508.2029883261769783
    One-Electron Energy =               -1601.7521202405546319
    Two-Electron Energy =                 655.9399216863918127
    Total Energy =                       -437.6092102279857272
  Basis Set: (AUG-CC-PVTZ AUX)
    Blend: AUG-CC-PVTZ-RI
    Molecular point group: c1

    Geometry (in Angstrom), charge = 0, multiplicity = 1:

       Center              X                  Y                   Z               Mass
    ------------   -----------------  -----------------  -----------------  -----------------
         O            0.108514858490     2.098681498907    -0.208983940095    15.994914619570
         N            0.163083858490    -0.207759501093    -0.226045940095    14.003074004430
         C            1.578163858490    -0.133018501093    -0.504464940095    12.000000000000
         C            2.485999858490     0.375793498907     0.567428059905    12.000000000000
         C            2.510411858490    -1.082601501093     0.195878059905    12.000000000000
         C           -0.510219141510     1.034176498907    -0.088615940095    12.000000000000
         C           -0.475137141510    -1.420889501093    -0.207770940095    12.000000000000
         C           -1.923050141510     0.899608498907     0.196405059905    12.000000000000
         C           -1.817762141510    -1.513426501093     0.027732059905    12.000000000000
         C           -2.550425141510    -0.315602501093     0.240286059905    12.000000000000
         H            1.805497858490     0.155942498907    -1.527485940095     1.007825032230
         H            2.019235858490     0.645407498907     1.507901059905     1.007825032230
         H            3.305672858490     1.018159498907     0.265665059905     1.007825032230
         H            3.350856858490    -1.471007501093    -0.369942940095     1.007825032230
         H            2.082130858490    -1.783303501093     0.904837059905     1.007825032230
         H            0.185894958490    -2.294400601093    -0.236209240095     1.007825032230
         H           -2.463483141510     1.829070498907     0.345683059905     1.007825032230
         H           -2.296891141510    -2.485703501093     0.042067059905     1.007825032230
         H           -3.618259141510    -0.364433501093     0.442216059905     1.007825032230

  Basis Set: AUG-CC-PVTZ
    Blend: AUG-CC-PVTZ
  Basis Set: (AUG-CC-PVTZ AUX)
    Blend: AUG-CC-PVTZ-JKFIT
	 Reference Energy          =    -437.6092102279857841 [Eh]
	 Singles Energy            =      -0.0000000000000000 [Eh]
	 Same-Spin Energy          =      -0.4679138785469372 [Eh]
	 Opposite-Spin Energy      =      -1.4648805450027240 [Eh]
	 Correlation Energy        =      -1.9327944235496612 [Eh]
	 Total Energy              =    -439.5420046515354215 [Eh]

	 ================> DF-SCS-MP2 Energies <==================
	-----------------------------------------------------------
	 SCS Same-Spin Scale       =       0.3333333333333333 [-]
	 SCS Opposite-Spin Scale   =       1.2000000000000000 [-]
	 SCS Same-Spin Energy      =      -0.1559712928489791 [Eh]
	 SCS Opposite-Spin Energy  =      -1.7578566540032687 [Eh]
	 SCS Correlation Energy    =      -1.9138279468522479 [Eh]
	 SCS Total Energy          =    -439.5230381748380069 [Eh]
	-----------------------------------------------------------

  Dipole Moment: [D]
     X:    -0.0083      Y:    -3.7823      Z:     0.2501     Total:     3.7906

*** Psi4 exiting successfully. Buy a developer a beer!
