                               Psi4 1.3.2 release

  ==> Input File <==

--------------------------------------------------------------------------
#psi4
#
memory 32 gb

molecule  {
0 1
  O        0.0787650     2.1311770    -0.2164080
  N        0.1333340    -0.1752640    -0.2334700
  C        1.5484140    -0.1005230    -0.5118890
  C        2.4562500     0.4082890     0.5600040
  C        2.4806620    -1.0501060     0.1884540
  C       -0.5399690     1.0666720    -0.0960400
  C       -0.5048870    -1.3883940    -0.2151950
  C       -1.9528000     0.9321040     0.1889810
  C       -1.8475120    -1.4809310     0.0203080
  C       -2.5801750    -0.2831070     0.2328620
  H        1.7757480     0.1884380    -1.5349100
  H        1.9894860     0.6779030     1.5004770
  H        3.2759230     1.0506550     0.2582410
  H        3.3211070    -1.4385120    -0.3773670
  H        2.0523810    -1.7508080     0.8974130
  H        0.1298880    -2.2506920    -0.3908910
  H       -2.5517104     1.8783733     0.0444939
  H       -2.3266410    -2.4532080     0.0346430
  H       -3.6480090    -0.3319380     0.4347920
units angstrom
no_reorient  #important for SAPT in psi4, default
symmetry c1  #important for SAPT in psi4, default
}

set PROPERTIES_ORIGIN ["COM"]
properties('MP2/aug-cc-pvtz', properties = ['dipole'])
--------------------------------------------------------------------------

    Molecular point group: c1
  Charge       = 0
  Multiplicity = 1
  Basis Set: AUG-CC-PVTZ
    Blend: AUG-CC-PVTZ
  Basis Set: (AUG-CC-PVTZ AUX)
    Blend: AUG-CC-PVTZ-JKFIT

    Orbital Energies [Eh]
    ---------------------

    Doubly Occupied:

       1A    -20.507185     2A    -15.627780     3A    -11.349996
       4A    -11.308226     5A    -11.279479     6A    -11.271621
       7A    -11.243451     8A    -11.240160     9A    -11.239861
      10A    -11.234196    11A     -1.370125    12A     -1.283379
      13A     -1.156395    14A     -1.095955    15A     -1.024209
      16A     -0.901641    17A     -0.868244    18A     -0.829135
      19A     -0.810515    20A     -0.724969    21A     -0.697909
      22A     -0.682600    23A     -0.663570    24A     -0.635000
      25A     -0.605873    26A     -0.594445    27A     -0.576982
      28A     -0.547017    29A     -0.530193    30A     -0.525615
      31A     -0.480618    32A     -0.454917    33A     -0.439465
      34A     -0.422214    35A     -0.398879    36A     -0.309020

  @DF-RHF Final Energy:  -437.60456340252836

   => Energetics <=

    Nuclear Repulsion Energy =            508.0224368246508106
    One-Electron Energy =               -1601.3923192940078479
    Two-Electron Energy =                 655.7653190668286243
    Total Energy =                       -437.6045634025283562
  Basis Set: (AUG-CC-PVTZ AUX)
    Blend: AUG-CC-PVTZ-RI
    Molecular point group: c1

    Geometry (in Angstrom), charge = 0, multiplicity = 1:

       Center              X                  Y                   Z               Mass
    ------------   -----------------  -----------------  -----------------  -----------------
         O            0.109147112528     2.098472422190    -0.205693209089    15.994914619570
         N            0.163716112528    -0.207968577810    -0.222755209089    14.003074004430
         C            1.578796112528    -0.133227577810    -0.501174209089    12.000000000000
         C            2.486632112528     0.375584422190     0.570718790911    12.000000000000
         C            2.511044112528    -1.082810577810     0.199168790911    12.000000000000
         C           -0.509586887472     1.033967422190    -0.085325209089    12.000000000000
         C           -0.474504887472    -1.421098577810    -0.204480209089    12.000000000000
         C           -1.922417887472     0.899399422190     0.199695790911    12.000000000000
         C           -1.817129887472    -1.513635577810     0.031022790911    12.000000000000
         C           -2.549792887472    -0.315811577810     0.243576790911    12.000000000000
         H            1.806130112528     0.155733422190    -1.524195209089     1.007825032230
         H            2.019868112528     0.645198422190     1.511191790911     1.007825032230
         H            3.306305112528     1.017950422190     0.268955790911     1.007825032230
         H            3.351489112528    -1.471216577810    -0.366652209089     1.007825032230
         H            2.082763112528    -1.783512577810     0.908127790911     1.007825032230
         H            0.160270112528    -2.283396577810    -0.380176209089     1.007825032230
         H           -2.521328287472     1.845668722190     0.055208690911     1.007825032230
         H           -2.296258887472    -2.485912577810     0.045357790911     1.007825032230
         H           -3.617626887472    -0.364642577810     0.445506790911     1.007825032230

  Basis Set: AUG-CC-PVTZ
    Blend: AUG-CC-PVTZ
  Basis Set: (AUG-CC-PVTZ AUX)
    Blend: AUG-CC-PVTZ-JKFIT
	 Reference Energy          =    -437.6045634025283562 [Eh]
	 Singles Energy            =      -0.0000000000000000 [Eh]
	 Same-Spin Energy          =      -0.4679932378421877 [Eh]
	 Opposite-Spin Energy      =      -1.4652304080089897 [Eh]
	 Correlation Energy        =      -1.9332236458511773 [Eh]
	 Total Energy              =    -439.5377870483795277 [Eh]

	 ================> DF-SCS-MP2 Energies <==================
	-----------------------------------------------------------
	 SCS Same-Spin Scale       =       0.3333333333333333 [-]
	 SCS Opposite-Spin Scale   =       1.2000000000000000 [-]
	 SCS Same-Spin Energy      =      -0.1559977459473959 [Eh]
	 SCS Opposite-Spin Energy  =      -1.7582764896107876 [Eh]
	 SCS Correlation Energy    =      -1.9142742355581834 [Eh]
	 SCS Total Energy          =    -439.5188376380865520 [Eh]
	-----------------------------------------------------------

  Dipole Moment: [D]
     X:    -0.0115      Y:    -3.8410      Z:    -0.0324     Total:     3.8411

*** Psi4 exiting successfully. Buy a developer a beer!
