                               Psi4 1.3.2 release

  ==> Input File <==

--------------------------------------------------------------------------
#psi4
#
memory 32 gb

molecule  {
0 1
  O        0.0787650     2.1311770    -0.2164080
  N        0.1333340    -0.1752640    -0.2334700
  C        1.5484140    -0.1005230    -0.5118890
  C        2.4562500     0.4082890     0.5600040
  C        2.4806620    -1.0501060     0.1884540
  C       -0.5399690     1.0666720    -0.0960400
  C       -0.5048870    -1.3883940    -0.2151950
  C       -1.9528000     0.9321040     0.1889810
  C       -1.8475120    -1.4809310     0.0203080
  C       -2.5801750    -0.2831070     0.2328620
  H        1.7757480     0.1884380    -1.5349100
  H        1.9894860     0.6779030     1.5004770
  H        3.2759230     1.0506550     0.2582410
  H        3.3211070    -1.4385120    -0.3773670
  H        2.0523810    -1.7508080     0.8974130
  H        0.1298880    -2.2506920    -0.3908910
  H       -2.4932330     1.8615660     0.3382590
  H       -2.2828513    -2.4705186     0.2801686
  H       -3.6480090    -0.3319380     0.4347920
units angstrom
no_reorient  #important for SAPT in psi4, default
symmetry c1  #important for SAPT in psi4, default
}

set PROPERTIES_ORIGIN ["COM"]
properties('MP2/aug-cc-pvtz', properties = ['dipole'])
--------------------------------------------------------------------------

    Molecular point group: c1
  Charge       = 0
  Multiplicity = 1
  Basis Set: AUG-CC-PVTZ
    Blend: AUG-CC-PVTZ
  Basis Set: (AUG-CC-PVTZ AUX)
    Blend: AUG-CC-PVTZ-JKFIT

    Orbital Energies [Eh]
    ---------------------

    Doubly Occupied:

       1A    -20.507866     2A    -15.628022     3A    -11.350512
       4A    -11.307928     5A    -11.279602     6A    -11.270488
       7A    -11.243541     8A    -11.241443     9A    -11.237008
      10A    -11.234549    11A     -1.370652    12A     -1.283604
      13A     -1.156404    14A     -1.095758    15A     -1.024312
      16A     -0.901758    17A     -0.868723    18A     -0.829734
      19A     -0.810315    20A     -0.724974    21A     -0.697997
      22A     -0.681065    23A     -0.663812    24A     -0.639645
      25A     -0.606116    26A     -0.593535    27A     -0.575526
      28A     -0.546328    29A     -0.535032    30A     -0.526529
      31A     -0.480753    32A     -0.454291    33A     -0.439913
      34A     -0.420969    35A     -0.400414    36A     -0.309065

  @DF-RHF Final Energy:  -437.60702478889380

   => Energetics <=

    Nuclear Repulsion Energy =            508.1134448614608914
    One-Electron Energy =               -1601.5645660361924456
    Two-Electron Energy =                 655.8440963858377017
    Total Energy =                       -437.6070247888937956
  Basis Set: (AUG-CC-PVTZ AUX)
    Blend: AUG-CC-PVTZ-RI
    Molecular point group: c1

    Geometry (in Angstrom), charge = 0, multiplicity = 1:

       Center              X                  Y                   Z               Mass
    ------------   -----------------  -----------------  -----------------  -----------------
         O            0.108384037429     2.098726995948    -0.209717174807    15.994914619570
         N            0.162953037429    -0.207714004052    -0.226779174807    14.003074004430
         C            1.578033037429    -0.132973004052    -0.505198174807    12.000000000000
         C            2.485869037429     0.375838995948     0.566694825193    12.000000000000
         C            2.510281037429    -1.082556004052     0.195144825193    12.000000000000
         C           -0.510349962571     1.034221995948    -0.089349174807    12.000000000000
         C           -0.475267962571    -1.420844004052    -0.208504174807    12.000000000000
         C           -1.923180962571     0.899653995948     0.195671825193    12.000000000000
         C           -1.817892962571    -1.513381004052     0.026998825193    12.000000000000
         C           -2.550555962571    -0.315557004052     0.239552825193    12.000000000000
         H            1.805367037429     0.155987995948    -1.528219174807     1.007825032230
         H            2.019105037429     0.645452995948     1.507167825193     1.007825032230
         H            3.305542037429     1.018204995948     0.264931825193     1.007825032230
         H            3.350726037429    -1.470962004052    -0.370676174807     1.007825032230
         H            2.082000037429    -1.783258004052     0.904103825193     1.007825032230
         H            0.159507037429    -2.283142004052    -0.384200174807     1.007825032230
         H           -2.463613962571     1.829115995948     0.344949825193     1.007825032230
         H           -2.253232262571    -2.502968604052     0.286859425193     1.007825032230
         H           -3.618389962571    -0.364388004052     0.441482825193     1.007825032230

  Basis Set: AUG-CC-PVTZ
    Blend: AUG-CC-PVTZ
  Basis Set: (AUG-CC-PVTZ AUX)
    Blend: AUG-CC-PVTZ-JKFIT
	 Reference Energy          =    -437.6070247888937956 [Eh]
	 Singles Energy            =      -0.0000000000000000 [Eh]
	 Same-Spin Energy          =      -0.4678519789978910 [Eh]
	 Opposite-Spin Energy      =      -1.4649821809059196 [Eh]
	 Correlation Energy        =      -1.9328341599038106 [Eh]
	 Total Energy              =    -439.5398589487975869 [Eh]

	 ================> DF-SCS-MP2 Energies <==================
	-----------------------------------------------------------
	 SCS Same-Spin Scale       =       0.3333333333333333 [-]
	 SCS Opposite-Spin Scale   =       1.2000000000000000 [-]
	 SCS Same-Spin Energy      =      -0.1559506596659637 [Eh]
	 SCS Opposite-Spin Energy  =      -1.7579786170871035 [Eh]
	 SCS Correlation Energy    =      -1.9139292767530671 [Eh]
	 SCS Total Energy          =    -439.5209540656468903 [Eh]
	-----------------------------------------------------------

  Dipole Moment: [D]
     X:     0.0566      Y:    -3.7487      Z:     0.3307     Total:     3.7636

*** Psi4 exiting successfully. Buy a developer a beer!
