                               Psi4 1.3.2 release

  ==> Input File <==

--------------------------------------------------------------------------
#psi4
#
memory 32 gb

molecule  {
0 1
  O        0.0787650     2.1311770    -0.2164080
  N        0.1333340    -0.1752640    -0.2334700
  C        1.5484140    -0.1005230    -0.5118890
  C        2.4562500     0.4082890     0.5600040
  C        2.4806620    -1.0501060     0.1884540
  C       -0.5399690     1.0666720    -0.0960400
  C       -0.5048870    -1.3883940    -0.2151950
  C       -1.9528000     0.9321040     0.1889810
  C       -1.8475120    -1.4809310     0.0203080
  C       -2.5801750    -0.2831070     0.2328620
  H        1.7757480     0.1884380    -1.5349100
  H        1.9894860     0.6779030     1.5004770
  H        3.2759230     1.0506550     0.2582410
  H        3.3211070    -1.4385120    -0.3773670
  H        2.0523810    -1.7508080     0.8974130
  H        0.1298880    -2.2506920    -0.3908910
  H       -2.4932330     1.8615660     0.3382590
  H       -2.3266410    -2.4532080     0.0346430
  H       -3.6480090    -0.3319380     0.4347920
units angstrom
no_reorient  #important for SAPT in psi4, default
symmetry c1  #important for SAPT in psi4, default
}

set PROPERTIES_ORIGIN ["COM"]
properties('MP2/aug-cc-pvtz', properties = ['dipole'])
--------------------------------------------------------------------------

    Molecular point group: c1
  Charge       = 0
  Multiplicity = 1
  Basis Set: AUG-CC-PVTZ
    Blend: AUG-CC-PVTZ
  Basis Set: (AUG-CC-PVTZ AUX)
    Blend: AUG-CC-PVTZ-JKFIT

    Orbital Energies [Eh]
    ---------------------

    Doubly Occupied:

       1A    -20.507224     2A    -15.627336     3A    -11.349991
       4A    -11.307073     5A    -11.279283     6A    -11.270427
       7A    -11.243222     8A    -11.239332     9A    -11.236960
      10A    -11.234086    11A     -1.370096    12A     -1.283045
      13A     -1.156127    14A     -1.095843    15A     -1.024609
      16A     -0.901705    17A     -0.868902    18A     -0.829494
      19A     -0.810832    20A     -0.725901    21A     -0.697629
      22A     -0.682155    23A     -0.663838    24A     -0.640371
      25A     -0.606214    26A     -0.594130    27A     -0.577225
      28A     -0.546128    29A     -0.535360    30A     -0.526225
      31A     -0.480639    32A     -0.455449    33A     -0.440115
      34A     -0.420557    35A     -0.399785    36A     -0.308828

  @DF-RHF Final Energy:  -437.61075437816135

   => Energetics <=

    Nuclear Repulsion Energy =            508.2070771615524336
    One-Electron Energy =               -1601.7633953850145190
    Two-Electron Energy =                 655.9455638453007396
    Total Energy =                       -437.6107543781613458
  Basis Set: (AUG-CC-PVTZ AUX)
    Blend: AUG-CC-PVTZ-RI
    Molecular point group: c1

    Geometry (in Angstrom), charge = 0, multiplicity = 1:

       Center              X                  Y                   Z               Mass
    ------------   -----------------  -----------------  -----------------  -----------------
         O            0.108710778186     2.098597831360    -0.207885163616    15.994914619570
         N            0.163279778186    -0.207843168640    -0.224947163616    14.003074004430
         C            1.578359778186    -0.133102168640    -0.503366163616    12.000000000000
         C            2.486195778186     0.375709831360     0.568526836384    12.000000000000
         C            2.510607778186    -1.082685168640     0.196976836384    12.000000000000
         C           -0.510023221814     1.034092831360    -0.087517163616    12.000000000000
         C           -0.474941221814    -1.420973168640    -0.206672163616    12.000000000000
         C           -1.922854221814     0.899524831360     0.197503836384    12.000000000000
         C           -1.817566221814    -1.513510168640     0.028830836384    12.000000000000
         C           -2.550229221814    -0.315686168640     0.241384836384    12.000000000000
         H            1.805693778186     0.155858831360    -1.526387163616     1.007825032230
         H            2.019431778186     0.645323831360     1.508999836384     1.007825032230
         H            3.305868778186     1.018075831360     0.266763836384     1.007825032230
         H            3.351052778186    -1.471091168640    -0.368844163616     1.007825032230
         H            2.082326778186    -1.783387168640     0.905935836384     1.007825032230
         H            0.159833778186    -2.283271168640    -0.382368163616     1.007825032230
         H           -2.463287221814     1.828986831360     0.346781836384     1.007825032230
         H           -2.296695221814    -2.485787168640     0.043165836384     1.007825032230
         H           -3.618063221814    -0.364517168640     0.443314836384     1.007825032230

  Basis Set: AUG-CC-PVTZ
    Blend: AUG-CC-PVTZ
  Basis Set: (AUG-CC-PVTZ AUX)
    Blend: AUG-CC-PVTZ-JKFIT
	 Reference Energy          =    -437.6107543781613458 [Eh]
	 Singles Energy            =      -0.0000000000000000 [Eh]
	 Same-Spin Energy          =      -0.4677419966688756 [Eh]
	 Opposite-Spin Energy      =      -1.4646265696334200 [Eh]
	 Correlation Energy        =      -1.9323685663022956 [Eh]
	 Total Energy              =    -439.5431229444636188 [Eh]

	 ================> DF-SCS-MP2 Energies <==================
	-----------------------------------------------------------
	 SCS Same-Spin Scale       =       0.3333333333333333 [-]
	 SCS Opposite-Spin Scale   =       1.2000000000000000 [-]
	 SCS Same-Spin Energy      =      -0.1559139988896252 [Eh]
	 SCS Opposite-Spin Energy  =      -1.7575518835601038 [Eh]
	 SCS Correlation Energy    =      -1.9134658824497290 [Eh]
	 SCS Total Energy          =    -439.5242202606110595 [Eh]
	-----------------------------------------------------------

  Dipole Moment: [D]
     X:    -0.0131      Y:    -3.7931      Z:     0.1567     Total:     3.7964

*** Psi4 exiting successfully. Buy a developer a beer!
