                               Psi4 1.3.2 release

  ==> Input File <==

--------------------------------------------------------------------------
#psi4
#
memory 32 gb

molecule  {
0 1
  O        0.0787650     2.1311770    -0.2164080
  N        0.1333340    -0.1752640    -0.2334700
  C        1.5484140    -0.1005230    -0.5118890
  C        2.4562500     0.4082890     0.5600040
  C        2.4806620    -1.0501060     0.1884540
  C       -0.5399690     1.0666720    -0.0960400
  C       -0.5048870    -1.3883940    -0.2151950
  C       -1.9528000     0.9321040     0.1889810
  C       -1.8475120    -1.4809310     0.0203080
  C       -2.5801750    -0.2831070     0.2328620
  H        1.7757480     0.1884380    -1.5349100
  H        1.9894860     0.6779030     1.5004770
  H        3.2759230     1.0506550     0.2582410
  H        3.3211070    -1.4385120    -0.3773670
  H        2.0523810    -1.7508080     0.8974130
  H        0.1298880    -2.2506920    -0.3908910
  H       -2.4932330     1.8615660     0.3382590
  H       -2.3091251    -2.4601322     0.1328532
  H       -3.6480090    -0.3319380     0.4347920
units angstrom
no_reorient  #important for SAPT in psi4, default
symmetry c1  #important for SAPT in psi4, default
}

set PROPERTIES_ORIGIN ["COM"]
properties('MP2/aug-cc-pvtz', properties = ['dipole'])
--------------------------------------------------------------------------

    Molecular point group: c1
  Charge       = 0
  Multiplicity = 1
  Basis Set: AUG-CC-PVTZ
    Blend: AUG-CC-PVTZ
  Basis Set: (AUG-CC-PVTZ AUX)
    Blend: AUG-CC-PVTZ-JKFIT

    Orbital Energies [Eh]
    ---------------------

    Doubly Occupied:

       1A    -20.507328     2A    -15.627470     3A    -11.350080
       4A    -11.307202     5A    -11.279334     6A    -11.270431
       7A    -11.243282     8A    -11.239662     9A    -11.236949
      10A    -11.234202    11A     -1.370189    12A     -1.283140
      13A     -1.156180    14A     -1.095829    15A     -1.024558
      16A     -0.901714    17A     -0.868874    18A     -0.829548
      19A     -0.810732    20A     -0.725818    21A     -0.697727
      22A     -0.681867    23A     -0.663789    24A     -0.640385
      25A     -0.606314    26A     -0.593820    27A     -0.576601
      28A     -0.546764    29A     -0.535266    30A     -0.526292
      31A     -0.480740    32A     -0.455046    33A     -0.439996
      34A     -0.420626    35A     -0.400005    36A     -0.308858

  @DF-RHF Final Energy:  -437.61021801413625

   => Energetics <=

    Nuclear Repulsion Energy =            508.1950368937935991
    One-Electron Energy =               -1601.7372741832159591
    Two-Electron Energy =                 655.9320192752859384
    Total Energy =                       -437.6102180141363078
  Basis Set: (AUG-CC-PVTZ AUX)
    Blend: AUG-CC-PVTZ-RI
    Molecular point group: c1

    Geometry (in Angstrom), charge = 0, multiplicity = 1:

       Center              X                  Y                   Z               Mass
    ------------   -----------------  -----------------  -----------------  -----------------
         O            0.108580081734     2.098649496896    -0.208617967794    15.994914619570
         N            0.163149081734    -0.207791503104    -0.225679967794    14.003074004430
         C            1.578229081734    -0.133050503104    -0.504098967794    12.000000000000
         C            2.486065081734     0.375761496896     0.567794032206    12.000000000000
         C            2.510477081734    -1.082633503104     0.196244032206    12.000000000000
         C           -0.510153918266     1.034144496896    -0.088249967794    12.000000000000
         C           -0.475071918266    -1.420921503104    -0.207404967794    12.000000000000
         C           -1.922984918266     0.899576496896     0.196771032206    12.000000000000
         C           -1.817696918266    -1.513458503104     0.028098032206    12.000000000000
         C           -2.550359918266    -0.315634503104     0.240652032206    12.000000000000
         H            1.805563081734     0.155910496896    -1.527119967794     1.007825032230
         H            2.019301081734     0.645375496896     1.508267032206     1.007825032230
         H            3.305738081734     1.018127496896     0.266031032206     1.007825032230
         H            3.350922081734    -1.471039503104    -0.369576967794     1.007825032230
         H            2.082196081734    -1.783335503104     0.905203032206     1.007825032230
         H            0.159703081734    -2.283219503104    -0.383100967794     1.007825032230
         H           -2.463417918266     1.829038496896     0.346049032206     1.007825032230
         H           -2.279310018266    -2.492659703104     0.140643232206     1.007825032230
         H           -3.618193918266    -0.364465503104     0.442582032206     1.007825032230

  Basis Set: AUG-CC-PVTZ
    Blend: AUG-CC-PVTZ
  Basis Set: (AUG-CC-PVTZ AUX)
    Blend: AUG-CC-PVTZ-JKFIT
	 Reference Energy          =    -437.6102180141362510 [Eh]
	 Singles Energy            =      -0.0000000000000000 [Eh]
	 Same-Spin Energy          =      -0.4677591499746920 [Eh]
	 Opposite-Spin Energy      =      -1.4646732566640930 [Eh]
	 Correlation Energy        =      -1.9324324066387850 [Eh]
	 Total Energy              =    -439.5426504207750327 [Eh]

	 ================> DF-SCS-MP2 Energies <==================
	-----------------------------------------------------------
	 SCS Same-Spin Scale       =       0.3333333333333333 [-]
	 SCS Opposite-Spin Scale   =       1.2000000000000000 [-]
	 SCS Same-Spin Energy      =      -0.1559197166582307 [Eh]
	 SCS Opposite-Spin Energy  =      -1.7576079079969116 [Eh]
	 SCS Correlation Energy    =      -1.9135276246551423 [Eh]
	 SCS Total Energy          =    -439.5237456387914108 [Eh]
	-----------------------------------------------------------

  Dipole Moment: [D]
     X:     0.0062      Y:    -3.7888      Z:     0.2278     Total:     3.7957

*** Psi4 exiting successfully. Buy a developer a beer!
