                               Psi4 1.3.2 release

  ==> Input File <==

--------------------------------------------------------------------------
#psi4
#
memory 32 gb

molecule  {
0 1
  O        0.0787650     2.1311770    -0.2164080
  N        0.1333340    -0.1752640    -0.2334700
  C        1.5484140    -0.1005230    -0.5118890
  C        2.4562500     0.4082890     0.5600040
  C        2.4806620    -1.0501060     0.1884540
  C       -0.5399690     1.0666720    -0.0960400
  C       -0.5048870    -1.3883940    -0.2151950
  C       -1.9528000     0.9321040     0.1889810
  C       -1.8475120    -1.4809310     0.0203080
  C       -2.5801750    -0.2831070     0.2328620
  H        1.7757480     0.1884380    -1.5349100
  H        1.9894860     0.6779030     1.5004770
  H        3.2759230     1.0506550     0.2582410
  H        3.3211070    -1.4385120    -0.3773670
  H        2.0523810    -1.7508080     0.8974130
  H        0.1298880    -2.2506920    -0.3908910
  H       -2.4932330     1.8615660     0.3382590
  H       -2.3003672    -2.4635943     0.1819583
  H       -3.6480090    -0.3319380     0.4347920
units angstrom
no_reorient  #important for SAPT in psi4, default
symmetry c1  #important for SAPT in psi4, default
}

set PROPERTIES_ORIGIN ["COM"]
properties('MP2/aug-cc-pvtz', properties = ['dipole'])
--------------------------------------------------------------------------

    Molecular point group: c1
  Charge       = 0
  Multiplicity = 1
  Basis Set: AUG-CC-PVTZ
    Blend: AUG-CC-PVTZ
  Basis Set: (AUG-CC-PVTZ AUX)
    Blend: AUG-CC-PVTZ-JKFIT

    Orbital Energies [Eh]
    ---------------------

    Doubly Occupied:

       1A    -20.507457     2A    -15.627608     3A    -11.350185
       4A    -11.307374     5A    -11.279398     6A    -11.270441
       7A    -11.243346     8A    -11.240088     9A    -11.236958
      10A    -11.234295    11A     -1.370301    12A     -1.283253
      13A     -1.156236    14A     -1.095810    15A     -1.024495
      16A     -0.901723    17A     -0.868834    18A     -0.829596
      19A     -0.810623    20A     -0.725619    21A     -0.697801
      22A     -0.681639    23A     -0.663783    24A     -0.640237
      25A     -0.606291    26A     -0.593699    27A     -0.576255
      28A     -0.546815    29A     -0.535208    30A     -0.526354
      31A     -0.480760    32A     -0.454814    33A     -0.439958
      34A     -0.420709    35A     -0.400131    36A     -0.308906

  @DF-RHF Final Energy:  -437.60950438435935

   => Energetics <=

    Nuclear Repulsion Energy =            508.1760160348511022
    One-Electron Energy =               -1601.6970439219144282
    Two-Electron Energy =                 655.9115235027039716
    Total Energy =                       -437.6095043843594112
  Basis Set: (AUG-CC-PVTZ AUX)
    Blend: AUG-CC-PVTZ-RI
    Molecular point group: c1

    Geometry (in Angstrom), charge = 0, multiplicity = 1:

       Center              X                  Y                   Z               Mass
    ------------   -----------------  -----------------  -----------------  -----------------
         O            0.108514733881     2.098675329665    -0.208984369883    15.994914619570
         N            0.163083733881    -0.207765670335    -0.226046369883    14.003074004430
         C            1.578163733881    -0.133024670335    -0.504465369883    12.000000000000
         C            2.485999733881     0.375787329665     0.567427630117    12.000000000000
         C            2.510411733881    -1.082607670335     0.195877630117    12.000000000000
         C           -0.510219266119     1.034170329665    -0.088616369883    12.000000000000
         C           -0.475137266119    -1.420895670335    -0.207771369883    12.000000000000
         C           -1.923050266119     0.899602329665     0.196404630117    12.000000000000
         C           -1.817762266119    -1.513432670335     0.027731630117    12.000000000000
         C           -2.550425266119    -0.315608670335     0.240285630117    12.000000000000
         H            1.805497733881     0.155936329665    -1.527486369883     1.007825032230
         H            2.019235733881     0.645401329665     1.507900630117     1.007825032230
         H            3.305672733881     1.018153329665     0.265664630117     1.007825032230
         H            3.350856733881    -1.471013670335    -0.369943369883     1.007825032230
         H            2.082130733881    -1.783309670335     0.904836630117     1.007825032230
         H            0.159637733881    -2.283193670335    -0.383467369883     1.007825032230
         H           -2.463483266119     1.829064329665     0.345682630117     1.007825032230
         H           -2.270617466119    -2.496095970335     0.189381930117     1.007825032230
         H           -3.618259266119    -0.364439670335     0.442215630117     1.007825032230

  Basis Set: AUG-CC-PVTZ
    Blend: AUG-CC-PVTZ
  Basis Set: (AUG-CC-PVTZ AUX)
    Blend: AUG-CC-PVTZ-JKFIT
	 Reference Energy          =    -437.6095043843593544 [Eh]
	 Singles Energy            =      -0.0000000000000000 [Eh]
	 Same-Spin Energy          =      -0.4677812000377899 [Eh]
	 Opposite-Spin Energy      =      -1.4647404851530672 [Eh]
	 Correlation Energy        =      -1.9325216851908571 [Eh]
	 Total Energy              =    -439.5420260695502179 [Eh]

	 ================> DF-SCS-MP2 Energies <==================
	-----------------------------------------------------------
	 SCS Same-Spin Scale       =       0.3333333333333333 [-]
	 SCS Opposite-Spin Scale   =       1.2000000000000000 [-]
	 SCS Same-Spin Energy      =      -0.1559270666792633 [Eh]
	 SCS Opposite-Spin Energy  =      -1.7576885821836805 [Eh]
	 SCS Correlation Energy    =      -1.9136156488629439 [Eh]
	 SCS Total Energy          =    -439.5231200332223125 [Eh]
	-----------------------------------------------------------

  Dipole Moment: [D]
     X:     0.0203      Y:    -3.7798      Z:     0.2627     Total:     3.7890

*** Psi4 exiting successfully. Buy a developer a beer!
