                               Psi4 1.3.2 release

  ==> Input File <==

--------------------------------------------------------------------------
#psi4
#
memory 32 gb

molecule  {
0 1
  O        0.0787650     2.1311770    -0.2164080
  N        0.1333340    -0.1752640    -0.2334700
  C        1.5484140    -0.1005230    -0.5118890
  C        2.4562500     0.4082890     0.5600040
  C        2.4806620    -1.0501060     0.1884540
  C       -0.5399690     1.0666720    -0.0960400
  C       -0.5048870    -1.3883940    -0.2151950
  C       -1.9528000     0.9321040     0.1889810
  C       -1.8475120    -1.4809310     0.0203080
  C       -2.5801750    -0.2831070     0.2328620
  H        1.7757480     0.1884380    -1.5349100
  H        1.9894860     0.6779030     1.5004770
  H        3.2759230     1.0506550     0.2582410
  H        3.3211070    -1.4385120    -0.3773670
  H        2.0523810    -1.7508080     0.8974130
  H        0.1298880    -2.2506920    -0.3908910
  H       -2.4932330     1.8615660     0.3382590
  H       -2.3266410    -2.4532080     0.0346430
  H       -3.6667275    -0.3259012     0.3367452
units angstrom
no_reorient  #important for SAPT in psi4, default
symmetry c1  #important for SAPT in psi4, default
}

set PROPERTIES_ORIGIN ["COM"]
properties('MP2/aug-cc-pvtz', properties = ['dipole'])
--------------------------------------------------------------------------

    Molecular point group: c1
  Charge       = 0
  Multiplicity = 1
  Basis Set: AUG-CC-PVTZ
    Blend: AUG-CC-PVTZ
  Basis Set: (AUG-CC-PVTZ AUX)
    Blend: AUG-CC-PVTZ-JKFIT

    Orbital Energies [Eh]
    ---------------------

    Doubly Occupied:

       1A    -20.507284     2A    -15.627356     3A    -11.350053
       4A    -11.307083     5A    -11.279294     6A    -11.270868
       7A    -11.243231     8A    -11.239356     9A    -11.237081
      10A    -11.234097    11A     -1.370140    12A     -1.283075
      13A     -1.156136    14A     -1.095788    15A     -1.024641
      16A     -0.901508    17A     -0.868880    18A     -0.829506
      19A     -0.810658    20A     -0.725846    21A     -0.697621
      22A     -0.682120    23A     -0.663416    24A     -0.640204
      25A     -0.606293    26A     -0.594722    27A     -0.575958
      28A     -0.546473    29A     -0.535433    30A     -0.526136
      31A     -0.480652    32A     -0.455946    33A     -0.440071
      34A     -0.419496    35A     -0.400232    36A     -0.308850

  @DF-RHF Final Energy:  -437.61011924898020

   => Energetics <=

    Nuclear Repulsion Energy =            508.1862172200494001
    One-Electron Energy =               -1601.7216703398753452
    Two-Electron Energy =                 655.9253338708456340
    Total Energy =                       -437.6101192489802543
  Basis Set: (AUG-CC-PVTZ AUX)
    Blend: AUG-CC-PVTZ-RI
    Molecular point group: c1

    Geometry (in Angstrom), charge = 0, multiplicity = 1:

       Center              X                  Y                   Z               Mass
    ------------   -----------------  -----------------  -----------------  -----------------
         O            0.108850447946     2.098552787238    -0.207153578663    15.994914619570
         N            0.163419447946    -0.207888212762    -0.224215578663    14.003074004430
         C            1.578499447946    -0.133147212762    -0.502634578663    12.000000000000
         C            2.486335447946     0.375664787238     0.569258421337    12.000000000000
         C            2.510747447946    -1.082730212762     0.197708421337    12.000000000000
         C           -0.509883552054     1.034047787238    -0.086785578663    12.000000000000
         C           -0.474801552054    -1.421018212762    -0.205940578663    12.000000000000
         C           -1.922714552054     0.899479787238     0.198235421337    12.000000000000
         C           -1.817426552054    -1.513555212762     0.029562421337    12.000000000000
         C           -2.550089552054    -0.315731212762     0.242116421337    12.000000000000
         H            1.805833447946     0.155813787238    -1.525655578663     1.007825032230
         H            2.019571447946     0.645278787238     1.509731421337     1.007825032230
         H            3.306008447946     1.018030787238     0.267495421337     1.007825032230
         H            3.351192447946    -1.471136212762    -0.368112578663     1.007825032230
         H            2.082466447946    -1.783432212762     0.906667421337     1.007825032230
         H            0.159973447946    -2.283316212762    -0.381636578663     1.007825032230
         H           -2.463147552054     1.828941787238     0.347513421337     1.007825032230
         H           -2.296555552054    -2.485832212762     0.043897421337     1.007825032230
         H           -3.636642052054    -0.358525412762     0.345999621337     1.007825032230

  Basis Set: AUG-CC-PVTZ
    Blend: AUG-CC-PVTZ
  Basis Set: (AUG-CC-PVTZ AUX)
    Blend: AUG-CC-PVTZ-JKFIT
	 Reference Energy          =    -437.6101192489801974 [Eh]
	 Singles Energy            =      -0.0000000000000000 [Eh]
	 Same-Spin Energy          =      -0.4677825778368795 [Eh]
	 Opposite-Spin Energy      =      -1.4647172026087247 [Eh]
	 Correlation Energy        =      -1.9324997804456041 [Eh]
	 Total Energy              =    -439.5426190294257935 [Eh]

	 ================> DF-SCS-MP2 Energies <==================
	-----------------------------------------------------------
	 SCS Same-Spin Scale       =       0.3333333333333333 [-]
	 SCS Opposite-Spin Scale   =       1.2000000000000000 [-]
	 SCS Same-Spin Energy      =      -0.1559275259456265 [Eh]
	 SCS Opposite-Spin Energy  =      -1.7576606431304695 [Eh]
	 SCS Correlation Energy    =      -1.9135881690760961 [Eh]
	 SCS Total Energy          =    -439.5237074180562900 [Eh]
	-----------------------------------------------------------

  Dipole Moment: [D]
     X:    -0.0168      Y:    -3.7883      Z:     0.0966     Total:     3.7895

*** Psi4 exiting successfully. Buy a developer a beer!
