                               Psi4 1.3.2 release

  ==> Input File <==

--------------------------------------------------------------------------
#psi4
#
memory 32 gb

molecule  {
0 1
  O        0.0787650     2.1311770    -0.2164080
  N        0.1333340    -0.1752640    -0.2334700
  C        1.5484140    -0.1005230    -0.5118890
  C        2.4562500     0.4082890     0.5600040
  C        2.4806620    -1.0501060     0.1884540
  C       -0.5399690     1.0666720    -0.0960400
  C       -0.5048870    -1.3883940    -0.2151950
  C       -1.9528000     0.9321040     0.1889810
  C       -1.8475120    -1.4809310     0.0203080
  C       -2.5801750    -0.2831070     0.2328620
  H        1.7757480     0.1884380    -1.5349100
  H        1.9894860     0.6779030     1.5004770
  H        3.2759230     1.0506550     0.2582410
  H        3.3211070    -1.4385120    -0.3773670
  H        2.0523810    -1.7508080     0.8974130
  H        0.1648975    -2.2656428    -0.1945474
  H       -2.4932330     1.8615660     0.3382590
  H       -2.3266410    -2.4532080     0.0346430
  H       -3.6480090    -0.3319380     0.4347920
units angstrom
no_reorient  #important for SAPT in psi4, default
symmetry c1  #important for SAPT in psi4, default
}

set PROPERTIES_ORIGIN ["COM"]
properties('MP2/aug-cc-pvtz', properties = ['dipole'])
--------------------------------------------------------------------------

    Molecular point group: c1
  Charge       = 0
  Multiplicity = 1
  Basis Set: AUG-CC-PVTZ
    Blend: AUG-CC-PVTZ
  Basis Set: (AUG-CC-PVTZ AUX)
    Blend: AUG-CC-PVTZ-JKFIT

    Orbital Energies [Eh]
    ---------------------

    Doubly Occupied:

       1A    -20.507249     2A    -15.627402     3A    -11.350086
       4A    -11.308387     5A    -11.279357     6A    -11.270623
       7A    -11.243588     8A    -11.239885     9A    -11.237398
      10A    -11.234205    11A     -1.370142    12A     -1.282985
      13A     -1.156270    14A     -1.096097    15A     -1.024170
      16A     -0.901753    17A     -0.868408    18A     -0.829278
      19A     -0.810660    20A     -0.726551    21A     -0.695600
      22A     -0.681412    23A     -0.663835    24A     -0.639348
      25A     -0.606665    26A     -0.594294    27A     -0.576487
      28A     -0.545482    29A     -0.536000    30A     -0.525188
      31A     -0.480208    32A     -0.456179    33A     -0.440195
      34A     -0.420723    35A     -0.399771    36A     -0.308862

  @DF-RHF Final Energy:  -437.60795265312083

   => Energetics <=

    Nuclear Repulsion Energy =            508.1829134787013231
    One-Electron Energy =               -1601.7122517472921572
    Two-Electron Energy =                 655.9213856154700579
    Total Energy =                       -437.6079526531208330
  Basis Set: (AUG-CC-PVTZ AUX)
    Blend: AUG-CC-PVTZ-RI
    Molecular point group: c1

    Geometry (in Angstrom), charge = 0, multiplicity = 1:

       Center              X                  Y                   Z               Mass
    ------------   -----------------  -----------------  -----------------  -----------------
         O            0.108449551676     2.098709388089    -0.209350198922    15.994914619570
         N            0.163018551676    -0.207731611911    -0.226412198922    14.003074004430
         C            1.578098551676    -0.132990611911    -0.504831198922    12.000000000000
         C            2.485934551676     0.375821388089     0.567061801078    12.000000000000
         C            2.510346551676    -1.082573611911     0.195511801078    12.000000000000
         C           -0.510284448324     1.034204388089    -0.088982198922    12.000000000000
         C           -0.475202448324    -1.420861611911    -0.208137198922    12.000000000000
         C           -1.923115448324     0.899636388089     0.196038801078    12.000000000000
         C           -1.817827448324    -1.513398611911     0.027365801078    12.000000000000
         C           -2.550490448324    -0.315574611911     0.239919801078    12.000000000000
         H            1.805432551676     0.155970388089    -1.527852198922     1.007825032230
         H            2.019170551676     0.645435388089     1.507534801078     1.007825032230
         H            3.305607551676     1.018187388089     0.265298801078     1.007825032230
         H            3.350791551676    -1.470979611911    -0.370309198922     1.007825032230
         H            2.082065551676    -1.783275611911     0.904470801078     1.007825032230
         H            0.194582051676    -2.298110411911    -0.187489598922     1.007825032230
         H           -2.463548448324     1.829098388089     0.345316801078     1.007825032230
         H           -2.296956448324    -2.485675611911     0.041700801078     1.007825032230
         H           -3.618324448324    -0.364405611911     0.441849801078     1.007825032230

  Basis Set: AUG-CC-PVTZ
    Blend: AUG-CC-PVTZ
  Basis Set: (AUG-CC-PVTZ AUX)
    Blend: AUG-CC-PVTZ-JKFIT
	 Reference Energy          =    -437.6079526531208330 [Eh]
	 Singles Energy            =      -0.0000000000000000 [Eh]
	 Same-Spin Energy          =      -0.4680266655795818 [Eh]
	 Opposite-Spin Energy      =      -1.4650906400875248 [Eh]
	 Correlation Energy        =      -1.9331173056671065 [Eh]
	 Total Energy              =    -439.5410699587879435 [Eh]

	 ================> DF-SCS-MP2 Energies <==================
	-----------------------------------------------------------
	 SCS Same-Spin Scale       =       0.3333333333333333 [-]
	 SCS Opposite-Spin Scale   =       1.2000000000000000 [-]
	 SCS Same-Spin Energy      =      -0.1560088885265273 [Eh]
	 SCS Opposite-Spin Energy  =      -1.7581087681050296 [Eh]
	 SCS Correlation Energy    =      -1.9141176566315568 [Eh]
	 SCS Total Energy          =    -439.5220703097523938 [Eh]
	-----------------------------------------------------------

  Dipole Moment: [D]
     X:    -0.0131      Y:    -3.7732      Z:     0.2817     Total:     3.7837

*** Psi4 exiting successfully. Buy a developer a beer!
