                               Psi4 1.3.2 release

  ==> Input File <==

--------------------------------------------------------------------------
#psi4
#
memory 32 gb

molecule  {
0 1
  O        0.0787650     2.1311770    -0.2164080
  N        0.1333340    -0.1752640    -0.2334700
  C        1.5484140    -0.1005230    -0.5118890
  C        2.4562500     0.4082890     0.5600040
  C        2.4806620    -1.0501060     0.1884540
  C       -0.5399690     1.0666720    -0.0960400
  C       -0.5048870    -1.3883940    -0.2151950
  C       -1.9528000     0.9321040     0.1889810
  C       -1.8475120    -1.4809310     0.0203080
  C       -2.5801750    -0.2831070     0.2328620
  H        1.7757480     0.1884380    -1.5349100
  H        1.9894860     0.6779030     1.5004770
  H        3.2759230     1.0506550     0.2582410
  H        3.3211070    -1.4385120    -0.3773670
  H        2.0523810    -1.7508080     0.8974130
  H        0.1298880    -2.2506920    -0.3908910
  H       -2.4932330     1.8615660     0.3382590
  H       -2.3266410    -2.4532080     0.0346430
  H       -3.6760867    -0.3228828     0.2877218
units angstrom
no_reorient  #important for SAPT in psi4, default
symmetry c1  #important for SAPT in psi4, default
}

set PROPERTIES_ORIGIN ["COM"]
properties('MP2/aug-cc-pvtz', properties = ['dipole'])
--------------------------------------------------------------------------

    Molecular point group: c1
  Charge       = 0
  Multiplicity = 1
  Basis Set: AUG-CC-PVTZ
    Blend: AUG-CC-PVTZ
  Basis Set: (AUG-CC-PVTZ AUX)
    Blend: AUG-CC-PVTZ-JKFIT

    Orbital Energies [Eh]
    ---------------------

    Doubly Occupied:

       1A    -20.507361     2A    -15.627383     3A    -11.350128
       4A    -11.307089     5A    -11.279315     6A    -11.271410
       7A    -11.243248     8A    -11.239387     9A    -11.237235
      10A    -11.234116    11A     -1.370199    12A     -1.283115
      13A     -1.156151    14A     -1.095719    15A     -1.024680
      16A     -0.901268    17A     -0.868854    18A     -0.829527
      19A     -0.810464    20A     -0.725803    21A     -0.697580
      22A     -0.681948    23A     -0.663011    24A     -0.640065
      25A     -0.606346    26A     -0.595017    27A     -0.575136
      28A     -0.546629    29A     -0.535399    30A     -0.526090
      31A     -0.480673    32A     -0.456147    33A     -0.440062
      34A     -0.418999    35A     -0.400343    36A     -0.308888

  @DF-RHF Final Energy:  -437.60927938803439

   => Energetics <=

    Nuclear Repulsion Energy =            508.1629415557379161
    One-Electron Energy =               -1601.6748731558595864
    Two-Electron Energy =                 655.9026522120872187
    Total Energy =                       -437.6092793880344516
  Basis Set: (AUG-CC-PVTZ AUX)
    Blend: AUG-CC-PVTZ-RI
    Molecular point group: c1

    Geometry (in Angstrom), charge = 0, multiplicity = 1:

       Center              X                  Y                   Z               Mass
    ------------   -----------------  -----------------  -----------------  -----------------
         O            0.108920282452     2.098530265176    -0.206787786186    15.994914619570
         N            0.163489282452    -0.207910734824    -0.223849786186    14.003074004430
         C            1.578569282452    -0.133169734824    -0.502268786186    12.000000000000
         C            2.486405282452     0.375642265176     0.569624213814    12.000000000000
         C            2.510817282452    -1.082752734824     0.198074213814    12.000000000000
         C           -0.509813717548     1.034025265176    -0.086419786186    12.000000000000
         C           -0.474731717548    -1.421040734824    -0.205574786186    12.000000000000
         C           -1.922644717548     0.899457265176     0.198601213814    12.000000000000
         C           -1.817356717548    -1.513577734824     0.029928213814    12.000000000000
         C           -2.550019717548    -0.315753734824     0.242482213814    12.000000000000
         H            1.805903282452     0.155791265176    -1.525289786186     1.007825032230
         H            2.019641282452     0.645256265176     1.510097213814     1.007825032230
         H            3.306078282452     1.018008265176     0.267861213814     1.007825032230
         H            3.351262282452    -1.471158734824    -0.367746786186     1.007825032230
         H            2.082536282452    -1.783454734824     0.907033213814     1.007825032230
         H            0.160043282452    -2.283338734824    -0.381270786186     1.007825032230
         H           -2.463077717548     1.828919265176     0.347879213814     1.007825032230
         H           -2.296485717548    -2.485854734824     0.044263213814     1.007825032230
         H           -3.645931417548    -0.355529534824     0.297342013814     1.007825032230

  Basis Set: AUG-CC-PVTZ
    Blend: AUG-CC-PVTZ
  Basis Set: (AUG-CC-PVTZ AUX)
    Blend: AUG-CC-PVTZ-JKFIT
	 Reference Energy          =    -437.6092793880343947 [Eh]
	 Singles Energy            =      -0.0000000000000000 [Eh]
	 Same-Spin Energy          =      -0.4678318905526843 [Eh]
	 Opposite-Spin Energy      =      -1.4648324729638649 [Eh]
	 Correlation Energy        =      -1.9326643635165492 [Eh]
	 Total Energy              =    -439.5419437515509458 [Eh]

	 ================> DF-SCS-MP2 Energies <==================
	-----------------------------------------------------------
	 SCS Same-Spin Scale       =       0.3333333333333333 [-]
	 SCS Opposite-Spin Scale   =       1.2000000000000000 [-]
	 SCS Same-Spin Energy      =      -0.1559439635175614 [Eh]
	 SCS Opposite-Spin Energy  =      -1.7577989675566379 [Eh]
	 SCS Correlation Energy    =      -1.9137429310741993 [Eh]
	 SCS Total Energy          =    -439.5230223191085770 [Eh]
	-----------------------------------------------------------

  Dipole Moment: [D]
     X:    -0.0128      Y:    -3.7845      Z:     0.0658     Total:     3.7851

*** Psi4 exiting successfully. Buy a developer a beer!
