                               Psi4 1.3.2 release

  ==> Input File <==

--------------------------------------------------------------------------
#psi4
#
memory 32 gb

molecule  {
0 1
  O        0.0787650     2.1311770    -0.2164080
  N        0.1333340    -0.1752640    -0.2334700
  C        1.5484140    -0.1005230    -0.5118890
  C        2.4562500     0.4082890     0.5600040
  C        2.4806620    -1.0501060     0.1884540
  C       -0.5399690     1.0666720    -0.0960400
  C       -0.5048870    -1.3883940    -0.2151950
  C       -1.9922310     0.9326215    -0.0070928
  C       -1.8475120    -1.4809310     0.0203080
  C       -2.5801750    -0.2831070     0.2328620
  H        1.7757480     0.1884380    -1.5349100
  H        1.9894860     0.6779030     1.5004770
  H        3.2759230     1.0506550     0.2582410
  H        3.3211070    -1.4385120    -0.3773670
  H        2.0523810    -1.7508080     0.8974130
  H        0.1298880    -2.2506920    -0.3908910
  H       -2.4932330     1.8615660     0.3382590
  H       -2.3266410    -2.4532080     0.0346430
  H       -3.6480090    -0.3319380     0.4347920
units angstrom
no_reorient  #important for SAPT in psi4, default
symmetry c1  #important for SAPT in psi4, default
}

set PROPERTIES_ORIGIN ["COM"]
properties('MP2/aug-cc-pvtz', properties = ['dipole'])
--------------------------------------------------------------------------

    Molecular point group: c1
  Charge       = 0
  Multiplicity = 1
  Basis Set: AUG-CC-PVTZ
    Blend: AUG-CC-PVTZ
  Basis Set: (AUG-CC-PVTZ AUX)
    Blend: AUG-CC-PVTZ-JKFIT

    Orbital Energies [Eh]
    ---------------------

    Doubly Occupied:

       1A    -20.508221     2A    -15.627310     3A    -11.351587
       4A    -11.308548     5A    -11.279611     6A    -11.272208
       7A    -11.243387     8A    -11.239354     9A    -11.239034
      10A    -11.234420    11A     -1.370402    12A     -1.283479
      13A     -1.156306    14A     -1.095876    15A     -1.023235
      16A     -0.900393    17A     -0.868468    18A     -0.829446
      19A     -0.810181    20A     -0.725519    21A     -0.696251
      22A     -0.681905    23A     -0.663663    24A     -0.637495
      25A     -0.605049    26A     -0.592825    27A     -0.577462
      28A     -0.545963    29A     -0.530772    30A     -0.525899
      31A     -0.480949    32A     -0.455296    33A     -0.440585
      34A     -0.420141    35A     -0.399368    36A     -0.309580

  @DF-RHF Final Energy:  -437.60063029582193

   => Energetics <=

    Nuclear Repulsion Energy =            507.8067275639563150
    One-Electron Energy =               -1600.9543451935683152
    Two-Electron Energy =                 655.5469873337899571
    Total Energy =                       -437.6006302958219294
  Basis Set: (AUG-CC-PVTZ AUX)
    Blend: AUG-CC-PVTZ-RI
    Molecular point group: c1

    Geometry (in Angstrom), charge = 0, multiplicity = 1:

       Center              X                  Y                   Z               Mass
    ------------   -----------------  -----------------  -----------------  -----------------
         O            0.112213980647     2.098551854659    -0.190465209300    15.994914619570
         N            0.166782980647    -0.207889145341    -0.207527209300    14.003074004430
         C            1.581862980647    -0.133148145341    -0.485946209300    12.000000000000
         C            2.489698980647     0.375663854659     0.585946790700    12.000000000000
         C            2.514110980647    -1.082731145341     0.214396790700    12.000000000000
         C           -0.506520019353     1.034046854659    -0.070097209300    12.000000000000
         C           -0.471438019353    -1.421019145341    -0.189252209300    12.000000000000
         C           -1.958782019353     0.899996354659     0.018849990700    12.000000000000
         C           -1.814063019353    -1.513556145341     0.046250790700    12.000000000000
         C           -2.546726019353    -0.315732145341     0.258804790700    12.000000000000
         H            1.809196980647     0.155812854659    -1.508967209300     1.007825032230
         H            2.022934980647     0.645277854659     1.526419790700     1.007825032230
         H            3.309371980647     1.018029854659     0.284183790700     1.007825032230
         H            3.354555980647    -1.471137145341    -0.351424209300     1.007825032230
         H            2.085829980647    -1.783433145341     0.923355790700     1.007825032230
         H            0.163336980647    -2.283317145341    -0.364948209300     1.007825032230
         H           -2.459784019353     1.828940854659     0.364201790700     1.007825032230
         H           -2.293192019353    -2.485833145341     0.060585790700     1.007825032230
         H           -3.614560019353    -0.364563145341     0.460734790700     1.007825032230

  Basis Set: AUG-CC-PVTZ
    Blend: AUG-CC-PVTZ
  Basis Set: (AUG-CC-PVTZ AUX)
    Blend: AUG-CC-PVTZ-JKFIT
	 Reference Energy          =    -437.6006302958219294 [Eh]
	 Singles Energy            =      -0.0000000000000000 [Eh]
	 Same-Spin Energy          =      -0.4679551898843759 [Eh]
	 Opposite-Spin Energy      =      -1.4655625946674882 [Eh]
	 Correlation Energy        =      -1.9335177845518641 [Eh]
	 Total Energy              =    -439.5341480803737682 [Eh]

	 ================> DF-SCS-MP2 Energies <==================
	-----------------------------------------------------------
	 SCS Same-Spin Scale       =       0.3333333333333333 [-]
	 SCS Opposite-Spin Scale   =       1.2000000000000000 [-]
	 SCS Same-Spin Energy      =      -0.1559850632947919 [Eh]
	 SCS Opposite-Spin Energy  =      -1.7586751136009857 [Eh]
	 SCS Correlation Energy    =      -1.9146601768957776 [Eh]
	 SCS Total Energy          =    -439.5152904727177088 [Eh]
	-----------------------------------------------------------

  Dipole Moment: [D]
     X:     0.0610      Y:    -3.8315      Z:     0.2620     Total:     3.8410

*** Psi4 exiting successfully. Buy a developer a beer!
