                               Psi4 1.3.2 release

  ==> Input File <==

--------------------------------------------------------------------------
#psi4
#
memory 32 gb

molecule  {
0 1
  O       -1.6795290    -0.6689080     0.0000150
  O       -0.5986390     1.3214310    -0.0000090
  C        0.6881802    -0.7445992    -0.0500210
  C        1.9587280     0.0929010     0.0000160
  C       -0.5569890     0.1032180    -0.0000050
  H        0.6387670    -1.4041120    -0.8735980
  H        0.6387510    -1.4041660     0.8735140
  H        2.8395290    -0.5539470    -0.0001680
  H        1.9988870     0.7359150    -0.8812290
  H        1.9990450     0.7356100     0.8814780
  H       -2.4291550    -0.0386050     0.0000200
units angstrom
no_reorient  #important for SAPT in psi4, default
symmetry c1  #important for SAPT in psi4, default
}

set PROPERTIES_ORIGIN ["COM"]
properties('MP2/aug-cc-pvtz', properties = ['dipole'])
--------------------------------------------------------------------------

    Molecular point group: c1
  Charge       = 0
  Multiplicity = 1
  Basis Set: AUG-CC-PVTZ
    Blend: AUG-CC-PVTZ
  Basis Set: (AUG-CC-PVTZ AUX)
    Blend: AUG-CC-PVTZ-JKFIT

    Orbital Energies [Eh]
    ---------------------

    Doubly Occupied:

       1A    -20.615501     2A    -20.552517     3A    -11.389990
       4A    -11.252091     5A    -11.225069     6A     -1.459400
       7A     -1.356864     8A     -1.067762     9A     -0.914545
      10A     -0.792071    11A     -0.704673    12A     -0.689447
      13A     -0.658777    14A     -0.598233    15A     -0.591555
      16A     -0.536463    17A     -0.529333    18A     -0.501858
      19A     -0.482877    20A     -0.453965

  @DF-RHF Final Energy:  -266.94878560681315

   => Energetics <=

    Nuclear Repulsion Energy =            177.8786436252251804
    One-Electron Energy =                -716.9088718354270213
    Two-Electron Energy =                 272.0814426033886662
    Total Energy =                       -266.9487856068131464
  Basis Set: (AUG-CC-PVTZ AUX)
    Blend: AUG-CC-PVTZ-RI
    Molecular point group: c1

    Geometry (in Angstrom), charge = 0, multiplicity = 1:

       Center              X                  Y                   Z               Mass
    ------------   -----------------  -----------------  -----------------  -----------------
         O           -1.603489002905    -0.694717947612     0.008119173386    15.994914619570
         O           -0.522599002905     1.295621052388     0.008095173386    15.994914619570
         C            0.764220197095    -0.770409147612    -0.041916826614    12.000000000000
         C            2.034767997095     0.067091052388     0.008120173386    12.000000000000
         C           -0.480949002905     0.077408052388     0.008099173386    12.000000000000
         H            0.714806997095    -1.429921947612    -0.865493826614     1.007825032230
         H            0.714790997095    -1.429975947612     0.881618173386     1.007825032230
         H            2.915568997095    -0.579756947612     0.007936173386     1.007825032230
         H            2.074926997095     0.710105052388    -0.873124826614     1.007825032230
         H            2.075084997095     0.709800052388     0.889582173386     1.007825032230
         H           -2.353115002905    -0.064414947612     0.008124173386     1.007825032230

  Basis Set: AUG-CC-PVTZ
    Blend: AUG-CC-PVTZ
  Basis Set: (AUG-CC-PVTZ AUX)
    Blend: AUG-CC-PVTZ-JKFIT
	 Reference Energy          =    -266.9487856068131464 [Eh]
	 Singles Energy            =      -0.0000000000000000 [Eh]
	 Same-Spin Energy          =      -0.2578017896820408 [Eh]
	 Opposite-Spin Energy      =      -0.8244452530597545 [Eh]
	 Correlation Energy        =      -1.0822470427417952 [Eh]
	 Total Energy              =    -268.0310326495549589 [Eh]

	 ================> DF-SCS-MP2 Energies <==================
	-----------------------------------------------------------
	 SCS Same-Spin Scale       =       0.3333333333333333 [-]
	 SCS Opposite-Spin Scale   =       1.2000000000000000 [-]
	 SCS Same-Spin Energy      =      -0.0859339298940136 [Eh]
	 SCS Opposite-Spin Energy  =      -0.9893343036717053 [Eh]
	 SCS Correlation Energy    =      -1.0752682335657189 [Eh]
	 SCS Total Energy          =    -268.0240538403788833 [Eh]
	-----------------------------------------------------------

  Dipole Moment: [D]
     X:     0.1889      Y:    -1.5249      Z:    -0.0265     Total:     1.5368

*** Psi4 exiting successfully. Buy a developer a beer!
