                               Psi4 1.3.2 release

  ==> Input File <==

--------------------------------------------------------------------------
#psi4
#
memory 32 gb

molecule  {
0 1
  O       -1.6795290    -0.6689080     0.0000150
  O       -0.5986390     1.3214310    -0.0000090
  C        0.6881764    -0.7446001    -0.3000210
  C        1.9587280     0.0929010     0.0000160
  C       -0.5569890     0.1032180    -0.0000050
  H        0.6387670    -1.4041120    -0.8735980
  H        0.6387510    -1.4041660     0.8735140
  H        2.8395290    -0.5539470    -0.0001680
  H        1.9988870     0.7359150    -0.8812290
  H        1.9990450     0.7356100     0.8814780
  H       -2.4291550    -0.0386050     0.0000200
units angstrom
no_reorient  #important for SAPT in psi4, default
symmetry c1  #important for SAPT in psi4, default
}

set PROPERTIES_ORIGIN ["COM"]
properties('MP2/aug-cc-pvtz', properties = ['dipole'])
--------------------------------------------------------------------------

    Molecular point group: c1
  Charge       = 0
  Multiplicity = 1
  Basis Set: AUG-CC-PVTZ
    Blend: AUG-CC-PVTZ
  Basis Set: (AUG-CC-PVTZ AUX)
    Blend: AUG-CC-PVTZ-JKFIT

    Orbital Energies [Eh]
    ---------------------

    Doubly Occupied:

       1A    -20.615283     2A    -20.553910     3A    -11.396574
       4A    -11.262689     5A    -11.232304     6A     -1.459628
       7A     -1.357804     8A     -1.068472     9A     -0.916468
      10A     -0.815371    11A     -0.713737    12A     -0.701729
      13A     -0.644189    14A     -0.606422    15A     -0.584497
      16A     -0.567015    17A     -0.526887    18A     -0.485758
      19A     -0.464281    20A     -0.433200

  @DF-RHF Final Energy:  -266.85451343734030

   => Energetics <=

    Nuclear Repulsion Energy =            177.4046339943976136
    One-Electron Energy =                -715.7058599896029136
    Two-Electron Energy =                 271.4467125578649984
    Total Energy =                       -266.8545134373403016
  Basis Set: (AUG-CC-PVTZ AUX)
    Blend: AUG-CC-PVTZ-RI
    Molecular point group: c1

    Geometry (in Angstrom), charge = 0, multiplicity = 1:

       Center              X                  Y                   Z               Mass
    ------------   -----------------  -----------------  -----------------  -----------------
         O           -1.603488386995    -0.694717801738     0.048639574503    15.994914619570
         O           -0.522598386995     1.295621198262     0.048615574503    15.994914619570
         C            0.764217013005    -0.770409901738    -0.251396425497    12.000000000000
         C            2.034768613005     0.067091198262     0.048640574503    12.000000000000
         C           -0.480948386995     0.077408198262     0.048619574503    12.000000000000
         H            0.714807613005    -1.429921801738    -0.824973425497     1.007825032230
         H            0.714791613005    -1.429975801738     0.922138574503     1.007825032230
         H            2.915569613005    -0.579756801738     0.048456574503     1.007825032230
         H            2.074927613005     0.710105198262    -0.832604425497     1.007825032230
         H            2.075085613005     0.709800198262     0.930102574503     1.007825032230
         H           -2.353114386995    -0.064414801738     0.048644574503     1.007825032230

  Basis Set: AUG-CC-PVTZ
    Blend: AUG-CC-PVTZ
  Basis Set: (AUG-CC-PVTZ AUX)
    Blend: AUG-CC-PVTZ-JKFIT
	 Reference Energy          =    -266.8545134373403016 [Eh]
	 Singles Energy            =      -0.0000000000000000 [Eh]
	 Same-Spin Energy          =      -0.2589716877020484 [Eh]
	 Opposite-Spin Energy      =      -0.8289653225974807 [Eh]
	 Correlation Energy        =      -1.0879370102995292 [Eh]
	 Total Energy              =    -267.9424504476398283 [Eh]

	 ================> DF-SCS-MP2 Energies <==================
	-----------------------------------------------------------
	 SCS Same-Spin Scale       =       0.3333333333333333 [-]
	 SCS Opposite-Spin Scale   =       1.2000000000000000 [-]
	 SCS Same-Spin Energy      =      -0.0863238959006828 [Eh]
	 SCS Opposite-Spin Energy  =      -0.9947583871169767 [Eh]
	 SCS Correlation Energy    =      -1.0810822830176596 [Eh]
	 SCS Total Energy          =    -267.9355957203579806 [Eh]
	-----------------------------------------------------------

  Dipole Moment: [D]
     X:     0.2287      Y:    -1.4151      Z:    -0.1441     Total:     1.4407

*** Psi4 exiting successfully. Buy a developer a beer!
