                               Psi4 1.3.2 release

  ==> Input File <==

--------------------------------------------------------------------------
#psi4
#
memory 32 gb

molecule  {
0 1
  O       -1.6795290    -0.6689080     0.0000150
  O       -0.5986390     1.3214310    -0.0000090
  C        0.6881795    -0.7445994    -0.1000210
  C        1.9587280     0.0929010     0.0000160
  C       -0.5569890     0.1032180    -0.0000050
  H        0.6387670    -1.4041120    -0.8735980
  H        0.6387510    -1.4041660     0.8735140
  H        2.8395290    -0.5539470    -0.0001680
  H        1.9988870     0.7359150    -0.8812290
  H        1.9990450     0.7356100     0.8814780
  H       -2.4291550    -0.0386050     0.0000200
units angstrom
no_reorient  #important for SAPT in psi4, default
symmetry c1  #important for SAPT in psi4, default
}

set PROPERTIES_ORIGIN ["COM"]
properties('MP2/aug-cc-pvtz', properties = ['dipole'])
--------------------------------------------------------------------------

    Molecular point group: c1
  Charge       = 0
  Multiplicity = 1
  Basis Set: AUG-CC-PVTZ
    Blend: AUG-CC-PVTZ
  Basis Set: (AUG-CC-PVTZ AUX)
    Blend: AUG-CC-PVTZ-JKFIT

    Orbital Energies [Eh]
    ---------------------

    Doubly Occupied:

       1A    -20.615482     2A    -20.552644     3A    -11.390577
       4A    -11.253006     5A    -11.225717     6A     -1.459423
       7A     -1.356951     8A     -1.067796     9A     -0.914631
      10A     -0.794164    11A     -0.705092    12A     -0.692536
      13A     -0.656283    14A     -0.599920    15A     -0.589771
      16A     -0.541741    17A     -0.531027    18A     -0.494262
      19A     -0.482189    20A     -0.452960

  @DF-RHF Final Energy:  -266.94084145251156

   => Energetics <=

    Nuclear Repulsion Energy =            177.8374781846513599
    One-Electron Energy =                -716.8042963065588538
    Two-Electron Energy =                 272.0259766693959591
    Total Energy =                       -266.9408414525115631
  Basis Set: (AUG-CC-PVTZ AUX)
    Blend: AUG-CC-PVTZ-RI
    Molecular point group: c1

    Geometry (in Angstrom), charge = 0, multiplicity = 1:

       Center              X                  Y                   Z               Mass
    ------------   -----------------  -----------------  -----------------  -----------------
         O           -1.603488889448    -0.694717915195     0.016223253610    15.994914619570
         O           -0.522598889448     1.295621084805     0.016199253610    15.994914619570
         C            0.764219610552    -0.770409315195    -0.083812746390    12.000000000000
         C            2.034768110552     0.067091084805     0.016224253610    12.000000000000
         C           -0.480948889448     0.077408084805     0.016203253610    12.000000000000
         H            0.714807110552    -1.429921915195    -0.857389746390     1.007825032230
         H            0.714791110552    -1.429975915195     0.889722253610     1.007825032230
         H            2.915569110552    -0.579756915195     0.016040253610     1.007825032230
         H            2.074927110552     0.710105084805    -0.865020746390     1.007825032230
         H            2.075085110552     0.709800084805     0.897686253610     1.007825032230
         H           -2.353114889448    -0.064414915195     0.016228253610     1.007825032230

  Basis Set: AUG-CC-PVTZ
    Blend: AUG-CC-PVTZ
  Basis Set: (AUG-CC-PVTZ AUX)
    Blend: AUG-CC-PVTZ-JKFIT
	 Reference Energy          =    -266.9408414525115631 [Eh]
	 Singles Energy            =      -0.0000000000000000 [Eh]
	 Same-Spin Energy          =      -0.2578988097855086 [Eh]
	 Opposite-Spin Energy      =      -0.8248216659192902 [Eh]
	 Correlation Energy        =      -1.0827204757047988 [Eh]
	 Total Energy              =    -268.0235619282163384 [Eh]

	 ================> DF-SCS-MP2 Energies <==================
	-----------------------------------------------------------
	 SCS Same-Spin Scale       =       0.3333333333333333 [-]
	 SCS Opposite-Spin Scale   =       1.2000000000000000 [-]
	 SCS Same-Spin Energy      =      -0.0859662699285029 [Eh]
	 SCS Opposite-Spin Energy  =      -0.9897859991031481 [Eh]
	 SCS Correlation Energy    =      -1.0757522690316510 [Eh]
	 SCS Total Energy          =    -268.0165937215431882 [Eh]
	-----------------------------------------------------------

  Dipole Moment: [D]
     X:     0.1926      Y:    -1.5141      Z:    -0.0526     Total:     1.5272

*** Psi4 exiting successfully. Buy a developer a beer!
