                               Psi4 1.3.2 release

  ==> Input File <==

--------------------------------------------------------------------------
#psi4
#
memory 32 gb

molecule  {
0 1
  O       -1.6795290    -0.6689080     0.0000150
  O       -0.5986390     1.3214310    -0.0000090
  C        0.6881772    -0.7445999    -0.2500210
  C        1.9587280     0.0929010     0.0000160
  C       -0.5569890     0.1032180    -0.0000050
  H        0.6387670    -1.4041120    -0.8735980
  H        0.6387510    -1.4041660     0.8735140
  H        2.8395290    -0.5539470    -0.0001680
  H        1.9988870     0.7359150    -0.8812290
  H        1.9990450     0.7356100     0.8814780
  H       -2.4291550    -0.0386050     0.0000200
units angstrom
no_reorient  #important for SAPT in psi4, default
symmetry c1  #important for SAPT in psi4, default
}

set PROPERTIES_ORIGIN ["COM"]
properties('MP2/aug-cc-pvtz', properties = ['dipole'])
--------------------------------------------------------------------------

    Molecular point group: c1
  Charge       = 0
  Multiplicity = 1
  Basis Set: AUG-CC-PVTZ
    Blend: AUG-CC-PVTZ
  Basis Set: (AUG-CC-PVTZ AUX)
    Blend: AUG-CC-PVTZ-JKFIT

    Orbital Energies [Eh]
    ---------------------

    Doubly Occupied:

       1A    -20.615351     2A    -20.553493     3A    -11.394571
       4A    -11.259385     5A    -11.230108     6A     -1.459565
       7A     -1.357527     8A     -1.068178     9A     -0.915645
      10A     -0.808514    11A     -0.710730    12A     -0.700845
      13A     -0.646896    14A     -0.605023    15A     -0.584924
      16A     -0.562283    17A     -0.528604    18A     -0.485751
      19A     -0.468092    20A     -0.441222

  @DF-RHF Final Energy:  -266.88442677288651

   => Energetics <=

    Nuclear Repulsion Energy =            177.5523173138024617
    One-Electron Energy =                -716.0800759307950329
    Two-Electron Energy =                 271.6433318441060010
    Total Energy =                       -266.8844267728865134
  Basis Set: (AUG-CC-PVTZ AUX)
    Blend: AUG-CC-PVTZ-RI
    Molecular point group: c1

    Geometry (in Angstrom), charge = 0, multiplicity = 1:

       Center              X                  Y                   Z               Mass
    ------------   -----------------  -----------------  -----------------  -----------------
         O           -1.603488516660    -0.694717834155     0.040535494280    15.994914619570
         O           -0.522598516660     1.295621165845     0.040511494280    15.994914619570
         C            0.764217683340    -0.770409734155    -0.209500505720    12.000000000000
         C            2.034768483340     0.067091165845     0.040536494280    12.000000000000
         C           -0.480948516660     0.077408165845     0.040515494280    12.000000000000
         H            0.714807483340    -1.429921834155    -0.833077505720     1.007825032230
         H            0.714791483340    -1.429975834155     0.914034494280     1.007825032230
         H            2.915569483340    -0.579756834155     0.040352494280     1.007825032230
         H            2.074927483340     0.710105165845    -0.840708505720     1.007825032230
         H            2.075085483340     0.709800165845     0.921998494280     1.007825032230
         H           -2.353114516660    -0.064414834155     0.040540494280     1.007825032230

  Basis Set: AUG-CC-PVTZ
    Blend: AUG-CC-PVTZ
  Basis Set: (AUG-CC-PVTZ AUX)
    Blend: AUG-CC-PVTZ-JKFIT
	 Reference Energy          =    -266.8844267728865134 [Eh]
	 Singles Energy            =      -0.0000000000000000 [Eh]
	 Same-Spin Energy          =      -0.2585953102848311 [Eh]
	 Opposite-Spin Energy      =      -0.8275250062665773 [Eh]
	 Correlation Energy        =      -1.0861203165514084 [Eh]
	 Total Energy              =    -267.9705470894379005 [Eh]

	 ================> DF-SCS-MP2 Energies <==================
	-----------------------------------------------------------
	 SCS Same-Spin Scale       =       0.3333333333333333 [-]
	 SCS Opposite-Spin Scale   =       1.2000000000000000 [-]
	 SCS Same-Spin Energy      =      -0.0861984367616103 [Eh]
	 SCS Opposite-Spin Energy  =      -0.9930300075198928 [Eh]
	 SCS Correlation Energy    =      -1.0792284442815032 [Eh]
	 SCS Total Energy          =    -267.9636552171680250 [Eh]
	-----------------------------------------------------------

  Dipole Moment: [D]
     X:     0.2170      Y:    -1.4457      Z:    -0.1250     Total:     1.4672

*** Psi4 exiting successfully. Buy a developer a beer!
