                               Psi4 1.3.2 release

  ==> Input File <==

--------------------------------------------------------------------------
#psi4
#
memory 32 gb

molecule  {
0 1
  O       -1.6795290    -0.6689080     0.0000150
  O       -0.5986390     1.3214310    -0.0000090
  C        0.6881779    -0.7445997    -0.2000210
  C        1.9587280     0.0929010     0.0000160
  C       -0.5569890     0.1032180    -0.0000050
  H        0.6387670    -1.4041120    -0.8735980
  H        0.6387510    -1.4041660     0.8735140
  H        2.8395290    -0.5539470    -0.0001680
  H        1.9988870     0.7359150    -0.8812290
  H        1.9990450     0.7356100     0.8814780
  H       -2.4291550    -0.0386050     0.0000200
units angstrom
no_reorient  #important for SAPT in psi4, default
symmetry c1  #important for SAPT in psi4, default
}

set PROPERTIES_ORIGIN ["COM"]
properties('MP2/aug-cc-pvtz', properties = ['dipole'])
--------------------------------------------------------------------------

    Molecular point group: c1
  Charge       = 0
  Multiplicity = 1
  Basis Set: AUG-CC-PVTZ
    Blend: AUG-CC-PVTZ
  Basis Set: (AUG-CC-PVTZ AUX)
    Blend: AUG-CC-PVTZ-JKFIT

    Orbital Energies [Eh]
    ---------------------

    Doubly Occupied:

       1A    -20.615407     2A    -20.553138     3A    -11.392885
       4A    -11.256659     5A    -11.228257     6A     -1.459507
       7A     -1.357287     8A     -1.067985     9A     -0.915121
      10A     -0.802497    11A     -0.707919    12A     -0.699132
      13A     -0.649923    14A     -0.603449    15A     -0.586165
      16A     -0.556123    17A     -0.529940    18A     -0.486152
      19A     -0.473524    20A     -0.447210

  @DF-RHF Final Energy:  -266.90875090015959

   => Energetics <=

    Nuclear Repulsion Energy =            177.6739460496750098
    One-Electron Energy =                -716.3888348355945936
    Two-Electron Energy =                 271.8061378857599948
    Total Energy =                       -266.9087509001595890
  Basis Set: (AUG-CC-PVTZ AUX)
    Blend: AUG-CC-PVTZ-RI
    Molecular point group: c1

    Geometry (in Angstrom), charge = 0, multiplicity = 1:

       Center              X                  Y                   Z               Mass
    ------------   -----------------  -----------------  -----------------  -----------------
         O           -1.603488630117    -0.694717866571     0.032431414056    15.994914619570
         O           -0.522598630117     1.295621133429     0.032407414056    15.994914619570
         C            0.764218269883    -0.770409566571    -0.167604585944    12.000000000000
         C            2.034768369883     0.067091133429     0.032432414056    12.000000000000
         C           -0.480948630117     0.077408133429     0.032411414056    12.000000000000
         H            0.714807369883    -1.429921866571    -0.841181585944     1.007825032230
         H            0.714791369883    -1.429975866571     0.905930414056     1.007825032230
         H            2.915569369883    -0.579756866571     0.032248414056     1.007825032230
         H            2.074927369883     0.710105133429    -0.848812585944     1.007825032230
         H            2.075085369883     0.709800133429     0.913894414056     1.007825032230
         H           -2.353114630117    -0.064414866571     0.032436414056     1.007825032230

  Basis Set: AUG-CC-PVTZ
    Blend: AUG-CC-PVTZ
  Basis Set: (AUG-CC-PVTZ AUX)
    Blend: AUG-CC-PVTZ-JKFIT
	 Reference Energy          =    -266.9087509001595890 [Eh]
	 Singles Energy            =      -0.0000000000000000 [Eh]
	 Same-Spin Energy          =      -0.2582932542380342 [Eh]
	 Opposite-Spin Energy      =      -0.8263552817255948 [Eh]
	 Correlation Energy        =      -1.0846485359636291 [Eh]
	 Total Energy              =    -267.9933994361232408 [Eh]

	 ================> DF-SCS-MP2 Energies <==================
	-----------------------------------------------------------
	 SCS Same-Spin Scale       =       0.3333333333333333 [-]
	 SCS Opposite-Spin Scale   =       1.2000000000000000 [-]
	 SCS Same-Spin Energy      =      -0.0860977514126781 [Eh]
	 SCS Opposite-Spin Energy  =      -0.9916263380707138 [Eh]
	 SCS Correlation Energy    =      -1.0777240894833917 [Eh]
	 SCS Total Energy          =    -267.9864749896429998 [Eh]
	-----------------------------------------------------------

  Dipole Moment: [D]
     X:     0.2068      Y:    -1.4734      Z:    -0.1026     Total:     1.4914

*** Psi4 exiting successfully. Buy a developer a beer!
