                               Psi4 1.3.2 release

  ==> Input File <==

--------------------------------------------------------------------------
#psi4
#
memory 32 gb

molecule  {
0 1
  O       -1.6795290    -0.6689080     0.0000150
  O       -0.5986390     1.3214310    -0.0000090
  C        0.6881787    -0.7445996    -0.1500210
  C        1.9587280     0.0929010     0.0000160
  C       -0.5569890     0.1032180    -0.0000050
  H        0.6387670    -1.4041120    -0.8735980
  H        0.6387510    -1.4041660     0.8735140
  H        2.8395290    -0.5539470    -0.0001680
  H        1.9988870     0.7359150    -0.8812290
  H        1.9990450     0.7356100     0.8814780
  H       -2.4291550    -0.0386050     0.0000200
units angstrom
no_reorient  #important for SAPT in psi4, default
symmetry c1  #important for SAPT in psi4, default
}

set PROPERTIES_ORIGIN ["COM"]
properties('MP2/aug-cc-pvtz', properties = ['dipole'])
--------------------------------------------------------------------------

    Molecular point group: c1
  Charge       = 0
  Multiplicity = 1
  Basis Set: AUG-CC-PVTZ
    Blend: AUG-CC-PVTZ
  Basis Set: (AUG-CC-PVTZ AUX)
    Blend: AUG-CC-PVTZ-JKFIT

    Orbital Energies [Eh]
    ---------------------

    Doubly Occupied:

       1A    -20.615450     2A    -20.552852     3A    -11.391547
       4A    -11.254530     5A    -11.226785     6A     -1.459459
       7A     -1.357093     8A     -1.067865     9A     -0.914807
      10A     -0.797657    11A     -0.706039    12A     -0.696180
      13A     -0.653144    14A     -0.601726    15A     -0.587869
      16A     -0.549027    17A     -0.530835    18A     -0.488172
      19A     -0.479379    20A     -0.450920

  @DF-RHF Final Energy:  -266.92752690162706

   => Energetics <=

    Nuclear Repulsion Energy =            177.7691320879183650
    One-Electron Energy =                -716.6306472033303407
    Two-Electron Energy =                 271.9339882137849145
    Total Energy =                       -266.9275269016270613
  Basis Set: (AUG-CC-PVTZ AUX)
    Blend: AUG-CC-PVTZ-RI
    Molecular point group: c1

    Geometry (in Angstrom), charge = 0, multiplicity = 1:

       Center              X                  Y                   Z               Mass
    ------------   -----------------  -----------------  -----------------  -----------------
         O           -1.603488759782    -0.694717882779     0.024327333833    15.994914619570
         O           -0.522598759782     1.295621117221     0.024303333833    15.994914619570
         C            0.764218940218    -0.770409482779    -0.125708666167    12.000000000000
         C            2.034768240218     0.067091117221     0.024328333833    12.000000000000
         C           -0.480948759782     0.077408117221     0.024307333833    12.000000000000
         H            0.714807240218    -1.429921882779    -0.849285666167     1.007825032230
         H            0.714791240218    -1.429975882779     0.897826333833     1.007825032230
         H            2.915569240218    -0.579756882779     0.024144333833     1.007825032230
         H            2.074927240218     0.710105117221    -0.856916666167     1.007825032230
         H            2.075085240218     0.709800117221     0.905790333833     1.007825032230
         H           -2.353114759782    -0.064414882779     0.024332333833     1.007825032230

  Basis Set: AUG-CC-PVTZ
    Blend: AUG-CC-PVTZ
  Basis Set: (AUG-CC-PVTZ AUX)
    Blend: AUG-CC-PVTZ-JKFIT
	 Reference Energy          =    -266.9275269016270613 [Eh]
	 Singles Energy            =      -0.0000000000000000 [Eh]
	 Same-Spin Energy          =      -0.2580619738515473 [Eh]
	 Opposite-Spin Energy      =      -0.8254558540801888 [Eh]
	 Correlation Energy        =      -1.0835178279317361 [Eh]
	 Total Energy              =    -268.0110447295588187 [Eh]

	 ================> DF-SCS-MP2 Energies <==================
	-----------------------------------------------------------
	 SCS Same-Spin Scale       =       0.3333333333333333 [-]
	 SCS Opposite-Spin Scale   =       1.2000000000000000 [-]
	 SCS Same-Spin Energy      =      -0.0860206579505157 [Eh]
	 SCS Opposite-Spin Energy  =      -0.9905470248962266 [Eh]
	 SCS Correlation Energy    =      -1.0765676828467423 [Eh]
	 SCS Total Energy          =    -268.0040945844738189 [Eh]
	-----------------------------------------------------------

  Dipole Moment: [D]
     X:     0.1986      Y:    -1.4966      Z:    -0.0782     Total:     1.5118

*** Psi4 exiting successfully. Buy a developer a beer!
