                               Psi4 1.3.2 release

  ==> Input File <==

--------------------------------------------------------------------------
#psi4
#
memory 32 gb

molecule  {
0 1
  O       -1.2482290     1.5306510     0.0000030
  N        1.4640540     0.4968240    -0.0000070
  N        0.5132228    -1.5895422     0.0000094
  N       -1.9984820    -0.6503890    -0.0000010
  C        0.3259400    -0.2627350     0.0000100
  C        2.5213300    -0.3786110    -0.0000100
  C        1.5711040     1.9546380     0.0000020
  C       -1.0383320     0.3066720     0.0000020
  C        1.9690460    -1.6456460     0.0000000
  C       -3.4103270    -0.3314980    -0.0000060
  H        3.5447240    -0.0301030    -0.0000120
  H        1.0842430     2.3633630    -0.8839110
  H        1.0842880     2.3633490     0.8839480
  H        2.6322840     2.2067670    -0.0000220
  H        2.4866360    -2.5959740    -0.0000050
  H       -1.6732310    -1.6118380    -0.0000010
  H       -3.9026090    -0.7325290     0.8908020
  H       -3.9026030    -0.7325320    -0.8908160
  H       -3.4966990     0.7550430    -0.0000090
units angstrom
no_reorient  #important for SAPT in psi4, default
symmetry c1  #important for SAPT in psi4, default
}

set PROPERTIES_ORIGIN ["COM"]
properties('MP2/aug-cc-pvtz', properties = ['dipole'])
--------------------------------------------------------------------------

    Molecular point group: c1
  Charge       = 0
  Multiplicity = 1
  Basis Set: AUG-CC-PVTZ
    Blend: AUG-CC-PVTZ
  Basis Set: (AUG-CC-PVTZ AUX)
    Blend: AUG-CC-PVTZ-JKFIT

    Orbital Energies [Eh]
    ---------------------

    Doubly Occupied:

       1A    -20.522462     2A    -15.635671     3A    -15.583337
       4A    -15.575814     5A    -11.360507     6A    -11.310769
       7A    -11.277420     8A    -11.275838     9A    -11.263380
      10A    -11.257587    11A     -1.380896    12A     -1.339958
      13A     -1.234572    14A     -1.179931    15A     -1.037188
      16A     -0.976301    17A     -0.949228    18A     -0.842250
      19A     -0.815044    20A     -0.769996    21A     -0.729629
      22A     -0.657810    23A     -0.655906    24A     -0.644906
      25A     -0.618645    26A     -0.601907    27A     -0.593354
      28A     -0.580063    29A     -0.557846    30A     -0.557111
      31A     -0.545654    32A     -0.527908    33A     -0.469592
      34A     -0.432689    35A     -0.397710    36A     -0.383950
      37A     -0.328472

  @DF-RHF Final Energy:  -470.82497182323300

   => Energetics <=

    Nuclear Repulsion Energy =            526.0536313085476650
    One-Electron Energy =               -1684.0146060021802441
    Two-Electron Energy =                 687.1360028703995795
    Total Energy =                       -470.8249718232329997
  Basis Set: (AUG-CC-PVTZ AUX)
    Blend: AUG-CC-PVTZ-RI
    Molecular point group: c1

    Geometry (in Angstrom), charge = 0, multiplicity = 1:

       Center              X                  Y                   Z               Mass
    ------------   -----------------  -----------------  -----------------  -----------------
         O           -1.254291517379     1.546551133496     0.000002874991    15.994914619570
         N            1.457991482621     0.512724133496    -0.000007125009    14.003074004430
         N            0.507160282621    -1.573642066504     0.000009274991    14.003074004430
         N           -2.004544517379    -0.634488866504    -0.000001125009    14.003074004430
         C            0.319877482621    -0.246834866504     0.000009874991    12.000000000000
         C            2.515267482621    -0.362710866504    -0.000010125009    12.000000000000
         C            1.565041482621     1.970538133496     0.000001874991    12.000000000000
         C           -1.044394517379     0.322572133496     0.000001874991    12.000000000000
         C            1.962983482621    -1.629745866504    -0.000000125009    12.000000000000
         C           -3.416389517379    -0.315597866504    -0.000006125009    12.000000000000
         H            3.538661482621    -0.014202866504    -0.000012125009     1.007825032230
         H            1.078180482621     2.379263133496    -0.883911125009     1.007825032230
         H            1.078225482621     2.379249133496     0.883947874991     1.007825032230
         H            2.626221482621     2.222667133496    -0.000022125009     1.007825032230
         H            2.480573482621    -2.580073866504    -0.000005125009     1.007825032230
         H           -1.679293517379    -1.595937866504    -0.000001125009     1.007825032230
         H           -3.908671517379    -0.716628866504     0.890801874991     1.007825032230
         H           -3.908665517379    -0.716631866504    -0.890816125009     1.007825032230
         H           -3.502761517379     0.770943133496    -0.000009125009     1.007825032230

  Basis Set: AUG-CC-PVTZ
    Blend: AUG-CC-PVTZ
  Basis Set: (AUG-CC-PVTZ AUX)
    Blend: AUG-CC-PVTZ-JKFIT
	 Reference Energy          =    -470.8249718232329997 [Eh]
	 Singles Energy            =      -0.0000000000000000 [Eh]
	 Same-Spin Energy          =      -0.4991845263315314 [Eh]
	 Opposite-Spin Energy      =      -1.5394101429008771 [Eh]
	 Correlation Energy        =      -2.0385946692324084 [Eh]
	 Total Energy              =    -472.8635664924653952 [Eh]

	 ================> DF-SCS-MP2 Energies <==================
	-----------------------------------------------------------
	 SCS Same-Spin Scale       =       0.3333333333333333 [-]
	 SCS Opposite-Spin Scale   =       1.2000000000000000 [-]
	 SCS Same-Spin Energy      =      -0.1663948421105104 [Eh]
	 SCS Opposite-Spin Energy  =      -1.8472921714810524 [Eh]
	 SCS Correlation Energy    =      -2.0136870135915630 [Eh]
	 SCS Total Energy          =    -472.8386588368245498 [Eh]
	-----------------------------------------------------------

  Dipole Moment: [D]
     X:     1.5351      Y:     0.0914      Z:    -0.0000     Total:     1.5379

*** Psi4 exiting successfully. Buy a developer a beer!
