                               Psi4 1.4a3.dev225

  ==> Input File <==

--------------------------------------------------------------------------
#psi4
#
memory 32 gb

molecule  {
0 1
  O       -1.2482290     1.5306510     0.0000030
  N        1.4640540     0.4968240    -0.0000070
  N        0.6053200    -1.5732460     0.0000100
  N       -1.9984820    -0.6503890    -0.0000010
  C        0.3259400    -0.2627350     0.0000100
  C        2.5213300    -0.3786110    -0.0000100
  C        1.5711040     1.9546380     0.0000020
  C       -1.0567889     0.3143754     0.0000019
  C        1.9690460    -1.6456460     0.0000000
  C       -3.4103270    -0.3314980    -0.0000060
  H        3.5447240    -0.0301030    -0.0000120
  H        1.0842430     2.3633630    -0.8839110
  H        1.0842880     2.3633490     0.8839480
  H        2.6322840     2.2067670    -0.0000220
  H        2.4866360    -2.5959740    -0.0000050
  H       -1.6732310    -1.6118380    -0.0000010
  H       -3.9026090    -0.7325290     0.8908020
  H       -3.9026030    -0.7325320    -0.8908160
  H       -3.4966990     0.7550430    -0.0000090
units angstrom
no_reorient  #important for SAPT in psi4, default
symmetry c1  #important for SAPT in psi4, default
}

set PROPERTIES_ORIGIN ["COM"]
properties('MP2/aug-cc-pvtz', properties = ['dipole'])
--------------------------------------------------------------------------

    Molecular point group: c1
  Charge       = 0
  Multiplicity = 1
  Basis Set: AUG-CC-PVTZ
    Blend: AUG-CC-PVTZ
  Basis Set: (AUG-CC-PVTZ AUX)
    Blend: AUG-CC-PVTZ-JKFIT

    Orbital Energies [Eh]
    ---------------------

    Doubly Occupied:

       1A    -20.523868     2A    -15.636112     3A    -15.585863
       4A    -15.563467     5A    -11.362403     6A    -11.304447
       7A    -11.274351     8A    -11.270618     9A    -11.259105
      10A    -11.253843    11A     -1.386930    12A     -1.346537
      13A     -1.238596    14A     -1.189605    15A     -1.032567
      16A     -0.978258    17A     -0.950990    18A     -0.836753
      19A     -0.812779    20A     -0.776149    21A     -0.733762
      22A     -0.659461    23A     -0.655387    24A     -0.648089
      25A     -0.621039    26A     -0.604301    27A     -0.594892
      28A     -0.583325    29A     -0.562726    30A     -0.559568
      31A     -0.547632    32A     -0.533022    33A     -0.456976
      34A     -0.433505    35A     -0.399648    36A     -0.389776
      37A     -0.321671

  @DF-RHF Final Energy:  -470.83621839312968

   => Energetics <=

    Nuclear Repulsion Energy =            527.0763965443597954
    One-Electron Energy =               -1686.0491925506476036
    Two-Electron Energy =                 688.1365776131581242
    Total Energy =                       -470.8362183931296840
  Basis Set: (AUG-CC-PVTZ AUX)
    Blend: AUG-CC-PVTZ-RI
    Molecular point group: c1

    Geometry (in Angstrom), charge = 0, multiplicity = 1:

       Center              X                  Y                   Z               Mass
    ------------   -----------------  -----------------  -----------------  -----------------
         O           -1.261972009716     1.544245624205     0.000002823207    15.994914619570
         N            1.450310990284     0.510418624205    -0.000007176793    14.003074004430
         N            0.591576990284    -1.559651375795     0.000009823207    14.003074004430
         N           -2.012225009716    -0.636794375795    -0.000001176793    14.003074004430
         C            0.312196990284    -0.249140375795     0.000009823207    12.000000000000
         C            2.507586990284    -0.365016375795    -0.000010176793    12.000000000000
         C            1.557360990284     1.968232624205     0.000001823207    12.000000000000
         C           -1.070531909716     0.327970024205     0.000001723207    12.000000000000
         C            1.955302990284    -1.632051375795    -0.000000176793    12.000000000000
         C           -3.424070009716    -0.317903375795    -0.000006176793    12.000000000000
         H            3.530980990284    -0.016508375795    -0.000012176793     1.007825032230
         H            1.070499990284     2.376957624205    -0.883911176793     1.007825032230
         H            1.070544990284     2.376943624205     0.883947823207     1.007825032230
         H            2.618540990284     2.220361624205    -0.000022176793     1.007825032230
         H            2.472892990284    -2.582379375795    -0.000005176793     1.007825032230
         H           -1.686974009716    -1.598243375795    -0.000001176793     1.007825032230
         H           -3.916352009716    -0.718934375795     0.890801823207     1.007825032230
         H           -3.916346009716    -0.718937375795    -0.890816176793     1.007825032230
         H           -3.510442009716     0.768637624205    -0.000009176793     1.007825032230

  Basis Set: AUG-CC-PVTZ
    Blend: AUG-CC-PVTZ
  Basis Set: (AUG-CC-PVTZ AUX)
    Blend: AUG-CC-PVTZ-JKFIT
	 Reference Energy          =    -470.8362183931296840 [Eh]
	 Singles Energy            =      -0.0000000000000000 [Eh]
	 Same-Spin Energy          =      -0.4988577575995781 [Eh]
	 Opposite-Spin Energy      =      -1.5362522098432843 [Eh]
	 Correlation Energy        =      -2.0351099674428625 [Eh]
	 Total Energy              =    -472.8713283605725337 [Eh]

	 ================> DF-SCS-MP2 Energies <==================
	-----------------------------------------------------------
	 SCS Same-Spin Scale       =       0.3333333333333333 [-]
	 SCS Opposite-Spin Scale   =       1.2000000000000000 [-]
	 SCS Same-Spin Energy      =      -0.1662859191998594 [Eh]
	 SCS Opposite-Spin Energy  =      -1.8435026518119411 [Eh]
	 SCS Correlation Energy    =      -2.0097885710118004 [Eh]
	 SCS Total Energy          =    -472.8460069641415089 [Eh]
	-----------------------------------------------------------

  Dipole Moment: [D]
     X:     1.2485      Y:     0.0589      Z:    -0.0000     Total:     1.2499

*** Psi4 exiting successfully. Buy a developer a beer!
