                               Psi4 1.3.2 release

  ==> Input File <==

--------------------------------------------------------------------------
#psi4
#
memory 32 gb

molecule  {
0 1
  O       -1.2482290     1.5306510     0.0000030
  N        1.4898689     0.4566417    -0.0000063
  N        0.6053200    -1.5732460     0.0000100
  N       -1.9984820    -0.6503890    -0.0000010
  C        0.3259400    -0.2627350     0.0000100
  C        2.5213300    -0.3786110    -0.0000100
  C        1.5711040     1.9546380     0.0000020
  C       -1.0383320     0.3066720     0.0000020
  C        1.9690460    -1.6456460     0.0000000
  C       -3.4103270    -0.3314980    -0.0000060
  H        3.5447240    -0.0301030    -0.0000120
  H        1.0842430     2.3633630    -0.8839110
  H        1.0842880     2.3633490     0.8839480
  H        2.6322840     2.2067670    -0.0000220
  H        2.4866360    -2.5959740    -0.0000050
  H       -1.6732310    -1.6118380    -0.0000010
  H       -3.9026090    -0.7325290     0.8908020
  H       -3.9026030    -0.7325320    -0.8908160
  H       -3.4966990     0.7550430    -0.0000090
units angstrom
no_reorient  #important for SAPT in psi4, default
symmetry c1  #important for SAPT in psi4, default
}

set PROPERTIES_ORIGIN ["COM"]
properties('MP2/aug-cc-pvtz', properties = ['dipole'])
--------------------------------------------------------------------------

    Molecular point group: c1
  Charge       = 0
  Multiplicity = 1
  Basis Set: AUG-CC-PVTZ
    Blend: AUG-CC-PVTZ
  Basis Set: (AUG-CC-PVTZ AUX)
    Blend: AUG-CC-PVTZ-JKFIT

    Orbital Energies [Eh]
    ---------------------

    Doubly Occupied:

       1A    -20.521166     2A    -15.638433     3A    -15.584127
       4A    -15.564939     5A    -11.362331     6A    -11.300060
       7A    -11.279279     8A    -11.269904     9A    -11.257953
      10A    -11.251399    11A     -1.382148    12A     -1.352802
      13A     -1.233916    14A     -1.187284    15A     -1.038688
      16A     -0.977435    17A     -0.949704    18A     -0.840993
      19A     -0.816548    20A     -0.772136    21A     -0.735480
      22A     -0.665132    23A     -0.656383    24A     -0.644771
      25A     -0.618706    26A     -0.603398    27A     -0.588735
      28A     -0.581344    29A     -0.567445    30A     -0.562467
      31A     -0.545244    32A     -0.531649    33A     -0.456412
      34A     -0.433520    35A     -0.402040    36A     -0.388978
      37A     -0.320216

  @DF-RHF Final Energy:  -470.83299521293770

   => Energetics <=

    Nuclear Repulsion Energy =            527.3466839359844016
    One-Electron Energy =               -1686.5930286355112457
    Two-Electron Energy =                 688.4133494865891407
    Total Energy =                       -470.8329952129377034
  Basis Set: (AUG-CC-PVTZ AUX)
    Blend: AUG-CC-PVTZ-RI
    Molecular point group: c1

    Geometry (in Angstrom), charge = 0, multiplicity = 1:

       Center              X                  Y                   Z               Mass
    ------------   -----------------  -----------------  -----------------  -----------------
         O           -1.266163795382     1.548956165885     0.000002744097    15.994914619570
         N            1.471934104618     0.474946865885    -0.000006555903    14.003074004430
         N            0.587385204618    -1.554940834115     0.000009744097    14.003074004430
         N           -2.016416795382    -0.632083834115    -0.000001255903    14.003074004430
         C            0.308005204618    -0.244429834115     0.000009744097    12.000000000000
         C            2.503395204618    -0.360305834115    -0.000010255903    12.000000000000
         C            1.553169204618     1.972943165885     0.000001744097    12.000000000000
         C           -1.056266795382     0.324977165885     0.000001744097    12.000000000000
         C            1.951111204618    -1.627340834115    -0.000000255903    12.000000000000
         C           -3.428261795382    -0.313192834115    -0.000006255903    12.000000000000
         H            3.526789204618    -0.011797834115    -0.000012255903     1.007825032230
         H            1.066308204618     2.381668165885    -0.883911255903     1.007825032230
         H            1.066353204618     2.381654165885     0.883947744097     1.007825032230
         H            2.614349204618     2.225072165885    -0.000022255903     1.007825032230
         H            2.468701204618    -2.577668834115    -0.000005255903     1.007825032230
         H           -1.691165795382    -1.593532834115    -0.000001255903     1.007825032230
         H           -3.920543795382    -0.714223834115     0.890801744097     1.007825032230
         H           -3.920537795382    -0.714226834115    -0.890816255903     1.007825032230
         H           -3.514633795382     0.773348165885    -0.000009255903     1.007825032230

  Basis Set: AUG-CC-PVTZ
    Blend: AUG-CC-PVTZ
  Basis Set: (AUG-CC-PVTZ AUX)
    Blend: AUG-CC-PVTZ-JKFIT
	 Reference Energy          =    -470.8329952129377034 [Eh]
	 Singles Energy            =      -0.0000000000000000 [Eh]
	 Same-Spin Energy          =      -0.4993575258950042 [Eh]
	 Opposite-Spin Energy      =      -1.5365110274897809 [Eh]
	 Correlation Energy        =      -2.0358685533847849 [Eh]
	 Total Energy              =    -472.8688637663224767 [Eh]

	 ================> DF-SCS-MP2 Energies <==================
	-----------------------------------------------------------
	 SCS Same-Spin Scale       =       0.3333333333333333 [-]
	 SCS Opposite-Spin Scale   =       1.2000000000000000 [-]
	 SCS Same-Spin Energy      =      -0.1664525086316681 [Eh]
	 SCS Opposite-Spin Energy  =      -1.8438132329877370 [Eh]
	 SCS Correlation Energy    =      -2.0102657416194050 [Eh]
	 SCS Total Energy          =    -472.8432609545570813 [Eh]
	-----------------------------------------------------------

  Dipole Moment: [D]
     X:     1.4268      Y:     0.1359      Z:    -0.0000     Total:     1.4333

*** Psi4 exiting successfully. Buy a developer a beer!
