                               Psi4 1.3.2 release

  ==> Input File <==

--------------------------------------------------------------------------
#psi4
#
memory 32 gb

molecule  {
0 1
  O       -1.2482290     1.5306510     0.0000030
  N        1.4640540     0.4968240    -0.0000070
  N        0.6053200    -1.5732460     0.0000100
  N       -1.9984820    -0.6503890    -0.0000010
  C        0.3259400    -0.2627350     0.0000100
  C        2.5213300    -0.3786110    -0.0000100
  C        1.5711040     1.9546380     0.0000020
  C       -1.0383320     0.3066720     0.0000020
  C        1.9690460    -1.6456460     0.0000000
  C       -3.4103270    -0.3314980    -0.0000060
  H        3.6393856     0.0021332    -0.0000122
  H        1.0842430     2.3633630    -0.8839110
  H        1.0842880     2.3633490     0.8839480
  H        2.6322840     2.2067670    -0.0000220
  H        2.4866360    -2.5959740    -0.0000050
  H       -1.6732310    -1.6118380    -0.0000010
  H       -3.9026090    -0.7325290     0.8908020
  H       -3.9026030    -0.7325320    -0.8908160
  H       -3.4966990     0.7550430    -0.0000090
units angstrom
no_reorient  #important for SAPT in psi4, default
symmetry c1  #important for SAPT in psi4, default
}

set PROPERTIES_ORIGIN ["COM"]
properties('MP2/aug-cc-pvtz', properties = ['dipole'])
--------------------------------------------------------------------------

    Molecular point group: c1
  Charge       = 0
  Multiplicity = 1
  Basis Set: AUG-CC-PVTZ
    Blend: AUG-CC-PVTZ
  Basis Set: (AUG-CC-PVTZ AUX)
    Blend: AUG-CC-PVTZ-JKFIT

    Orbital Energies [Eh]
    ---------------------

    Doubly Occupied:

       1A    -20.522424     2A    -15.638642     3A    -15.584970
       4A    -15.566107     5A    -11.362395     6A    -11.305341
       7A    -11.283051     8A    -11.274749     9A    -11.258427
      10A    -11.255953    11A     -1.381915    12A     -1.346850
      13A     -1.234769    14A     -1.190989    15A     -1.034122
      16A     -0.979267    17A     -0.949523    18A     -0.840546
      19A     -0.808145    20A     -0.771953    21A     -0.733724
      22A     -0.656567    23A     -0.652263    24A     -0.642513
      25A     -0.619265    26A     -0.602663    27A     -0.591095
      28A     -0.580476    29A     -0.563048    30A     -0.560333
      31A     -0.545710    32A     -0.530187    33A     -0.457841
      34A     -0.433964    35A     -0.399533    36A     -0.389101
      37A     -0.323402

  @DF-RHF Final Energy:  -470.82750930187467

   => Energetics <=

    Nuclear Repulsion Energy =            526.6281261761619135
    One-Electron Energy =               -1685.1676325745031590
    Two-Electron Energy =                 687.7119970964665754
    Total Energy =                       -470.8275093018746702
  Basis Set: (AUG-CC-PVTZ AUX)
    Blend: AUG-CC-PVTZ-RI
    Molecular point group: c1

    Geometry (in Angstrom), charge = 0, multiplicity = 1:

       Center              X                  Y                   Z               Mass
    ------------   -----------------  -----------------  -----------------  -----------------
         O           -1.264250536614     1.544676704842     0.000002816028    15.994914619570
         N            1.448032463386     0.510849704842    -0.000007183972    14.003074004430
         N            0.589298463386    -1.559220295158     0.000009816028    14.003074004430
         N           -2.014503536614    -0.636363295158    -0.000001183972    14.003074004430
         C            0.309918463386    -0.248709295158     0.000009816028    12.000000000000
         C            2.505308463386    -0.364585295158    -0.000010183972    12.000000000000
         C            1.555082463386     1.968663704842     0.000001816028    12.000000000000
         C           -1.054353536614     0.320697704842     0.000001816028    12.000000000000
         C            1.953024463386    -1.631620295158    -0.000000183972    12.000000000000
         C           -3.426348536614    -0.317472295158    -0.000006183972    12.000000000000
         H            3.623364063386     0.016158904842    -0.000012383972     1.007825032230
         H            1.068221463386     2.377388704842    -0.883911183972     1.007825032230
         H            1.068266463386     2.377374704842     0.883947816028     1.007825032230
         H            2.616262463386     2.220792704842    -0.000022183972     1.007825032230
         H            2.470614463386    -2.581948295158    -0.000005183972     1.007825032230
         H           -1.689252536614    -1.597812295158    -0.000001183972     1.007825032230
         H           -3.918630536614    -0.718503295158     0.890801816028     1.007825032230
         H           -3.918624536614    -0.718506295158    -0.890816183972     1.007825032230
         H           -3.512720536614     0.769068704842    -0.000009183972     1.007825032230

  Basis Set: AUG-CC-PVTZ
    Blend: AUG-CC-PVTZ
  Basis Set: (AUG-CC-PVTZ AUX)
    Blend: AUG-CC-PVTZ-JKFIT
	 Reference Energy          =    -470.8275093018746702 [Eh]
	 Singles Energy            =      -0.0000000000000000 [Eh]
	 Same-Spin Energy          =      -0.4996210723531432 [Eh]
	 Opposite-Spin Energy      =      -1.5380618809746243 [Eh]
	 Correlation Energy        =      -2.0376829533277676 [Eh]
	 Total Energy              =    -472.8651922552024303 [Eh]

	 ================> DF-SCS-MP2 Energies <==================
	-----------------------------------------------------------
	 SCS Same-Spin Scale       =       0.3333333333333333 [-]
	 SCS Opposite-Spin Scale   =       1.2000000000000000 [-]
	 SCS Same-Spin Energy      =      -0.1665403574510477 [Eh]
	 SCS Opposite-Spin Energy  =      -1.8456742571695490 [Eh]
	 SCS Correlation Energy    =      -2.0122146146205968 [Eh]
	 SCS Total Energy          =    -472.8397239164952452 [Eh]
	-----------------------------------------------------------

  Dipole Moment: [D]
     X:     1.3917      Y:     0.0133      Z:    -0.0000     Total:     1.3918

*** Psi4 exiting successfully. Buy a developer a beer!
