                               Psi4 1.4a3.dev225

  ==> Input File <==

--------------------------------------------------------------------------
#psi4
#
memory 32 gb

molecule  {
0 1
  O       -1.2482290     1.5306510     0.0000030
  N        1.4640540     0.4968240    -0.0000070
  N        0.6053200    -1.5732460     0.0000100
  N       -1.9984820    -0.6503890    -0.0000010
  C        0.2843513    -0.2904907     0.0000106
  C        2.5213300    -0.3786110    -0.0000100
  C        1.5711040     1.9546380     0.0000020
  C       -1.0383320     0.3066720     0.0000020
  C        1.9690460    -1.6456460     0.0000000
  C       -3.4103270    -0.3314980    -0.0000060
  H        3.5447240    -0.0301030    -0.0000120
  H        1.0842430     2.3633630    -0.8839110
  H        1.0842880     2.3633490     0.8839480
  H        2.6322840     2.2067670    -0.0000220
  H        2.4866360    -2.5959740    -0.0000050
  H       -1.6732310    -1.6118380    -0.0000010
  H       -3.9026090    -0.7325290     0.8908020
  H       -3.9026030    -0.7325320    -0.8908160
  H       -3.4966990     0.7550430    -0.0000090
units angstrom
no_reorient  #important for SAPT in psi4, default
symmetry c1  #important for SAPT in psi4, default
}

set PROPERTIES_ORIGIN ["COM"]
properties('MP2/aug-cc-pvtz', properties = ['dipole'])
--------------------------------------------------------------------------

    Molecular point group: c1
  Charge       = 0
  Multiplicity = 1
  Basis Set: AUG-CC-PVTZ
    Blend: AUG-CC-PVTZ
  Basis Set: (AUG-CC-PVTZ AUX)
    Blend: AUG-CC-PVTZ-JKFIT

    Orbital Energies [Eh]
    ---------------------

    Doubly Occupied:

       1A    -20.522810     2A    -15.634575     3A    -15.584267
       4A    -15.569287     5A    -11.360929     6A    -11.305594
       7A    -11.276942     8A    -11.272011     9A    -11.257947
      10A    -11.255001    11A     -1.380973    12A     -1.339073
      13A     -1.235758    14A     -1.190929    15A     -1.039217
      16A     -0.978024    17A     -0.946590    18A     -0.846226
      19A     -0.811311    20A     -0.773393    21A     -0.732295
      22A     -0.661451    23A     -0.651805    24A     -0.646804
      25A     -0.618595    26A     -0.605744    27A     -0.596346
      28A     -0.580845    29A     -0.562555    30A     -0.559998
      31A     -0.545644    32A     -0.529249    33A     -0.458615
      34A     -0.434250    35A     -0.400262    36A     -0.388901
      37A     -0.322438

  @DF-RHF Final Energy:  -470.83056010428254

   => Energetics <=

    Nuclear Repulsion Energy =            526.9408050147266067
    One-Electron Energy =               -1685.7894276616270872
    Two-Electron Energy =                 688.0180625426178267
    Total Energy =                       -470.8305601042825401
  Basis Set: (AUG-CC-PVTZ AUX)
    Blend: AUG-CC-PVTZ-RI
    Molecular point group: c1

    Geometry (in Angstrom), charge = 0, multiplicity = 1:

       Center              X                  Y                   Z               Mass
    ------------   -----------------  -----------------  -----------------  -----------------
         O           -1.259976090433     1.547305200264     0.000002762808    15.994914619570
         N            1.452306909567     0.513478200264    -0.000007237192    14.003074004430
         N            0.593572909567    -1.556591799736     0.000009762808    14.003074004430
         N           -2.010229090433    -0.633734799736    -0.000001237192    14.003074004430
         C            0.272604209567    -0.273836499736     0.000010362808    12.000000000000
         C            2.509582909567    -0.361956799736    -0.000010237192    12.000000000000
         C            1.559356909567     1.971292200264     0.000001762808    12.000000000000
         C           -1.050079090433     0.323326200264     0.000001762808    12.000000000000
         C            1.957298909567    -1.628991799736    -0.000000237192    12.000000000000
         C           -3.422074090433    -0.314843799736    -0.000006237192    12.000000000000
         H            3.532976909567    -0.013448799736    -0.000012237192     1.007825032230
         H            1.072495909567     2.380017200264    -0.883911237192     1.007825032230
         H            1.072540909567     2.380003200264     0.883947762808     1.007825032230
         H            2.620536909567     2.223421200264    -0.000022237192     1.007825032230
         H            2.474888909567    -2.579319799736    -0.000005237192     1.007825032230
         H           -1.684978090433    -1.595183799736    -0.000001237192     1.007825032230
         H           -3.914356090433    -0.715874799736     0.890801762808     1.007825032230
         H           -3.914350090433    -0.715877799736    -0.890816237192     1.007825032230
         H           -3.508446090433     0.771697200264    -0.000009237192     1.007825032230

  Basis Set: AUG-CC-PVTZ
    Blend: AUG-CC-PVTZ
  Basis Set: (AUG-CC-PVTZ AUX)
    Blend: AUG-CC-PVTZ-JKFIT
	 Reference Energy          =    -470.8305601042825401 [Eh]
	 Singles Energy            =      -0.0000000000000000 [Eh]
	 Same-Spin Energy          =      -0.4998848449162260 [Eh]
	 Opposite-Spin Energy      =      -1.5380608515599157 [Eh]
	 Correlation Energy        =      -2.0379456964761418 [Eh]
	 Total Energy              =    -472.8685058007586690 [Eh]

	 ================> DF-SCS-MP2 Energies <==================
	-----------------------------------------------------------
	 SCS Same-Spin Scale       =       0.3333333333333333 [-]
	 SCS Opposite-Spin Scale   =       1.2000000000000000 [-]
	 SCS Same-Spin Energy      =      -0.1666282816387420 [Eh]
	 SCS Opposite-Spin Energy  =      -1.8456730218718986 [Eh]
	 SCS Correlation Energy    =      -2.0123013035106405 [Eh]
	 SCS Total Energy          =    -472.8428614077931798 [Eh]
	-----------------------------------------------------------

  Dipole Moment: [D]
     X:     1.3976      Y:    -0.0839      Z:    -0.0000     Total:     1.4001

*** Psi4 exiting successfully. Buy a developer a beer!
