                               Psi4 1.4a3.dev225

  ==> Input File <==

--------------------------------------------------------------------------
#psi4
#
memory 32 gb

molecule  {
0 1
  O       -1.2482290     1.5306510     0.0000030
  N        1.4640540     0.4968240    -0.0000070
  N        0.6053200    -1.5732460     0.0000100
  N       -1.9984820    -0.6503890    -0.0000010
  C        0.3259400    -0.2627350     0.0000100
  C        2.5213300    -0.3786110    -0.0000100
  C        1.5711040     1.9546380     0.0000020
  C       -1.0383320     0.3066720     0.0000020
  C        1.9690460    -1.6456460     0.0000000
  C       -3.4103270    -0.3314980    -0.0000060
  H        3.5257917    -0.0365502    -0.0000120
  H        1.0842430     2.3633630    -0.8839110
  H        1.0842880     2.3633490     0.8839480
  H        2.6322840     2.2067670    -0.0000220
  H        2.4866360    -2.5959740    -0.0000050
  H       -1.6732310    -1.6118380    -0.0000010
  H       -3.9026090    -0.7325290     0.8908020
  H       -3.9026030    -0.7325320    -0.8908160
  H       -3.4966990     0.7550430    -0.0000090
units angstrom
no_reorient  #important for SAPT in psi4, default
symmetry c1  #important for SAPT in psi4, default
}

set PROPERTIES_ORIGIN ["COM"]
properties('MP2/aug-cc-pvtz', properties = ['dipole'])
--------------------------------------------------------------------------

    Molecular point group: c1
  Charge       = 0
  Multiplicity = 1
  Basis Set: AUG-CC-PVTZ
    Blend: AUG-CC-PVTZ
  Basis Set: (AUG-CC-PVTZ AUX)
    Blend: AUG-CC-PVTZ-JKFIT

    Orbital Energies [Eh]
    ---------------------

    Doubly Occupied:

       1A    -20.522286     2A    -15.637699     3A    -15.584793
       4A    -15.565375     5A    -11.362149     6A    -11.304814
       7A    -11.274940     8A    -11.270341     9A    -11.258304
      10A    -11.255269    11A     -1.381661    12A     -1.346343
      13A     -1.234599    14A     -1.190675    15A     -1.036333
      16A     -0.979466    17A     -0.950750    18A     -0.841033
      19A     -0.816127    20A     -0.773156    21A     -0.734919
      22A     -0.661761    23A     -0.656243    24A     -0.646077
      25A     -0.619135    26A     -0.605952    27A     -0.596184
      28A     -0.583758    29A     -0.563576    30A     -0.560148
      31A     -0.545684    32A     -0.529947    33A     -0.458007
      34A     -0.433826    35A     -0.399139    36A     -0.388813
      37A     -0.323106

  @DF-RHF Final Energy:  -470.83539896290955

   => Energetics <=

    Nuclear Repulsion Energy =            527.2406937732420147
    One-Electron Energy =               -1686.3674119546055863
    Two-Electron Energy =                 688.2913192184540776
    Total Energy =                       -470.8353989629096077
  Basis Set: (AUG-CC-PVTZ AUX)
    Blend: AUG-CC-PVTZ-RI
    Molecular point group: c1

    Geometry (in Angstrom), charge = 0, multiplicity = 1:

       Center              X                  Y                   Z               Mass
    ------------   -----------------  -----------------  -----------------  -----------------
         O           -1.263427361086     1.544957030002     0.000002814578    15.994914619570
         N            1.448855638914     0.511130030002    -0.000007185422    14.003074004430
         N            0.590121638914    -1.558939969998     0.000009814578    14.003074004430
         N           -2.013680361086    -0.636082969998    -0.000001185422    14.003074004430
         C            0.310741638914    -0.248428969998     0.000009814578    12.000000000000
         C            2.506131638914    -0.364304969998    -0.000010185422    12.000000000000
         C            1.555905638914     1.968944030002     0.000001814578    12.000000000000
         C           -1.053530361086     0.320978030002     0.000001814578    12.000000000000
         C            1.953847638914    -1.631339969998    -0.000000185422    12.000000000000
         C           -3.425525361086    -0.317191969998    -0.000006185422    12.000000000000
         H            3.510593338914    -0.022244169998    -0.000012185422     1.007825032230
         H            1.069044638914     2.377669030002    -0.883911185422     1.007825032230
         H            1.069089638914     2.377655030002     0.883947814578     1.007825032230
         H            2.617085638914     2.221073030002    -0.000022185422     1.007825032230
         H            2.471437638914    -2.581667969998    -0.000005185422     1.007825032230
         H           -1.688429361086    -1.597531969998    -0.000001185422     1.007825032230
         H           -3.917807361086    -0.718222969998     0.890801814578     1.007825032230
         H           -3.917801361086    -0.718225969998    -0.890816185422     1.007825032230
         H           -3.511897361086     0.769349030002    -0.000009185422     1.007825032230

  Basis Set: AUG-CC-PVTZ
    Blend: AUG-CC-PVTZ
  Basis Set: (AUG-CC-PVTZ AUX)
    Blend: AUG-CC-PVTZ-JKFIT
	 Reference Energy          =    -470.8353989629095508 [Eh]
	 Singles Energy            =      -0.0000000000000000 [Eh]
	 Same-Spin Energy          =      -0.4992753980897610 [Eh]
	 Opposite-Spin Energy      =      -1.5369329077426108 [Eh]
	 Correlation Energy        =      -2.0362083058323717 [Eh]
	 Total Energy              =    -472.8716072687419114 [Eh]

	 ================> DF-SCS-MP2 Energies <==================
	-----------------------------------------------------------
	 SCS Same-Spin Scale       =       0.3333333333333333 [-]
	 SCS Opposite-Spin Scale   =       1.2000000000000000 [-]
	 SCS Same-Spin Energy      =      -0.1664251326965870 [Eh]
	 SCS Opposite-Spin Energy  =      -1.8443194892911330 [Eh]
	 SCS Correlation Energy    =      -2.0107446219877199 [Eh]
	 SCS Total Energy          =    -472.8461435848972769 [Eh]
	-----------------------------------------------------------

  Dipole Moment: [D]
     X:     1.3942      Y:     0.0143      Z:    -0.0000     Total:     1.3943

*** Psi4 exiting successfully. Buy a developer a beer!
