                               Psi4 1.3.2 release

  ==> Input File <==

--------------------------------------------------------------------------
#psi4
#
memory 32 gb

molecule  {
0 1
  O       -1.2482290     1.5306510     0.0000030
  N        1.4640540     0.4968240    -0.0000070
  N        0.6053200    -1.5732460     0.0000100
  N       -1.9984820    -0.6503890    -0.0000010
  C        0.3259400    -0.2627350     0.0000100
  C        2.3672832    -0.2510587    -0.0000096
  C        1.5711040     1.9546380     0.0000020
  C       -1.0383320     0.3066720     0.0000020
  C        1.9690460    -1.6456460     0.0000000
  C       -3.4103270    -0.3314980    -0.0000060
  H        3.5447240    -0.0301030    -0.0000120
  H        1.0842430     2.3633630    -0.8839110
  H        1.0842880     2.3633490     0.8839480
  H        2.6322840     2.2067670    -0.0000220
  H        2.4866360    -2.5959740    -0.0000050
  H       -1.6732310    -1.6118380    -0.0000010
  H       -3.9026090    -0.7325290     0.8908020
  H       -3.9026030    -0.7325320    -0.8908160
  H       -3.4966990     0.7550430    -0.0000090
units angstrom
no_reorient  #important for SAPT in psi4, default
symmetry c1  #important for SAPT in psi4, default
}

set PROPERTIES_ORIGIN ["COM"]
properties('MP2/aug-cc-pvtz', properties = ['dipole'])
--------------------------------------------------------------------------

    Molecular point group: c1
  Charge       = 0
  Multiplicity = 1
  Basis Set: AUG-CC-PVTZ
    Blend: AUG-CC-PVTZ
  Basis Set: (AUG-CC-PVTZ AUX)
    Blend: AUG-CC-PVTZ-JKFIT

    Orbital Energies [Eh]
    ---------------------

    Doubly Occupied:

       1A    -20.512743     2A    -15.648179     3A    -15.576314
       4A    -15.573783     5A    -11.353990     6A    -11.286249
       7A    -11.285159     8A    -11.280639     9A    -11.253313
      10A    -11.251103    11A     -1.418635    12A     -1.364379
      13A     -1.233262    14A     -1.207974    15A     -1.038166
      16A     -0.995235    17A     -0.943844    18A     -0.847025
      19A     -0.814096    20A     -0.767423    21A     -0.748063
      22A     -0.686024    23A     -0.671864    24A     -0.637655
      25A     -0.616115    26A     -0.612714    27A     -0.592364
      28A     -0.574220    29A     -0.569668    30A     -0.551712
      31A     -0.538622    32A     -0.531287    33A     -0.450977
      34A     -0.427240    35A     -0.422461    36A     -0.385998
      37A     -0.300415

  @DF-RHF Final Energy:  -470.77731338587012

   => Energetics <=

    Nuclear Repulsion Energy =            531.3847644651970086
    One-Electron Energy =               -1694.3863383901352790
    Two-Electron Energy =                 692.2242605390682684
    Total Energy =                       -470.7773133858701158
  Basis Set: (AUG-CC-PVTZ AUX)
    Blend: AUG-CC-PVTZ-RI
    Molecular point group: c1

    Geometry (in Angstrom), charge = 0, multiplicity = 1:

       Center              X                  Y                   Z               Mass
    ------------   -----------------  -----------------  -----------------  -----------------
         O           -1.250272682553     1.533904503729     0.000002780064    15.994914619570
         N            1.462010317447     0.500077503729    -0.000007219936    14.003074004430
         N            0.603276317447    -1.569992496271     0.000009780064    14.003074004430
         N           -2.000525682553    -0.647135496271    -0.000001219936    14.003074004430
         C            0.323896317447    -0.259481496271     0.000009780064    12.000000000000
         C            2.365239517447    -0.247805196271    -0.000009819936    12.000000000000
         C            1.569060317447     1.957891503729     0.000001780064    12.000000000000
         C           -1.040375682553     0.309925503729     0.000001780064    12.000000000000
         C            1.967002317447    -1.642392496271    -0.000000219936    12.000000000000
         C           -3.412370682553    -0.328244496271    -0.000006219936    12.000000000000
         H            3.542680317447    -0.026849496271    -0.000012219936     1.007825032230
         H            1.082199317447     2.366616503729    -0.883911219936     1.007825032230
         H            1.082244317447     2.366602503729     0.883947780064     1.007825032230
         H            2.630240317447     2.210020503729    -0.000022219936     1.007825032230
         H            2.484592317447    -2.592720496271    -0.000005219936     1.007825032230
         H           -1.675274682553    -1.608584496271    -0.000001219936     1.007825032230
         H           -3.904652682553    -0.729275496271     0.890801780064     1.007825032230
         H           -3.904646682553    -0.729278496271    -0.890816219936     1.007825032230
         H           -3.498742682553     0.758296503729    -0.000009219936     1.007825032230

  Basis Set: AUG-CC-PVTZ
    Blend: AUG-CC-PVTZ
  Basis Set: (AUG-CC-PVTZ AUX)
    Blend: AUG-CC-PVTZ-JKFIT
	 Reference Energy          =    -470.7773133858701158 [Eh]
	 Singles Energy            =      -0.0000000000000000 [Eh]
	 Same-Spin Energy          =      -0.5002114530359398 [Eh]
	 Opposite-Spin Energy      =      -1.5356778949562437 [Eh]
	 Correlation Energy        =      -2.0358893479921836 [Eh]
	 Total Energy              =    -472.8132027338622834 [Eh]

	 ================> DF-SCS-MP2 Energies <==================
	-----------------------------------------------------------
	 SCS Same-Spin Scale       =       0.3333333333333333 [-]
	 SCS Opposite-Spin Scale   =       1.2000000000000000 [-]
	 SCS Same-Spin Energy      =      -0.1667371510119799 [Eh]
	 SCS Opposite-Spin Energy  =      -1.8428134739474924 [Eh]
	 SCS Correlation Energy    =      -2.0095506249594726 [Eh]
	 SCS Total Energy          =    -472.7868640108295608 [Eh]
	-----------------------------------------------------------

  Dipole Moment: [D]
     X:     1.6745      Y:     0.2816      Z:    -0.0000     Total:     1.6980

*** Psi4 exiting successfully. Buy a developer a beer!
