                               Psi4 1.3.2 release

  ==> Input File <==

--------------------------------------------------------------------------
#psi4
#
memory 32 gb

molecule  {
0 1
  O       -1.2482290     1.5306510     0.0000030
  N        1.4640540     0.4968240    -0.0000070
  N        0.6053200    -1.5732460     0.0000100
  N       -1.9984820    -0.6503890    -0.0000010
  C        0.3259400    -0.2627350     0.0000100
  C        2.5213300    -0.3786110    -0.0000100
  C        1.5711040     1.9546380     0.0000020
  C       -1.0383320     0.3066720     0.0000020
  C        1.9290883    -1.7373159     0.0000007
  C       -3.4103270    -0.3314980    -0.0000060
  H        3.5447240    -0.0301030    -0.0000120
  H        1.0842430     2.3633630    -0.8839110
  H        1.0842880     2.3633490     0.8839480
  H        2.6322840     2.2067670    -0.0000220
  H        2.4866360    -2.5959740    -0.0000050
  H       -1.6732310    -1.6118380    -0.0000010
  H       -3.9026090    -0.7325290     0.8908020
  H       -3.9026030    -0.7325320    -0.8908160
  H       -3.4966990     0.7550430    -0.0000090
units angstrom
no_reorient  #important for SAPT in psi4, default
symmetry c1  #important for SAPT in psi4, default
}

set PROPERTIES_ORIGIN ["COM"]
properties('MP2/aug-cc-pvtz', properties = ['dipole'])
--------------------------------------------------------------------------

    Molecular point group: c1
  Charge       = 0
  Multiplicity = 1
  Basis Set: AUG-CC-PVTZ
    Blend: AUG-CC-PVTZ
  Basis Set: (AUG-CC-PVTZ AUX)
    Blend: AUG-CC-PVTZ-JKFIT

    Orbital Energies [Eh]
    ---------------------

    Doubly Occupied:

       1A    -20.519079     2A    -15.646354     3A    -15.582008
       4A    -15.567259     5A    -11.359847     6A    -11.299896
       7A    -11.283062     8A    -11.277206     9A    -11.262827
      10A    -11.256647    11A     -1.379262    12A     -1.344408
      13A     -1.232876    14A     -1.198225    15A     -1.025975
      16A     -0.982277    17A     -0.947804    18A     -0.838445
      19A     -0.821954    20A     -0.770289    21A     -0.733584
      22A     -0.660889    23A     -0.655772    24A     -0.649489
      25A     -0.624143    26A     -0.617614    27A     -0.589078
      28A     -0.580850    29A     -0.570748    30A     -0.560200
      31A     -0.543662    32A     -0.527315    33A     -0.449025
      34A     -0.429992    35A     -0.405625    36A     -0.389170
      37A     -0.307649

  @DF-RHF Final Energy:  -470.82087745226863

   => Energetics <=

    Nuclear Repulsion Energy =            526.0199080053016587
    One-Electron Energy =               -1683.9005607838853393
    Two-Electron Energy =                 687.0597753263150480
    Total Energy =                       -470.8208774522686326
  Basis Set: (AUG-CC-PVTZ AUX)
    Blend: AUG-CC-PVTZ-RI
    Molecular point group: c1

    Geometry (in Angstrom), charge = 0, multiplicity = 1:

       Center              X                  Y                   Z               Mass
    ------------   -----------------  -----------------  -----------------  -----------------
         O           -1.260116820698     1.552820014687     0.000002754179    15.994914619570
         N            1.452166179302     0.518993014687    -0.000007245821    14.003074004430
         N            0.593432179302    -1.551076985313     0.000009754179    14.003074004430
         N           -2.010369820698    -0.628219985313    -0.000001245821    14.003074004430
         C            0.314052179302    -0.240565985313     0.000009754179    12.000000000000
         C            2.509442179302    -0.356441985313    -0.000010245821    12.000000000000
         C            1.559216179302     1.976807014687     0.000001754179    12.000000000000
         C           -1.050219820698     0.328841014687     0.000001754179    12.000000000000
         C            1.917200479302    -1.715146885313     0.000000454179    12.000000000000
         C           -3.422214820698    -0.309328985313    -0.000006245821    12.000000000000
         H            3.532836179302    -0.007933985313    -0.000012245821     1.007825032230
         H            1.072355179302     2.385532014687    -0.883911245821     1.007825032230
         H            1.072400179302     2.385518014687     0.883947754179     1.007825032230
         H            2.620396179302     2.228936014687    -0.000022245821     1.007825032230
         H            2.474748179302    -2.573804985313    -0.000005245821     1.007825032230
         H           -1.685118820698    -1.589668985313    -0.000001245821     1.007825032230
         H           -3.914496820698    -0.710359985313     0.890801754179     1.007825032230
         H           -3.914490820698    -0.710362985313    -0.890816245821     1.007825032230
         H           -3.508586820698     0.777212014687    -0.000009245821     1.007825032230

  Basis Set: AUG-CC-PVTZ
    Blend: AUG-CC-PVTZ
  Basis Set: (AUG-CC-PVTZ AUX)
    Blend: AUG-CC-PVTZ-JKFIT
	 Reference Energy          =    -470.8208774522686326 [Eh]
	 Singles Energy            =      -0.0000000000000000 [Eh]
	 Same-Spin Energy          =      -0.5007043567164743 [Eh]
	 Opposite-Spin Energy      =      -1.5389729142155382 [Eh]
	 Correlation Energy        =      -2.0396772709320126 [Eh]
	 Total Energy              =    -472.8605547232006643 [Eh]

	 ================> DF-SCS-MP2 Energies <==================
	-----------------------------------------------------------
	 SCS Same-Spin Scale       =       0.3333333333333333 [-]
	 SCS Opposite-Spin Scale   =       1.2000000000000000 [-]
	 SCS Same-Spin Energy      =      -0.1669014522388247 [Eh]
	 SCS Opposite-Spin Energy  =      -1.8467674970586456 [Eh]
	 SCS Correlation Energy    =      -2.0136689492974704 [Eh]
	 SCS Total Energy          =    -472.8345464015661150 [Eh]
	-----------------------------------------------------------

  Dipole Moment: [D]
     X:     1.4500      Y:    -0.0778      Z:    -0.0000     Total:     1.4521

*** Psi4 exiting successfully. Buy a developer a beer!
