                               Psi4 1.3.2 release

  ==> Input File <==

--------------------------------------------------------------------------
#psi4
#
memory 32 gb

molecule  {
0 1
  O       -1.2482290     1.5306510     0.0000030
  N        1.5142658     0.4155829    -0.0000055
  N        0.6053200    -1.5732460     0.0000100
  N       -1.9984820    -0.6503890    -0.0000010
  C        0.3259400    -0.2627350     0.0000100
  C        2.5213300    -0.3786110    -0.0000100
  C        1.5711040     1.9546380     0.0000020
  C       -1.0383320     0.3066720     0.0000020
  C        1.9690460    -1.6456460     0.0000000
  C       -3.4103270    -0.3314980    -0.0000060
  H        3.5447240    -0.0301030    -0.0000120
  H        1.0842430     2.3633630    -0.8839110
  H        1.0842880     2.3633490     0.8839480
  H        2.6322840     2.2067670    -0.0000220
  H        2.4866360    -2.5959740    -0.0000050
  H       -1.6732310    -1.6118380    -0.0000010
  H       -3.9026090    -0.7325290     0.8908020
  H       -3.9026030    -0.7325320    -0.8908160
  H       -3.4966990     0.7550430    -0.0000090
units angstrom
no_reorient  #important for SAPT in psi4, default
symmetry c1  #important for SAPT in psi4, default
}

set PROPERTIES_ORIGIN ["COM"]
properties('MP2/aug-cc-pvtz', properties = ['dipole'])
--------------------------------------------------------------------------

    Molecular point group: c1
  Charge       = 0
  Multiplicity = 1
  Basis Set: AUG-CC-PVTZ
    Blend: AUG-CC-PVTZ
  Basis Set: (AUG-CC-PVTZ AUX)
    Blend: AUG-CC-PVTZ-JKFIT

    Orbital Energies [Eh]
    ---------------------

    Doubly Occupied:

       1A    -20.519904     2A    -15.638820     3A    -15.583340
       4A    -15.564319     5A    -11.362380     6A    -11.295308
       7A    -11.283694     8A    -11.267147     9A    -11.257520
      10A    -11.247514    11A     -1.384068    12A     -1.359379
      13A     -1.233240    14A     -1.185144    15A     -1.041287
      16A     -0.975664    17A     -0.948900    18A     -0.840948
      19A     -0.819030    20A     -0.771191    21A     -0.736092
      22A     -0.671856    23A     -0.657422    24A     -0.643688
      25A     -0.618321    26A     -0.601858    27A     -0.591704
      28A     -0.572707    29A     -0.565521    30A     -0.564841
      31A     -0.544720    32A     -0.533103    33A     -0.454732
      34A     -0.433050    35A     -0.405087    36A     -0.388805
      37A     -0.317002

  @DF-RHF Final Energy:  -470.82363869462307

   => Energetics <=

    Nuclear Repulsion Energy =            527.6277044744399518
    One-Electron Energy =               -1687.1440709666812836
    Two-Electron Energy =                 688.6927277976183177
    Total Energy =                       -470.8236386946230141
  Basis Set: (AUG-CC-PVTZ AUX)
    Blend: AUG-CC-PVTZ-RI
    Molecular point group: c1

    Geometry (in Angstrom), charge = 0, multiplicity = 1:

       Center              X                  Y                   Z               Mass
    ------------   -----------------  -----------------  -----------------  -----------------
         O           -1.268620258961     1.553090275006     0.000002663547    15.994914619570
         N            1.493874541039     0.438022175006    -0.000005836453    14.003074004430
         N            0.584928741039    -1.550806724994     0.000009663547    14.003074004430
         N           -2.018873258961    -0.627949724994    -0.000001336453    14.003074004430
         C            0.305548741039    -0.240295724994     0.000009663547    12.000000000000
         C            2.500938741039    -0.356171724994    -0.000010336453    12.000000000000
         C            1.550712741039     1.977077275006     0.000001663547    12.000000000000
         C           -1.058723258961     0.329111275006     0.000001663547    12.000000000000
         C            1.948654741039    -1.623206724994    -0.000000336453    12.000000000000
         C           -3.430718258961    -0.309058724994    -0.000006336453    12.000000000000
         H            3.524332741039    -0.007663724994    -0.000012336453     1.007825032230
         H            1.063851741039     2.385802275006    -0.883911336453     1.007825032230
         H            1.063896741039     2.385788275006     0.883947663547     1.007825032230
         H            2.611892741039     2.229206275006    -0.000022336453     1.007825032230
         H            2.466244741039    -2.573534724994    -0.000005336453     1.007825032230
         H           -1.693622258961    -1.589398724994    -0.000001336453     1.007825032230
         H           -3.923000258961    -0.710089724994     0.890801663547     1.007825032230
         H           -3.922994258961    -0.710092724994    -0.890816336453     1.007825032230
         H           -3.517090258961     0.777482275006    -0.000009336453     1.007825032230

  Basis Set: AUG-CC-PVTZ
    Blend: AUG-CC-PVTZ
  Basis Set: (AUG-CC-PVTZ AUX)
    Blend: AUG-CC-PVTZ-JKFIT
	 Reference Energy          =    -470.8236386946230709 [Eh]
	 Singles Energy            =      -0.0000000000000000 [Eh]
	 Same-Spin Energy          =      -0.4995316801884804 [Eh]
	 Opposite-Spin Energy      =      -1.5362669764962145 [Eh]
	 Correlation Energy        =      -2.0357986566846948 [Eh]
	 Total Energy              =    -472.8594373513077471 [Eh]

	 ================> DF-SCS-MP2 Energies <==================
	-----------------------------------------------------------
	 SCS Same-Spin Scale       =       0.3333333333333333 [-]
	 SCS Opposite-Spin Scale   =       1.2000000000000000 [-]
	 SCS Same-Spin Energy      =      -0.1665105600628268 [Eh]
	 SCS Opposite-Spin Energy  =      -1.8435203717954574 [Eh]
	 SCS Correlation Energy    =      -2.0100309318582843 [Eh]
	 SCS Total Energy          =    -472.8336696264813668 [Eh]
	-----------------------------------------------------------

  Dipole Moment: [D]
     X:     1.4703      Y:     0.2584      Z:    -0.0000     Total:     1.4928

*** Psi4 exiting successfully. Buy a developer a beer!
