                               Psi4 1.4a3.dev225

  ==> Input File <==

--------------------------------------------------------------------------
#psi4
#
memory 32 gb

molecule  {
0 1
  O       -1.2482290     1.5306510     0.0000030
  N        1.4640540     0.4968240    -0.0000070
  N        0.6053200    -1.5732460     0.0000100
  N       -1.9984820    -0.6503890    -0.0000010
  C        0.3259400    -0.2627350     0.0000100
  C        2.5213300    -0.3786110    -0.0000100
  C        1.5711040     1.9546380     0.0000020
  C       -1.0383320     0.3066720     0.0000020
  C        1.9690460    -1.6456460     0.0000000
  C       -3.4103270    -0.3314980    -0.0000060
  H        3.5447240    -0.0301030    -0.0000120
  H        1.0842430     2.3633630    -0.8839110
  H        1.0842880     2.3633490     0.8839480
  H        2.6322840     2.2067670    -0.0000220
  H        2.4962021    -2.6135379    -0.0000051
  H       -1.6732310    -1.6118380    -0.0000010
  H       -3.9026090    -0.7325290     0.8908020
  H       -3.9026030    -0.7325320    -0.8908160
  H       -3.4966990     0.7550430    -0.0000090
units angstrom
no_reorient  #important for SAPT in psi4, default
symmetry c1  #important for SAPT in psi4, default
}

set PROPERTIES_ORIGIN ["COM"]
properties('MP2/aug-cc-pvtz', properties = ['dipole'])
--------------------------------------------------------------------------

    Molecular point group: c1
  Charge       = 0
  Multiplicity = 1
  Basis Set: AUG-CC-PVTZ
    Blend: AUG-CC-PVTZ
  Basis Set: (AUG-CC-PVTZ AUX)
    Blend: AUG-CC-PVTZ-JKFIT

    Orbital Energies [Eh]
    ---------------------

    Doubly Occupied:

       1A    -20.522358     2A    -15.637936     3A    -15.584865
       4A    -15.565661     5A    -11.362252     6A    -11.305019
       7A    -11.274968     8A    -11.272691     9A    -11.258352
      10A    -11.257602    11A     -1.381764    12A     -1.346522
      13A     -1.234672    14A     -1.190759    15A     -1.035654
      16A     -0.979443    17A     -0.950310    18A     -0.840218
      19A     -0.813389    20A     -0.772994    21A     -0.734090
      22A     -0.659447    23A     -0.656372    24A     -0.645553
      25A     -0.619193    26A     -0.603422    27A     -0.595394
      28A     -0.583228    29A     -0.562476    30A     -0.560251
      31A     -0.545709    32A     -0.530043    33A     -0.457857
      34A     -0.433912    35A     -0.399279    36A     -0.388919
      37A     -0.323204

  @DF-RHF Final Energy:  -470.83459679039811

   => Energetics <=

    Nuclear Repulsion Energy =            527.0271263639957624
    One-Electron Energy =               -1685.9518829670898867
    Two-Electron Energy =                 688.0901598126959016
    Total Energy =                       -470.8345967903981091
  Basis Set: (AUG-CC-PVTZ AUX)
    Blend: AUG-CC-PVTZ-RI
    Molecular point group: c1

    Geometry (in Angstrom), charge = 0, multiplicity = 1:

       Center              X                  Y                   Z               Mass
    ------------   -----------------  -----------------  -----------------  -----------------
         O           -1.263633879090     1.545037588865     0.000002815303    15.994914619570
         N            1.448649120910     0.511210588865    -0.000007184697    14.003074004430
         N            0.589915120910    -1.558859411135     0.000009815303    14.003074004430
         N           -2.013886879090    -0.636002411135    -0.000001184697    14.003074004430
         C            0.310535120910    -0.248348411135     0.000009815303    12.000000000000
         C            2.505925120910    -0.364224411135    -0.000010184697    12.000000000000
         C            1.555699120910     1.969024588865     0.000001815303    12.000000000000
         C           -1.053736879090     0.321058588865     0.000001815303    12.000000000000
         C            1.953641120910    -1.631259411135    -0.000000184697    12.000000000000
         C           -3.425731879090    -0.317111411135    -0.000006184697    12.000000000000
         H            3.529319120910    -0.015716411135    -0.000012184697     1.007825032230
         H            1.068838120910     2.377749588865    -0.883911184697     1.007825032230
         H            1.068883120910     2.377735588865     0.883947815303     1.007825032230
         H            2.616879120910     2.221153588865    -0.000022184697     1.007825032230
         H            2.480797220910    -2.599151311135    -0.000005284697     1.007825032230
         H           -1.688635879090    -1.597451411135    -0.000001184697     1.007825032230
         H           -3.918013879090    -0.718142411135     0.890801815303     1.007825032230
         H           -3.918007879090    -0.718145411135    -0.890816184697     1.007825032230
         H           -3.512103879090     0.769429588865    -0.000009184697     1.007825032230

  Basis Set: AUG-CC-PVTZ
    Blend: AUG-CC-PVTZ
  Basis Set: (AUG-CC-PVTZ AUX)
    Blend: AUG-CC-PVTZ-JKFIT
	 Reference Energy          =    -470.8345967903981091 [Eh]
	 Singles Energy            =      -0.0000000000000000 [Eh]
	 Same-Spin Energy          =      -0.4993674004728119 [Eh]
	 Opposite-Spin Energy      =      -1.5372295653119856 [Eh]
	 Correlation Energy        =      -2.0365969657847973 [Eh]
	 Total Energy              =    -472.8711937561828904 [Eh]

	 ================> DF-SCS-MP2 Energies <==================
	-----------------------------------------------------------
	 SCS Same-Spin Scale       =       0.3333333333333333 [-]
	 SCS Opposite-Spin Scale   =       1.2000000000000000 [-]
	 SCS Same-Spin Energy      =      -0.1664558001576039 [Eh]
	 SCS Opposite-Spin Energy  =      -1.8446754783743826 [Eh]
	 SCS Correlation Energy    =      -2.0111312785319866 [Eh]
	 SCS Total Energy          =    -472.8457280689301001 [Eh]
	-----------------------------------------------------------

  Dipole Moment: [D]
     X:     1.3902      Y:     0.0159      Z:    -0.0000     Total:     1.3903

*** Psi4 exiting successfully. Buy a developer a beer!
