                               Psi4 1.3.2 release

  ==> Input File <==

--------------------------------------------------------------------------
#psi4
#
memory 32 gb

molecule  {
0 1
  O       -1.2482290     1.5306510     0.0000030
  N        1.4640540     0.4968240    -0.0000070
  N        0.6053200    -1.5732460     0.0000100
  N       -2.0312980    -0.6162972    -0.0000012
  C        0.3259400    -0.2627350     0.0000100
  C        2.5213300    -0.3786110    -0.0000100
  C        1.5711040     1.9546380     0.0000020
  C       -1.0383320     0.3066720     0.0000020
  C        1.9690460    -1.6456460     0.0000000
  C       -3.4103270    -0.3314980    -0.0000060
  H        3.5447240    -0.0301030    -0.0000120
  H        1.0842430     2.3633630    -0.8839110
  H        1.0842880     2.3633490     0.8839480
  H        2.6322840     2.2067670    -0.0000220
  H        2.4866360    -2.5959740    -0.0000050
  H       -1.6732310    -1.6118380    -0.0000010
  H       -3.9026090    -0.7325290     0.8908020
  H       -3.9026030    -0.7325320    -0.8908160
  H       -3.4966990     0.7550430    -0.0000090
units angstrom
no_reorient  #important for SAPT in psi4, default
symmetry c1  #important for SAPT in psi4, default
}

set PROPERTIES_ORIGIN ["COM"]
properties('MP2/aug-cc-pvtz', properties = ['dipole'])
--------------------------------------------------------------------------

    Molecular point group: c1
  Charge       = 0
  Multiplicity = 1
  Basis Set: AUG-CC-PVTZ
    Blend: AUG-CC-PVTZ
  Basis Set: (AUG-CC-PVTZ AUX)
    Blend: AUG-CC-PVTZ-JKFIT

    Orbital Energies [Eh]
    ---------------------

    Doubly Occupied:

       1A    -20.520247     2A    -15.639354     3A    -15.586053
       4A    -15.567185     5A    -11.361929     6A    -11.307159
       7A    -11.275459     8A    -11.273942     9A    -11.256516
      10A    -11.254641    11A     -1.382126    12A     -1.347623
      13A     -1.235857    14A     -1.192521    15A     -1.038193
      16A     -0.980941    17A     -0.952683    18A     -0.838997
      19A     -0.815069    20A     -0.765147    21A     -0.735222
      22A     -0.662013    23A     -0.657431    24A     -0.648503
      25A     -0.622860    26A     -0.608309    27A     -0.596432
      28A     -0.586394    29A     -0.564288    30A     -0.560657
      31A     -0.537393    32A     -0.528923    33A     -0.459092
      34A     -0.433310    35A     -0.398893    36A     -0.386165
      37A     -0.324472

  @DF-RHF Final Energy:  -470.83115392545091

   => Energetics <=

    Nuclear Repulsion Energy =            527.2276200935016277
    One-Electron Energy =               -1686.3135454217822371
    Two-Electron Energy =                 688.2547714028296468
    Total Energy =                       -470.8311539254509626
  Basis Set: (AUG-CC-PVTZ AUX)
    Blend: AUG-CC-PVTZ-RI
    Molecular point group: c1

    Geometry (in Angstrom), charge = 0, multiplicity = 1:

       Center              X                  Y                   Z               Mass
    ------------   -----------------  -----------------  -----------------  -----------------
         O           -1.260260394930     1.541477690278     0.000002834716    15.994914619570
         N            1.452022605070     0.507650690278    -0.000007165284    14.003074004430
         N            0.593288605070    -1.562419309722     0.000009834716    14.003074004430
         N           -2.043329394930    -0.605470509722    -0.000001365284    14.003074004430
         C            0.313908605070    -0.251908309722     0.000009834716    12.000000000000
         C            2.509298605070    -0.367784309722    -0.000010165284    12.000000000000
         C            1.559072605070     1.965464690278     0.000001834716    12.000000000000
         C           -1.050363394930     0.317498690278     0.000001834716    12.000000000000
         C            1.957014605070    -1.634819309722    -0.000000165284    12.000000000000
         C           -3.422358394930    -0.320671309722    -0.000006165284    12.000000000000
         H            3.532692605070    -0.019276309722    -0.000012165284     1.007825032230
         H            1.072211605070     2.374189690278    -0.883911165284     1.007825032230
         H            1.072256605070     2.374175690278     0.883947834716     1.007825032230
         H            2.620252605070     2.217593690278    -0.000022165284     1.007825032230
         H            2.474604605070    -2.585147309722    -0.000005165284     1.007825032230
         H           -1.685262394930    -1.601011309722    -0.000001165284     1.007825032230
         H           -3.914640394930    -0.721702309722     0.890801834716     1.007825032230
         H           -3.914634394930    -0.721705309722    -0.890816165284     1.007825032230
         H           -3.508730394930     0.765869690278    -0.000009165284     1.007825032230

  Basis Set: AUG-CC-PVTZ
    Blend: AUG-CC-PVTZ
  Basis Set: (AUG-CC-PVTZ AUX)
    Blend: AUG-CC-PVTZ-JKFIT
	 Reference Energy          =    -470.8311539254509057 [Eh]
	 Singles Energy            =      -0.0000000000000000 [Eh]
	 Same-Spin Energy          =      -0.4998475434988199 [Eh]
	 Opposite-Spin Energy      =      -1.5377063152221440 [Eh]
	 Correlation Energy        =      -2.0375538587209636 [Eh]
	 Total Energy              =    -472.8687077841718747 [Eh]

	 ================> DF-SCS-MP2 Energies <==================
	-----------------------------------------------------------
	 SCS Same-Spin Scale       =       0.3333333333333333 [-]
	 SCS Opposite-Spin Scale   =       1.2000000000000000 [-]
	 SCS Same-Spin Energy      =      -0.1666158478329400 [Eh]
	 SCS Opposite-Spin Energy  =      -1.8452475782665727 [Eh]
	 SCS Correlation Energy    =      -2.0118634260995125 [Eh]
	 SCS Total Energy          =    -472.8430173515504293 [Eh]
	-----------------------------------------------------------

  Dipole Moment: [D]
     X:     1.5324      Y:    -0.0339      Z:    -0.0000     Total:     1.5327

*** Psi4 exiting successfully. Buy a developer a beer!
