                               Psi4 1.3.2 release

  ==> Input File <==

--------------------------------------------------------------------------
#psi4
#
memory 32 gb

molecule  {
0 1
  O       -1.2482290     1.5306510     0.0000030
  N        1.4640540     0.4968240    -0.0000070
  N        0.6053200    -1.5732460     0.0000100
  N       -1.9984820    -0.6503890    -0.0000010
  C        0.3259400    -0.2627350     0.0000100
  C        2.5213300    -0.3786110    -0.0000100
  C        1.5857509     2.1541009     0.0000032
  C       -1.0383320     0.3066720     0.0000020
  C        1.9690460    -1.6456460     0.0000000
  C       -3.4103270    -0.3314980    -0.0000060
  H        3.5447240    -0.0301030    -0.0000120
  H        1.0842430     2.3633630    -0.8839110
  H        1.0842880     2.3633490     0.8839480
  H        2.6322840     2.2067670    -0.0000220
  H        2.4866360    -2.5959740    -0.0000050
  H       -1.6732310    -1.6118380    -0.0000010
  H       -3.9026090    -0.7325290     0.8908020
  H       -3.9026030    -0.7325320    -0.8908160
  H       -3.4966990     0.7550430    -0.0000090
units angstrom
no_reorient  #important for SAPT in psi4, default
symmetry c1  #important for SAPT in psi4, default
}

set PROPERTIES_ORIGIN ["COM"]
properties('MP2/aug-cc-pvtz', properties = ['dipole'])
--------------------------------------------------------------------------

    Molecular point group: c1
  Charge       = 0
  Multiplicity = 1
  Basis Set: AUG-CC-PVTZ
    Blend: AUG-CC-PVTZ
  Basis Set: (AUG-CC-PVTZ AUX)
    Blend: AUG-CC-PVTZ-JKFIT

    Orbital Energies [Eh]
    ---------------------

    Doubly Occupied:

       1A    -20.520014     2A    -15.626599     3A    -15.582222
       4A    -15.557770     5A    -11.358826     6A    -11.296128
       7A    -11.289411     8A    -11.265157     9A    -11.256610
      10A    -11.248495    11A     -1.376852    12A     -1.330225
      13A     -1.230659    14A     -1.165970    15A     -1.027431
      16A     -0.985920    17A     -0.948996    18A     -0.835652
      19A     -0.803399    20A     -0.768189    21A     -0.718040
      22A     -0.657406    23A     -0.650599    24A     -0.643153
      25A     -0.627619    26A     -0.621420    27A     -0.582049
      28A     -0.579666    29A     -0.577626    30A     -0.544751
      31A     -0.543442    32A     -0.528617    33A     -0.450245
      34A     -0.432573    35A     -0.397677    36A     -0.385153
      37A     -0.316154

  @DF-RHF Final Energy:  -470.80853741101146

   => Energetics <=

    Nuclear Repulsion Energy =            523.3967694212409469
    One-Electron Energy =               -1678.9491905695090281
    Two-Electron Energy =                 684.7438837372565104
    Total Energy =                       -470.8085374110114572
  Basis Set: (AUG-CC-PVTZ AUX)
    Blend: AUG-CC-PVTZ-RI
    Molecular point group: c1

    Geometry (in Angstrom), charge = 0, multiplicity = 1:

       Center              X                  Y                   Z               Mass
    ------------   -----------------  -----------------  -----------------  -----------------
         O           -1.264828359537     1.527699722725     0.000002711037    15.994914619570
         N            1.447454640463     0.493872722725    -0.000007288963    14.003074004430
         N            0.588720640463    -1.576197277275     0.000009711037    14.003074004430
         N           -2.015081359537    -0.653340277275    -0.000001288963    14.003074004430
         C            0.309340640463    -0.265686277275     0.000009711037    12.000000000000
         C            2.504730640463    -0.381562277275    -0.000010288963    12.000000000000
         C            1.569151540463     2.151149622725     0.000002911037    12.000000000000
         C           -1.054931359537     0.303720722725     0.000001711037    12.000000000000
         C            1.952446640463    -1.648597277275    -0.000000288963    12.000000000000
         C           -3.426926359537    -0.334449277275    -0.000006288963    12.000000000000
         H            3.528124640463    -0.033054277275    -0.000012288963     1.007825032230
         H            1.067643640463     2.360411722725    -0.883911288963     1.007825032230
         H            1.067688640463     2.360397722725     0.883947711037     1.007825032230
         H            2.615684640463     2.203815722725    -0.000022288963     1.007825032230
         H            2.470036640463    -2.598925277275    -0.000005288963     1.007825032230
         H           -1.689830359537    -1.614789277275    -0.000001288963     1.007825032230
         H           -3.919208359537    -0.735480277275     0.890801711037     1.007825032230
         H           -3.919202359537    -0.735483277275    -0.890816288963     1.007825032230
         H           -3.513298359537     0.752091722725    -0.000009288963     1.007825032230

  Basis Set: AUG-CC-PVTZ
    Blend: AUG-CC-PVTZ
  Basis Set: (AUG-CC-PVTZ AUX)
    Blend: AUG-CC-PVTZ-JKFIT
	 Reference Energy          =    -470.8085374110114572 [Eh]
	 Singles Energy            =      -0.0000000000000000 [Eh]
	 Same-Spin Energy          =      -0.4992431991597172 [Eh]
	 Opposite-Spin Energy      =      -1.5382785725258517 [Eh]
	 Correlation Energy        =      -2.0375217716855687 [Eh]
	 Total Energy              =    -472.8460591826970472 [Eh]

	 ================> DF-SCS-MP2 Energies <==================
	-----------------------------------------------------------
	 SCS Same-Spin Scale       =       0.3333333333333333 [-]
	 SCS Opposite-Spin Scale   =       1.2000000000000000 [-]
	 SCS Same-Spin Energy      =      -0.1664143997199057 [Eh]
	 SCS Opposite-Spin Energy  =      -1.8459342870310218 [Eh]
	 SCS Correlation Energy    =      -2.0123486867509275 [Eh]
	 SCS Total Energy          =    -472.8208860977624113 [Eh]
	-----------------------------------------------------------

  Dipole Moment: [D]
     X:     1.4995      Y:     0.5308      Z:    -0.0000     Total:     1.5907

*** Psi4 exiting successfully. Buy a developer a beer!
