                               Psi4 1.3.2 release

  ==> Input File <==

--------------------------------------------------------------------------
#psi4
#
memory 32 gb

molecule  {
0 1
  O       -1.2482290     1.5306510     0.0000030
  N        1.4506245     0.5165711    -0.0000073
  N        0.6053200    -1.5732460     0.0000100
  N       -1.9984820    -0.6503890    -0.0000010
  C        0.3259400    -0.2627350     0.0000100
  C        2.5213300    -0.3786110    -0.0000100
  C        1.5711040     1.9546380     0.0000020
  C       -1.0383320     0.3066720     0.0000020
  C        1.9690460    -1.6456460     0.0000000
  C       -3.4103270    -0.3314980    -0.0000060
  H        3.5447240    -0.0301030    -0.0000120
  H        1.0842430     2.3633630    -0.8839110
  H        1.0842880     2.3633490     0.8839480
  H        2.6322840     2.2067670    -0.0000220
  H        2.4866360    -2.5959740    -0.0000050
  H       -1.6732310    -1.6118380    -0.0000010
  H       -3.9026090    -0.7325290     0.8908020
  H       -3.9026030    -0.7325320    -0.8908160
  H       -3.4966990     0.7550430    -0.0000090
units angstrom
no_reorient  #important for SAPT in psi4, default
symmetry c1  #important for SAPT in psi4, default
}

set PROPERTIES_ORIGIN ["COM"]
properties('MP2/aug-cc-pvtz', properties = ['dipole'])
--------------------------------------------------------------------------

    Molecular point group: c1
  Charge       = 0
  Multiplicity = 1
  Basis Set: AUG-CC-PVTZ
    Blend: AUG-CC-PVTZ
  Basis Set: (AUG-CC-PVTZ AUX)
    Blend: AUG-CC-PVTZ-JKFIT

    Orbital Energies [Eh]
    ---------------------

    Doubly Occupied:

       1A    -20.522817     2A    -15.637473     3A    -15.585117
       4A    -15.565723     5A    -11.362065     6A    -11.307312
       7A    -11.273813     8A    -11.272783     9A    -11.258475
      10A    -11.257343    11A     -1.381722    12A     -1.343536
      13A     -1.234987    14A     -1.192838    15A     -1.034469
      16A     -0.980461    17A     -0.950869    18A     -0.840721
      19A     -0.813718    20A     -0.773268    21A     -0.734230
      22A     -0.657283    23A     -0.656558    24A     -0.646216
      25A     -0.619393    26A     -0.606270    27A     -0.601029
      28A     -0.582765    29A     -0.560146    30A     -0.559295
      31A     -0.545871    32A     -0.529100    33A     -0.458733
      34A     -0.433942    35A     -0.397918    36A     -0.388610
      37A     -0.324459

  @DF-RHF Final Energy:  -470.83393954614752

   => Energetics <=

    Nuclear Repulsion Energy =            527.0497225771222247
    One-Electron Energy =               -1685.9846680529553851
    Two-Electron Energy =                 688.1010059296854706
    Total Energy =                       -470.8339395461475760
  Basis Set: (AUG-CC-PVTZ AUX)
    Blend: AUG-CC-PVTZ-RI
    Molecular point group: c1

    Geometry (in Angstrom), charge = 0, multiplicity = 1:

       Center              X                  Y                   Z               Mass
    ------------   -----------------  -----------------  -----------------  -----------------
         O           -1.262212373714     1.542922022677     0.000002844785    15.994914619570
         N            1.436641126286     0.528842122677    -0.000007455215    14.003074004430
         N            0.591336626286    -1.560974977323     0.000009844785    14.003074004430
         N           -2.012465373714    -0.638117977323    -0.000001155215    14.003074004430
         C            0.311956626286    -0.250463977323     0.000009844785    12.000000000000
         C            2.507346626286    -0.366339977323    -0.000010155215    12.000000000000
         C            1.557120626286     1.966909022677     0.000001844785    12.000000000000
         C           -1.052315373714     0.318943022677     0.000001844785    12.000000000000
         C            1.955062626286    -1.633374977323    -0.000000155215    12.000000000000
         C           -3.424310373714    -0.319226977323    -0.000006155215    12.000000000000
         H            3.530740626286    -0.017831977323    -0.000012155215     1.007825032230
         H            1.070259626286     2.375634022677    -0.883911155215     1.007825032230
         H            1.070304626286     2.375620022677     0.883947844785     1.007825032230
         H            2.618300626286     2.219038022677    -0.000022155215     1.007825032230
         H            2.472652626286    -2.583702977323    -0.000005155215     1.007825032230
         H           -1.687214373714    -1.599566977323    -0.000001155215     1.007825032230
         H           -3.916592373714    -0.720257977323     0.890801844785     1.007825032230
         H           -3.916586373714    -0.720260977323    -0.890816155215     1.007825032230
         H           -3.510682373714     0.767314022677    -0.000009155215     1.007825032230

  Basis Set: AUG-CC-PVTZ
    Blend: AUG-CC-PVTZ
  Basis Set: (AUG-CC-PVTZ AUX)
    Blend: AUG-CC-PVTZ-JKFIT
	 Reference Energy          =    -470.8339395461475192 [Eh]
	 Singles Energy            =      -0.0000000000000000 [Eh]
	 Same-Spin Energy          =      -0.4993678194669628 [Eh]
	 Opposite-Spin Energy      =      -1.5374838415541330 [Eh]
	 Correlation Energy        =      -2.0368516610210960 [Eh]
	 Total Energy              =    -472.8707912071686223 [Eh]

	 ================> DF-SCS-MP2 Energies <==================
	-----------------------------------------------------------
	 SCS Same-Spin Scale       =       0.3333333333333333 [-]
	 SCS Opposite-Spin Scale   =       1.2000000000000000 [-]
	 SCS Same-Spin Energy      =      -0.1664559398223209 [Eh]
	 SCS Opposite-Spin Energy  =      -1.8449806098649595 [Eh]
	 SCS Correlation Energy    =      -2.0114365496872804 [Eh]
	 SCS Total Energy          =    -472.8453760958348084 [Eh]
	-----------------------------------------------------------

  Dipole Moment: [D]
     X:     1.3828      Y:    -0.0449      Z:    -0.0000     Total:     1.3836

*** Psi4 exiting successfully. Buy a developer a beer!
