                               Psi4 1.3.2 release

  ==> Input File <==

--------------------------------------------------------------------------
#psi4
#
memory 32 gb

molecule  {
0 1
  O       -1.2482290     1.5306510     0.0000030
  N        1.4640540     0.4968240    -0.0000070
  N        0.6053200    -1.5732460     0.0000100
  N       -1.8931821    -0.7455091    -0.0000003
  C        0.3259400    -0.2627350     0.0000100
  C        2.5213300    -0.3786110    -0.0000100
  C        1.5711040     1.9546380     0.0000020
  C       -1.0383320     0.3066720     0.0000020
  C        1.9690460    -1.6456460     0.0000000
  C       -3.4103270    -0.3314980    -0.0000060
  H        3.5447240    -0.0301030    -0.0000120
  H        1.0842430     2.3633630    -0.8839110
  H        1.0842880     2.3633490     0.8839480
  H        2.6322840     2.2067670    -0.0000220
  H        2.4866360    -2.5959740    -0.0000050
  H       -1.6732310    -1.6118380    -0.0000010
  H       -3.9026090    -0.7325290     0.8908020
  H       -3.9026030    -0.7325320    -0.8908160
  H       -3.4966990     0.7550430    -0.0000090
units angstrom
no_reorient  #important for SAPT in psi4, default
symmetry c1  #important for SAPT in psi4, default
}

set PROPERTIES_ORIGIN ["COM"]
properties('MP2/aug-cc-pvtz', properties = ['dipole'])
--------------------------------------------------------------------------

    Molecular point group: c1
  Charge       = 0
  Multiplicity = 1
  Basis Set: AUG-CC-PVTZ
    Blend: AUG-CC-PVTZ
  Basis Set: (AUG-CC-PVTZ AUX)
    Blend: AUG-CC-PVTZ-JKFIT

    Orbital Energies [Eh]
    ---------------------

    Doubly Occupied:

       1A    -20.529269     2A    -15.633447     3A    -15.580466
       4A    -15.560475     5A    -11.365892     6A    -11.298453
       7A    -11.273448     8A    -11.269403     9A    -11.268520
      10A    -11.252061    11A     -1.382057    12A     -1.343349
      13A     -1.238155    14A     -1.186032    15A     -1.029336
      16A     -0.975517    17A     -0.945123    18A     -0.860538
      19A     -0.814686    20A     -0.790216    21A     -0.732081
      22A     -0.657311    23A     -0.653494    24A     -0.638205
      25A     -0.610332    26A     -0.599547    27A     -0.593260
      28A     -0.573153    29A     -0.561634    30A     -0.559810
      31A     -0.552128    32A     -0.533318    33A     -0.454111
      34A     -0.434265    35A     -0.406578    36A     -0.389825
      37A     -0.319170

  @DF-RHF Final Energy:  -470.80629246291124

   => Energetics <=

    Nuclear Repulsion Energy =            527.1207687142906479
    One-Electron Energy =               -1686.1247920758714827
    Two-Electron Energy =                 688.1977308986697608
    Total Energy =                       -470.8062924629111876
  Basis Set: (AUG-CC-PVTZ AUX)
    Blend: AUG-CC-PVTZ-RI
    Molecular point group: c1

    Geometry (in Angstrom), charge = 0, multiplicity = 1:

       Center              X                  Y                   Z               Mass
    ------------   -----------------  -----------------  -----------------  -----------------
         O           -1.274166943635     1.554487717223     0.000002744097    15.994914619570
         N            1.438116056365     0.520660717223    -0.000007255903    14.003074004430
         N            0.579382056365    -1.549409282777     0.000009744097    14.003074004430
         N           -1.919120043635    -0.721672382777    -0.000000555903    14.003074004430
         C            0.300002056365    -0.238898282777     0.000009744097    12.000000000000
         C            2.495392056365    -0.354774282777    -0.000010255903    12.000000000000
         C            1.545166056365     1.978474717223     0.000001744097    12.000000000000
         C           -1.064269943635     0.330508717223     0.000001744097    12.000000000000
         C            1.943108056365    -1.621809282777    -0.000000255903    12.000000000000
         C           -3.436264943635    -0.307661282777    -0.000006255903    12.000000000000
         H            3.518786056365    -0.006266282777    -0.000012255903     1.007825032230
         H            1.058305056365     2.387199717223    -0.883911255903     1.007825032230
         H            1.058350056365     2.387185717223     0.883947744097     1.007825032230
         H            2.606346056365     2.230603717223    -0.000022255903     1.007825032230
         H            2.460698056365    -2.572137282777    -0.000005255903     1.007825032230
         H           -1.699168943635    -1.588001282777    -0.000001255903     1.007825032230
         H           -3.928546943635    -0.708692282777     0.890801744097     1.007825032230
         H           -3.928540943635    -0.708695282777    -0.890816255903     1.007825032230
         H           -3.522636943635     0.778879717223    -0.000009255903     1.007825032230

  Basis Set: AUG-CC-PVTZ
    Blend: AUG-CC-PVTZ
  Basis Set: (AUG-CC-PVTZ AUX)
    Blend: AUG-CC-PVTZ-JKFIT
	 Reference Energy          =    -470.8062924629112445 [Eh]
	 Singles Energy            =      -0.0000000000000000 [Eh]
	 Same-Spin Energy          =      -0.4988163426801339 [Eh]
	 Opposite-Spin Energy      =      -1.5377577398596176 [Eh]
	 Correlation Energy        =      -2.0365740825397514 [Eh]
	 Total Energy              =    -472.8428665454509883 [Eh]

	 ================> DF-SCS-MP2 Energies <==================
	-----------------------------------------------------------
	 SCS Same-Spin Scale       =       0.3333333333333333 [-]
	 SCS Opposite-Spin Scale   =       1.2000000000000000 [-]
	 SCS Same-Spin Energy      =      -0.1662721142267113 [Eh]
	 SCS Opposite-Spin Energy  =      -1.8453092878315411 [Eh]
	 SCS Correlation Energy    =      -2.0115814020582525 [Eh]
	 SCS Total Energy          =    -472.8178738649694992 [Eh]
	-----------------------------------------------------------

  Dipole Moment: [D]
     X:     1.0146      Y:     0.1879      Z:    -0.0000     Total:     1.0318

*** Psi4 exiting successfully. Buy a developer a beer!
