                               Psi4 1.4a3.dev225

  ==> Input File <==

--------------------------------------------------------------------------
#psi4
#
memory 32 gb

molecule  {
0 1
  O       -1.2482290     1.5306510     0.0000030
  N        1.4640540     0.4968240    -0.0000070
  N        0.6053200    -1.5732460     0.0000100
  N       -1.9984820    -0.6503890    -0.0000010
  C        0.3259400    -0.2627350     0.0000100
  C        2.5213300    -0.3786110    -0.0000100
  C        1.5696393     1.9346917     0.0000019
  C       -1.0383320     0.3066720     0.0000020
  C        1.9690460    -1.6456460     0.0000000
  C       -3.4103270    -0.3314980    -0.0000060
  H        3.5447240    -0.0301030    -0.0000120
  H        1.0842430     2.3633630    -0.8839110
  H        1.0842880     2.3633490     0.8839480
  H        2.6322840     2.2067670    -0.0000220
  H        2.4866360    -2.5959740    -0.0000050
  H       -1.6732310    -1.6118380    -0.0000010
  H       -3.9026090    -0.7325290     0.8908020
  H       -3.9026030    -0.7325320    -0.8908160
  H       -3.4966990     0.7550430    -0.0000090
units angstrom
no_reorient  #important for SAPT in psi4, default
symmetry c1  #important for SAPT in psi4, default
}

set PROPERTIES_ORIGIN ["COM"]
properties('MP2/aug-cc-pvtz', properties = ['dipole'])
--------------------------------------------------------------------------

    Molecular point group: c1
  Charge       = 0
  Multiplicity = 1
  Basis Set: AUG-CC-PVTZ
    Blend: AUG-CC-PVTZ
  Basis Set: (AUG-CC-PVTZ AUX)
    Blend: AUG-CC-PVTZ-JKFIT

    Orbital Energies [Eh]
    ---------------------

    Doubly Occupied:

       1A    -20.522502     2A    -15.638468     3A    -15.585036
       4A    -15.566219     5A    -11.362476     6A    -11.305675
       7A    -11.274308     8A    -11.273196     9A    -11.258467
      10A    -11.256010    11A     -1.382362    12A     -1.348310
      13A     -1.235107    14A     -1.193620    15A     -1.036753
      16A     -0.979362    17A     -0.950559    18A     -0.841339
      19A     -0.815684    20A     -0.773461    21A     -0.736488
      22A     -0.660757    23A     -0.657187    24A     -0.646084
      25A     -0.619214    26A     -0.604600    27A     -0.599228
      28A     -0.583695    29A     -0.560600    30A     -0.557543
      31A     -0.545848    32A     -0.529717    33A     -0.458632
      34A     -0.433769    35A     -0.398862    36A     -0.389035
      37A     -0.323770

  @DF-RHF Final Energy:  -470.83483575116975

   => Energetics <=

    Nuclear Repulsion Energy =            527.5301930435130089
    One-Electron Energy =               -1686.9221732662947488
    Two-Electron Energy =                 688.5571444716119913
    Total Energy =                       -470.8348357511697486
  Basis Set: (AUG-CC-PVTZ AUX)
    Blend: AUG-CC-PVTZ-RI
    Molecular point group: c1

    Geometry (in Angstrom), charge = 0, multiplicity = 1:

       Center              X                  Y                   Z               Mass
    ------------   -----------------  -----------------  -----------------  -----------------
         O           -1.263438175758     1.546631368912     0.000002823207    15.994914619570
         N            1.448844824242     0.512804368912    -0.000007176793    14.003074004430
         N            0.590110824242    -1.557265631088     0.000009823207    14.003074004430
         N           -2.013691175758    -0.634408631088    -0.000001176793    14.003074004430
         C            0.310730824242    -0.246754631088     0.000009823207    12.000000000000
         C            2.506120824242    -0.362630631088    -0.000010176793    12.000000000000
         C            1.554430124242     1.950672068912     0.000001723207    12.000000000000
         C           -1.053541175758     0.322652368912     0.000001823207    12.000000000000
         C            1.953836824242    -1.629665631088    -0.000000176793    12.000000000000
         C           -3.425536175758    -0.315517631088    -0.000006176793    12.000000000000
         H            3.529514824242    -0.014122631088    -0.000012176793     1.007825032230
         H            1.069033824242     2.379343368912    -0.883911176793     1.007825032230
         H            1.069078824242     2.379329368912     0.883947823207     1.007825032230
         H            2.617074824242     2.222747368912    -0.000022176793     1.007825032230
         H            2.471426824242    -2.579993631088    -0.000005176793     1.007825032230
         H           -1.688440175758    -1.595857631088    -0.000001176793     1.007825032230
         H           -3.917818175758    -0.716548631088     0.890801823207     1.007825032230
         H           -3.917812175758    -0.716551631088    -0.890816176793     1.007825032230
         H           -3.511908175758     0.771023368912    -0.000009176793     1.007825032230

  Basis Set: AUG-CC-PVTZ
    Blend: AUG-CC-PVTZ
  Basis Set: (AUG-CC-PVTZ AUX)
    Blend: AUG-CC-PVTZ-JKFIT
	 Reference Energy          =    -470.8348357511697486 [Eh]
	 Singles Energy            =      -0.0000000000000000 [Eh]
	 Same-Spin Energy          =      -0.4994586748348314 [Eh]
	 Opposite-Spin Energy      =      -1.5371533407597573 [Eh]
	 Correlation Energy        =      -2.0366120155945886 [Eh]
	 Total Energy              =    -472.8714477667643337 [Eh]

	 ================> DF-SCS-MP2 Energies <==================
	-----------------------------------------------------------
	 SCS Same-Spin Scale       =       0.3333333333333333 [-]
	 SCS Opposite-Spin Scale   =       1.2000000000000000 [-]
	 SCS Same-Spin Energy      =      -0.1664862249449438 [Eh]
	 SCS Opposite-Spin Energy  =      -1.8445840089117087 [Eh]
	 SCS Correlation Energy    =      -2.0110702338566524 [Eh]
	 SCS Total Energy          =    -472.8459059850263770 [Eh]
	-----------------------------------------------------------

  Dipole Moment: [D]
     X:     1.3846      Y:    -0.0370      Z:    -0.0000     Total:     1.3851

*** Psi4 exiting successfully. Buy a developer a beer!
