                               Psi4 1.3.2 release

  ==> Input File <==

--------------------------------------------------------------------------
#psi4
#
memory 32 gb

molecule  {
0 1
  O       -1.2482290     1.5306510     0.0000030
  N        1.4640540     0.4968240    -0.0000070
  N        0.6053200    -1.5732460     0.0000100
  N       -1.9984820    -0.6503890    -0.0000010
  C        0.4115702    -0.3775394     0.0000074
  C        2.5213300    -0.3786110    -0.0000100
  C        1.5711040     1.9546380     0.0000020
  C       -1.0383320     0.3066720     0.0000020
  C        1.9690460    -1.6456460     0.0000000
  C       -3.4103270    -0.3314980    -0.0000060
  H        3.5447240    -0.0301030    -0.0000120
  H        1.0842430     2.3633630    -0.8839110
  H        1.0842880     2.3633490     0.8839480
  H        2.6322840     2.2067670    -0.0000220
  H        2.4866360    -2.5959740    -0.0000050
  H       -1.6732310    -1.6118380    -0.0000010
  H       -3.9026090    -0.7325290     0.8908020
  H       -3.9026030    -0.7325320    -0.8908160
  H       -3.4966990     0.7550430    -0.0000090
units angstrom
no_reorient  #important for SAPT in psi4, default
symmetry c1  #important for SAPT in psi4, default
}

set PROPERTIES_ORIGIN ["COM"]
properties('MP2/aug-cc-pvtz', properties = ['dipole'])
--------------------------------------------------------------------------

    Molecular point group: c1
  Charge       = 0
  Multiplicity = 1
  Basis Set: AUG-CC-PVTZ
    Blend: AUG-CC-PVTZ
  Basis Set: (AUG-CC-PVTZ AUX)
    Blend: AUG-CC-PVTZ-JKFIT

    Orbital Energies [Eh]
    ---------------------

    Doubly Occupied:

       1A    -20.524582     2A    -15.623633     3A    -15.585173
       4A    -15.556079     5A    -11.363821     6A    -11.303746
       7A    -11.275498     8A    -11.270137     9A    -11.258121
      10A    -11.251657    11A     -1.386068    12A     -1.361959
      13A     -1.237182    14A     -1.216701    15A     -1.028334
      16A     -0.977833    17A     -0.948432    18A     -0.829938
      19A     -0.813534    20A     -0.771078    21A     -0.735631
      22A     -0.658817    23A     -0.654445    24A     -0.642999
      25A     -0.618454    26A     -0.611079    27A     -0.600423
      28A     -0.569616    29A     -0.565209    30A     -0.560662
      31A     -0.545801    32A     -0.530911    33A     -0.479360
      34A     -0.417784    35A     -0.411523    36A     -0.390569
      37A     -0.324991

  @DF-RHF Final Energy:  -470.81402577941958

   => Energetics <=

    Nuclear Repulsion Energy =            527.6566310157144244
    One-Electron Energy =               -1687.1377532634448926
    Two-Electron Energy =                 688.6670964683110014
    Total Energy =                       -470.8140257794195804
  Basis Set: (AUG-CC-PVTZ AUX)
    Blend: AUG-CC-PVTZ-RI
    Molecular point group: c1

    Geometry (in Angstrom), charge = 0, multiplicity = 1:

       Center              X                  Y                   Z               Mass
    ------------   -----------------  -----------------  -----------------  -----------------
         O           -1.270953128785     1.554816166939     0.000003038918    15.994914619570
         N            1.441329871215     0.520989166939    -0.000006961082    14.003074004430
         N            0.582595871215    -1.549080833061     0.000010038918    14.003074004430
         N           -2.021206128785    -0.626223833061    -0.000000961082    14.003074004430
         C            0.388846071215    -0.353374233061     0.000007438918    12.000000000000
         C            2.498605871215    -0.354445833061    -0.000009961082    12.000000000000
         C            1.548379871215     1.978803166939     0.000002038918    12.000000000000
         C           -1.061056128785     0.330837166939     0.000002038918    12.000000000000
         C            1.946321871215    -1.621480833061     0.000000038918    12.000000000000
         C           -3.433051128785    -0.307332833061    -0.000005961082    12.000000000000
         H            3.521999871215    -0.005937833061    -0.000011961082     1.007825032230
         H            1.061518871215     2.387528166939    -0.883910961082     1.007825032230
         H            1.061563871215     2.387514166939     0.883948038918     1.007825032230
         H            2.609559871215     2.230932166939    -0.000021961082     1.007825032230
         H            2.463911871215    -2.571808833061    -0.000004961082     1.007825032230
         H           -1.695955128785    -1.587672833061    -0.000000961082     1.007825032230
         H           -3.925333128785    -0.708363833061     0.890802038918     1.007825032230
         H           -3.925327128785    -0.708366833061    -0.890815961082     1.007825032230
         H           -3.519423128785     0.779208166939    -0.000008961082     1.007825032230

  Basis Set: AUG-CC-PVTZ
    Blend: AUG-CC-PVTZ
  Basis Set: (AUG-CC-PVTZ AUX)
    Blend: AUG-CC-PVTZ-JKFIT
	 Reference Energy          =    -470.8140257794195804 [Eh]
	 Singles Energy            =      -0.0000000000000000 [Eh]
	 Same-Spin Energy          =      -0.4960884352946445 [Eh]
	 Opposite-Spin Energy      =      -1.5324027055761751 [Eh]
	 Correlation Energy        =      -2.0284911408708197 [Eh]
	 Total Energy              =    -472.8425169202903930 [Eh]

	 ================> DF-SCS-MP2 Energies <==================
	-----------------------------------------------------------
	 SCS Same-Spin Scale       =       0.3333333333333333 [-]
	 SCS Opposite-Spin Scale   =       1.2000000000000000 [-]
	 SCS Same-Spin Energy      =      -0.1653628117648815 [Eh]
	 SCS Opposite-Spin Energy  =      -1.8388832466914100 [Eh]
	 SCS Correlation Energy    =      -2.0042460584562916 [Eh]
	 SCS Total Energy          =    -472.8182718378758977 [Eh]
	-----------------------------------------------------------

  Dipole Moment: [D]
     X:     1.0642      Y:    -0.0530      Z:    -0.0000     Total:     1.0655

*** Psi4 exiting successfully. Buy a developer a beer!
