                               Psi4 1.3.2 release

  ==> Input File <==

--------------------------------------------------------------------------
#psi4
#
memory 32 gb

molecule  {
0 1
  O       -1.2482290     1.5306510     0.0000030
  N        1.4640540     0.4968240    -0.0000070
  N        0.6053200    -1.5732460     0.0000100
  N       -1.9984820    -0.6503890    -0.0000010
  C        0.4091175    -0.2072237     0.0000088
  C        2.5213300    -0.3786110    -0.0000100
  C        1.5711040     1.9546380     0.0000020
  C       -1.0383320     0.3066720     0.0000020
  C        1.9690460    -1.6456460     0.0000000
  C       -3.4103270    -0.3314980    -0.0000060
  H        3.5447240    -0.0301030    -0.0000120
  H        1.0842430     2.3633630    -0.8839110
  H        1.0842880     2.3633490     0.8839480
  H        2.6322840     2.2067670    -0.0000220
  H        2.4866360    -2.5959740    -0.0000050
  H       -1.6732310    -1.6118380    -0.0000010
  H       -3.9026090    -0.7325290     0.8908020
  H       -3.9026030    -0.7325320    -0.8908160
  H       -3.4966990     0.7550430    -0.0000090
units angstrom
no_reorient  #important for SAPT in psi4, default
symmetry c1  #important for SAPT in psi4, default
}

set PROPERTIES_ORIGIN ["COM"]
properties('MP2/aug-cc-pvtz', properties = ['dipole'])
--------------------------------------------------------------------------

    Molecular point group: c1
  Charge       = 0
  Multiplicity = 1
  Basis Set: AUG-CC-PVTZ
    Blend: AUG-CC-PVTZ
  Basis Set: (AUG-CC-PVTZ AUX)
    Blend: AUG-CC-PVTZ-JKFIT

    Orbital Energies [Eh]
    ---------------------

    Doubly Occupied:

       1A    -20.521560     2A    -15.642817     3A    -15.586251
       4A    -15.557527     5A    -11.365147     6A    -11.303759
       7A    -11.280858     8A    -11.262921     9A    -11.259237
      10A    -11.256384    11A     -1.389550    12A     -1.362087
      13A     -1.232918    14A     -1.189444    15A     -1.029794
      16A     -0.989554    17A     -0.954750    18A     -0.830946
      19A     -0.820432    20A     -0.771547    21A     -0.740128
      22A     -0.668512    23A     -0.655978    24A     -0.644257
      25A     -0.619983    26A     -0.605850    27A     -0.602209
      28A     -0.577630    29A     -0.562478    30A     -0.561863
      31A     -0.545928    32A     -0.531314    33A     -0.454941
      34A     -0.430374    35A     -0.399715    36A     -0.389620
      37A     -0.321582

  @DF-RHF Final Energy:  -470.82439794360999

   => Energetics <=

    Nuclear Repulsion Energy =            527.6395646699546660
    One-Electron Energy =               -1687.0882356724293913
    Two-Electron Energy =                 688.6242730588649010
    Total Energy =                       -470.8243979436099380
  Basis Set: (AUG-CC-PVTZ AUX)
    Blend: AUG-CC-PVTZ-RI
    Molecular point group: c1

    Geometry (in Angstrom), charge = 0, multiplicity = 1:

       Center              X                  Y                   Z               Mass
    ------------   -----------------  -----------------  -----------------  -----------------
         O           -1.270741498422     1.540120536252     0.000002918120    15.994914619570
         N            1.441541501578     0.506293536252    -0.000007081880    14.003074004430
         N            0.582807501578    -1.563776463748     0.000009918120    14.003074004430
         N           -2.020994498422    -0.640919463748    -0.000001081880    14.003074004430
         C            0.386605001578    -0.197754163748     0.000008718120    12.000000000000
         C            2.498817501578    -0.369141463748    -0.000010081880    12.000000000000
         C            1.548591501578     1.964107536252     0.000001918120    12.000000000000
         C           -1.060844498422     0.316141536252     0.000001918120    12.000000000000
         C            1.946533501578    -1.636176463748    -0.000000081880    12.000000000000
         C           -3.432839498422    -0.322028463748    -0.000006081880    12.000000000000
         H            3.522211501578    -0.020633463748    -0.000012081880     1.007825032230
         H            1.061730501578     2.372832536252    -0.883911081880     1.007825032230
         H            1.061775501578     2.372818536252     0.883947918120     1.007825032230
         H            2.609771501578     2.216236536252    -0.000022081880     1.007825032230
         H            2.464123501578    -2.586504463748    -0.000005081880     1.007825032230
         H           -1.695743498422    -1.602368463748    -0.000001081880     1.007825032230
         H           -3.925121498422    -0.723059463748     0.890801918120     1.007825032230
         H           -3.925115498422    -0.723062463748    -0.890816081880     1.007825032230
         H           -3.519211498422     0.764512536252    -0.000009081880     1.007825032230

  Basis Set: AUG-CC-PVTZ
    Blend: AUG-CC-PVTZ
  Basis Set: (AUG-CC-PVTZ AUX)
    Blend: AUG-CC-PVTZ-JKFIT
	 Reference Energy          =    -470.8243979436099949 [Eh]
	 Singles Energy            =      -0.0000000000000000 [Eh]
	 Same-Spin Energy          =      -0.4984850298571356 [Eh]
	 Opposite-Spin Energy      =      -1.5357510760877648 [Eh]
	 Correlation Energy        =      -2.0342361059449003 [Eh]
	 Total Energy              =    -472.8586340495548939 [Eh]

	 ================> DF-SCS-MP2 Energies <==================
	-----------------------------------------------------------
	 SCS Same-Spin Scale       =       0.3333333333333333 [-]
	 SCS Opposite-Spin Scale   =       1.2000000000000000 [-]
	 SCS Same-Spin Energy      =      -0.1661616766190452 [Eh]
	 SCS Opposite-Spin Energy  =      -1.8429012913053178 [Eh]
	 SCS Correlation Energy    =      -2.0090629679243630 [Eh]
	 SCS Total Energy          =    -472.8334609115343596 [Eh]
	-----------------------------------------------------------

  Dipole Moment: [D]
     X:     1.3386      Y:     0.2232      Z:    -0.0000     Total:     1.3571

*** Psi4 exiting successfully. Buy a developer a beer!
