                               Psi4 1.4a3.dev225

  ==> Input File <==

--------------------------------------------------------------------------
#psi4
#
memory 32 gb

molecule  {
0 1
  O       -1.2482290     1.5306510     0.0000030
  N        1.4640540     0.4968240    -0.0000070
  N        0.6053200    -1.5732460     0.0000100
  N       -1.9984820    -0.6503890    -0.0000010
  C        0.3259400    -0.2627350     0.0000100
  C        2.5213300    -0.3786110    -0.0000100
  C        1.5711040     1.9546380     0.0000020
  C       -1.0383320     0.3066720     0.0000020
  C        1.9690460    -1.6456460     0.0000000
  C       -3.4103270    -0.3314980    -0.0000060
  H        3.5447240    -0.0301030    -0.0000120
  H        1.0842430     2.3633630    -0.8839110
  H        1.0842880     2.3633490     0.8839480
  H        2.6322840     2.2067670    -0.0000220
  H        2.5105512    -2.6398837    -0.0000052
  H       -1.6732310    -1.6118380    -0.0000010
  H       -3.9026090    -0.7325290     0.8908020
  H       -3.9026030    -0.7325320    -0.8908160
  H       -3.4966990     0.7550430    -0.0000090
units angstrom
no_reorient  #important for SAPT in psi4, default
symmetry c1  #important for SAPT in psi4, default
}

set PROPERTIES_ORIGIN ["COM"]
properties('MP2/aug-cc-pvtz', properties = ['dipole'])
--------------------------------------------------------------------------

    Molecular point group: c1
  Charge       = 0
  Multiplicity = 1
  Basis Set: AUG-CC-PVTZ
    Blend: AUG-CC-PVTZ
  Basis Set: (AUG-CC-PVTZ AUX)
    Blend: AUG-CC-PVTZ-JKFIT

    Orbital Energies [Eh]
    ---------------------

    Doubly Occupied:

       1A    -20.522452     2A    -15.638100     3A    -15.584947
       4A    -15.565947     5A    -11.362367     6A    -11.305233
       7A    -11.275067     8A    -11.272931     9A    -11.260900
      10A    -11.258406    11A     -1.381879    12A     -1.346702
      13A     -1.234760    14A     -1.190856    15A     -1.035408
      16A     -0.979507    17A     -0.950075    18A     -0.839442
      19A     -0.811755    20A     -0.773089    21A     -0.733254
      22A     -0.659309    23A     -0.656509    24A     -0.645283
      25A     -0.619262    26A     -0.601303    27A     -0.594868
      28A     -0.582695    29A     -0.560523    30A     -0.560379
      31A     -0.545735    32A     -0.530149    33A     -0.457644
      34A     -0.434027    35A     -0.399420    36A     -0.389026
      37A     -0.323326

  @DF-RHF Final Energy:  -470.83271712801780

   => Energetics <=

    Nuclear Repulsion Energy =            526.8732960954633882
    One-Electron Energy =               -1685.6469665709901165
    Two-Electron Energy =                 687.9409533475088665
    Total Energy =                       -470.8327171280177481
  Basis Set: (AUG-CC-PVTZ AUX)
    Blend: AUG-CC-PVTZ-RI
    Molecular point group: c1

    Geometry (in Angstrom), charge = 0, multiplicity = 1:

       Center              X                  Y                   Z               Mass
    ------------   -----------------  -----------------  -----------------  -----------------
         O           -1.263737862032     1.545228507724     0.000002816028    15.994914619570
         N            1.448545137968     0.511401507724    -0.000007183972    14.003074004430
         N            0.589811137968    -1.558668492276     0.000009816028    14.003074004430
         N           -2.013990862032    -0.635811492276    -0.000001183972    14.003074004430
         C            0.310431137968    -0.248157492276     0.000009816028    12.000000000000
         C            2.505821137968    -0.364033492276    -0.000010183972    12.000000000000
         C            1.555595137968     1.969215507724     0.000001816028    12.000000000000
         C           -1.053840862032     0.321249507724     0.000001816028    12.000000000000
         C            1.953537137968    -1.631068492276    -0.000000183972    12.000000000000
         C           -3.425835862032    -0.316920492276    -0.000006183972    12.000000000000
         H            3.529215137968    -0.015525492276    -0.000012183972     1.007825032230
         H            1.068734137968     2.377940507724    -0.883911183972     1.007825032230
         H            1.068779137968     2.377926507724     0.883947816028     1.007825032230
         H            2.616775137968     2.221344507724    -0.000022183972     1.007825032230
         H            2.495042337968    -2.625306192276    -0.000005383972     1.007825032230
         H           -1.688739862032    -1.597260492276    -0.000001183972     1.007825032230
         H           -3.918117862032    -0.717951492276     0.890801816028     1.007825032230
         H           -3.918111862032    -0.717954492276    -0.890816183972     1.007825032230
         H           -3.512207862032     0.769620507724    -0.000009183972     1.007825032230

  Basis Set: AUG-CC-PVTZ
    Blend: AUG-CC-PVTZ
  Basis Set: (AUG-CC-PVTZ AUX)
    Blend: AUG-CC-PVTZ-JKFIT
	 Reference Energy          =    -470.8327171280178050 [Eh]
	 Singles Energy            =      -0.0000000000000000 [Eh]
	 Same-Spin Energy          =      -0.4994357764165410 [Eh]
	 Opposite-Spin Energy      =      -1.5374867021208956 [Eh]
	 Correlation Energy        =      -2.0369224785374365 [Eh]
	 Total Energy              =    -472.8696396065552676 [Eh]

	 ================> DF-SCS-MP2 Energies <==================
	-----------------------------------------------------------
	 SCS Same-Spin Scale       =       0.3333333333333333 [-]
	 SCS Opposite-Spin Scale   =       1.2000000000000000 [-]
	 SCS Same-Spin Energy      =      -0.1664785921388470 [Eh]
	 SCS Opposite-Spin Energy  =      -1.8449840425450745 [Eh]
	 SCS Correlation Energy    =      -2.0114626346839217 [Eh]
	 SCS Total Energy          =    -472.8441797627017422 [Eh]
	-----------------------------------------------------------

  Dipole Moment: [D]
     X:     1.3825      Y:     0.0194      Z:    -0.0000     Total:     1.3827

*** Psi4 exiting successfully. Buy a developer a beer!
