                               Psi4 1.4a3.dev225

  ==> Input File <==

--------------------------------------------------------------------------
#psi4
#
memory 32 gb

molecule  {
0 1
  O       -1.2482290     1.5306510     0.0000030
  N        1.4640540     0.4968240    -0.0000070
  N        0.6053200    -1.5732460     0.0000100
  N       -1.9984820    -0.6503890    -0.0000010
  C        0.3259400    -0.2627350     0.0000100
  C        2.5213300    -0.3786110    -0.0000100
  C        1.5674423     1.9047723     0.0000017
  C       -1.0383320     0.3066720     0.0000020
  C        1.9690460    -1.6456460     0.0000000
  C       -3.4103270    -0.3314980    -0.0000060
  H        3.5447240    -0.0301030    -0.0000120
  H        1.0842430     2.3633630    -0.8839110
  H        1.0842880     2.3633490     0.8839480
  H        2.6322840     2.2067670    -0.0000220
  H        2.4866360    -2.5959740    -0.0000050
  H       -1.6732310    -1.6118380    -0.0000010
  H       -3.9026090    -0.7325290     0.8908020
  H       -3.9026030    -0.7325320    -0.8908160
  H       -3.4966990     0.7550430    -0.0000090
units angstrom
no_reorient  #important for SAPT in psi4, default
symmetry c1  #important for SAPT in psi4, default
}

set PROPERTIES_ORIGIN ["COM"]
properties('MP2/aug-cc-pvtz', properties = ['dipole'])
--------------------------------------------------------------------------

    Molecular point group: c1
  Charge       = 0
  Multiplicity = 1
  Basis Set: AUG-CC-PVTZ
    Blend: AUG-CC-PVTZ
  Basis Set: (AUG-CC-PVTZ AUX)
    Blend: AUG-CC-PVTZ-JKFIT

    Orbital Energies [Eh]
    ---------------------

    Doubly Occupied:

       1A    -20.522798     2A    -15.639241     3A    -15.585359
       4A    -15.567323     5A    -11.362911     6A    -11.306841
       7A    -11.274145     8A    -11.273691     9A    -11.258683
      10A    -11.256984    11A     -1.383517    12A     -1.351280
      13A     -1.235924    14A     -1.198122    15A     -1.038137
      16A     -0.979544    17A     -0.950668    18A     -0.842035
      19A     -0.817439    20A     -0.774277    21A     -0.739154
      22A     -0.662646    23A     -0.658851    24A     -0.646573
      25A     -0.619410    26A     -0.604512    27A     -0.604204
      28A     -0.584013    29A     -0.555322    30A     -0.553808
      31A     -0.546079    32A     -0.529024    33A     -0.459560
      34A     -0.433575    35A     -0.398143    36A     -0.389210
      37A     -0.324708

  @DF-RHF Final Energy:  -470.83267614553864

   => Energetics <=

    Nuclear Repulsion Energy =            528.1373754585064262
    One-Electron Energy =               -1688.0846794094215966
    Two-Electron Energy =                 689.1146278053765855
    Total Energy =                       -470.8326761455386986
  Basis Set: (AUG-CC-PVTZ AUX)
    Blend: AUG-CC-PVTZ-RI
    Molecular point group: c1

    Geometry (in Angstrom), charge = 0, multiplicity = 1:

       Center              X                  Y                   Z               Mass
    ------------   -----------------  -----------------  -----------------  -----------------
         O           -1.263248608381     1.549212953891     0.000002840464    15.994914619570
         N            1.449034391619     0.515385953891    -0.000007159536    14.003074004430
         N            0.590300391619    -1.554684046109     0.000009840464    14.003074004430
         N           -2.013501608381    -0.631827046109    -0.000001159536    14.003074004430
         C            0.310920391619    -0.244173046109     0.000009840464    12.000000000000
         C            2.506310391619    -0.360049046109    -0.000010159536    12.000000000000
         C            1.552422691619     1.923334253891     0.000001540464    12.000000000000
         C           -1.053351608381     0.325233953891     0.000001840464    12.000000000000
         C            1.954026391619    -1.627084046109    -0.000000159536    12.000000000000
         C           -3.425346608381    -0.312936046109    -0.000006159536    12.000000000000
         H            3.529704391619    -0.011541046109    -0.000012159536     1.007825032230
         H            1.069223391619     2.381924953891    -0.883911159536     1.007825032230
         H            1.069268391619     2.381910953891     0.883947840464     1.007825032230
         H            2.617264391619     2.225328953891    -0.000022159536     1.007825032230
         H            2.471616391619    -2.577412046109    -0.000005159536     1.007825032230
         H           -1.688250608381    -1.593276046109    -0.000001159536     1.007825032230
         H           -3.917628608381    -0.713967046109     0.890801840464     1.007825032230
         H           -3.917622608381    -0.713970046109    -0.890816159536     1.007825032230
         H           -3.511718608381     0.773604953891    -0.000009159536     1.007825032230

  Basis Set: AUG-CC-PVTZ
    Blend: AUG-CC-PVTZ
  Basis Set: (AUG-CC-PVTZ AUX)
    Blend: AUG-CC-PVTZ-JKFIT
	 Reference Energy          =    -470.8326761455386418 [Eh]
	 Singles Energy            =      -0.0000000000000000 [Eh]
	 Same-Spin Energy          =      -0.4997123100524157 [Eh]
	 Opposite-Spin Energy      =      -1.5373512484494298 [Eh]
	 Correlation Energy        =      -2.0370635585018455 [Eh]
	 Total Energy              =    -472.8697397040405122 [Eh]

	 ================> DF-SCS-MP2 Energies <==================
	-----------------------------------------------------------
	 SCS Same-Spin Scale       =       0.3333333333333333 [-]
	 SCS Opposite-Spin Scale   =       1.2000000000000000 [-]
	 SCS Same-Spin Energy      =      -0.1665707700174719 [Eh]
	 SCS Opposite-Spin Energy  =      -1.8448214981393156 [Eh]
	 SCS Correlation Energy    =      -2.0113922681567873 [Eh]
	 SCS Total Energy          =    -472.8440684136954246 [Eh]
	-----------------------------------------------------------

  Dipole Moment: [D]
     X:     1.3693      Y:    -0.1138      Z:    -0.0000     Total:     1.3741

*** Psi4 exiting successfully. Buy a developer a beer!
