                               Psi4 1.3.2 release

  ==> Input File <==

--------------------------------------------------------------------------
#psi4
#
memory 32 gb

molecule  {
0 1
  O       -1.2482290     1.5306510     0.0000030
  N        1.4640540     0.4968240    -0.0000070
  N        0.6053200    -1.5732460     0.0000100
  N       -1.9984820    -0.6503890    -0.0000010
  C        0.3259400    -0.2627350     0.0000100
  C        2.5798218    -0.3027266    -0.0000094
  C        1.5711040     1.9546380     0.0000020
  C       -1.0383320     0.3066720     0.0000020
  C        1.9690460    -1.6456460     0.0000000
  C       -3.4103270    -0.3314980    -0.0000060
  H        3.5447240    -0.0301030    -0.0000120
  H        1.0842430     2.3633630    -0.8839110
  H        1.0842880     2.3633490     0.8839480
  H        2.6322840     2.2067670    -0.0000220
  H        2.4866360    -2.5959740    -0.0000050
  H       -1.6732310    -1.6118380    -0.0000010
  H       -3.9026090    -0.7325290     0.8908020
  H       -3.9026030    -0.7325320    -0.8908160
  H       -3.4966990     0.7550430    -0.0000090
units angstrom
no_reorient  #important for SAPT in psi4, default
symmetry c1  #important for SAPT in psi4, default
}

set PROPERTIES_ORIGIN ["COM"]
properties('MP2/aug-cc-pvtz', properties = ['dipole'])
--------------------------------------------------------------------------

    Molecular point group: c1
  Charge       = 0
  Multiplicity = 1
  Basis Set: AUG-CC-PVTZ
    Blend: AUG-CC-PVTZ
  Basis Set: (AUG-CC-PVTZ AUX)
    Blend: AUG-CC-PVTZ-JKFIT

    Orbital Energies [Eh]
    ---------------------

    Doubly Occupied:

       1A    -20.521264     2A    -15.645212     3A    -15.584783
       4A    -15.569996     5A    -11.362216     6A    -11.304221
       7A    -11.277572     8A    -11.274058     9A    -11.267491
      10A    -11.258314    11A     -1.380725    12A     -1.343452
      13A     -1.234903    14A     -1.193199    15A     -1.029446
      16A     -0.978820    17A     -0.950431    18A     -0.838136
      19A     -0.823646    20A     -0.773573    21A     -0.731410
      22A     -0.678845    23A     -0.655818    24A     -0.646265
      25A     -0.619119    26A     -0.611848    27A     -0.587175
      28A     -0.585120    29A     -0.558515    30A     -0.558129
      31A     -0.545424    32A     -0.527908    33A     -0.458320
      34A     -0.433463    35A     -0.402202    36A     -0.389661
      37A     -0.311292

  @DF-RHF Final Energy:  -470.81802230290748

   => Energetics <=

    Nuclear Repulsion Energy =            525.8417398258173989
    One-Electron Energy =               -1683.4955789386185643
    Two-Electron Energy =                 686.8358168098935721
    Total Energy =                       -470.8180223029074796
  Basis Set: (AUG-CC-PVTZ AUX)
    Blend: AUG-CC-PVTZ-RI
    Molecular point group: c1

    Geometry (in Angstrom), charge = 0, multiplicity = 1:

       Center              X                  Y                   Z               Mass
    ------------   -----------------  -----------------  -----------------  -----------------
         O           -1.268611501419     1.538362650434     0.000002762808    15.994914619570
         N            1.443671498581     0.504535650434    -0.000007237192    14.003074004430
         N            0.584937498581    -1.565534349566     0.000009762808    14.003074004430
         N           -2.018864501419    -0.642677349566    -0.000001237192    14.003074004430
         C            0.305557498581    -0.255023349566     0.000009762808    12.000000000000
         C            2.559439298581    -0.295014949566    -0.000009637192    12.000000000000
         C            1.550721498581     1.962349650434     0.000001762808    12.000000000000
         C           -1.058714501419     0.314383650434     0.000001762808    12.000000000000
         C            1.948663498581    -1.637934349566    -0.000000237192    12.000000000000
         C           -3.430709501419    -0.323786349566    -0.000006237192    12.000000000000
         H            3.524341498581    -0.022391349566    -0.000012237192     1.007825032230
         H            1.063860498581     2.371074650434    -0.883911237192     1.007825032230
         H            1.063905498581     2.371060650434     0.883947762808     1.007825032230
         H            2.611901498581     2.214478650434    -0.000022237192     1.007825032230
         H            2.466253498581    -2.588262349566    -0.000005237192     1.007825032230
         H           -1.693613501419    -1.604126349566    -0.000001237192     1.007825032230
         H           -3.922991501419    -0.724817349566     0.890801762808     1.007825032230
         H           -3.922985501419    -0.724820349566    -0.890816237192     1.007825032230
         H           -3.517081501419     0.762754650434    -0.000009237192     1.007825032230

  Basis Set: AUG-CC-PVTZ
    Blend: AUG-CC-PVTZ
  Basis Set: (AUG-CC-PVTZ AUX)
    Blend: AUG-CC-PVTZ-JKFIT
	 Reference Energy          =    -470.8180223029074796 [Eh]
	 Singles Energy            =      -0.0000000000000000 [Eh]
	 Same-Spin Energy          =      -0.5007871545304019 [Eh]
	 Opposite-Spin Energy      =      -1.5399152352027090 [Eh]
	 Correlation Energy        =      -2.0407023897331111 [Eh]
	 Total Energy              =    -472.8587246926405783 [Eh]

	 ================> DF-SCS-MP2 Energies <==================
	-----------------------------------------------------------
	 SCS Same-Spin Scale       =       0.3333333333333333 [-]
	 SCS Opposite-Spin Scale   =       1.2000000000000000 [-]
	 SCS Same-Spin Energy      =      -0.1669290515101340 [Eh]
	 SCS Opposite-Spin Energy  =      -1.8478982822432508 [Eh]
	 SCS Correlation Energy    =      -2.0148273337533849 [Eh]
	 SCS Total Energy          =    -472.8328496366608533 [Eh]
	-----------------------------------------------------------

  Dipole Moment: [D]
     X:     1.3785      Y:     0.0102      Z:    -0.0000     Total:     1.3785

*** Psi4 exiting successfully. Buy a developer a beer!
