                               Psi4 1.3.2 release

  ==> Input File <==

--------------------------------------------------------------------------
#psi4
#
memory 32 gb

molecule  {
0 1
  O       -1.2482290     1.5306510     0.0000030
  N        1.4640540     0.4968240    -0.0000070
  N        0.6053200    -1.5732460     0.0000100
  N       -1.9984820    -0.6503890    -0.0000010
  C        0.3259400    -0.2627350     0.0000100
  C        2.5213300    -0.3786110    -0.0000100
  C        1.5784275     2.0543695     0.0000026
  C       -1.0383320     0.3066720     0.0000020
  C        1.9690460    -1.6456460     0.0000000
  C       -3.4103270    -0.3314980    -0.0000060
  H        3.5447240    -0.0301030    -0.0000120
  H        1.0842430     2.3633630    -0.8839110
  H        1.0842880     2.3633490     0.8839480
  H        2.6322840     2.2067670    -0.0000220
  H        2.4866360    -2.5959740    -0.0000050
  H       -1.6732310    -1.6118380    -0.0000010
  H       -3.9026090    -0.7325290     0.8908020
  H       -3.9026030    -0.7325320    -0.8908160
  H       -3.4966990     0.7550430    -0.0000090
units angstrom
no_reorient  #important for SAPT in psi4, default
symmetry c1  #important for SAPT in psi4, default
}

set PROPERTIES_ORIGIN ["COM"]
properties('MP2/aug-cc-pvtz', properties = ['dipole'])
--------------------------------------------------------------------------

    Molecular point group: c1
  Charge       = 0
  Multiplicity = 1
  Basis Set: AUG-CC-PVTZ
    Blend: AUG-CC-PVTZ
  Basis Set: (AUG-CC-PVTZ AUX)
    Blend: AUG-CC-PVTZ-JKFIT

    Orbital Energies [Eh]
    ---------------------

    Doubly Occupied:

       1A    -20.521232     2A    -15.633284     3A    -15.583611
       4A    -15.561735     5A    -11.360603     6A    -11.300720
       7A    -11.280245     8A    -11.269076     9A    -11.257522
      10A    -11.252042    11A     -1.379028    12A     -1.337795
      13A     -1.232531    14A     -1.177394    15A     -1.031550
      16A     -0.981504    17A     -0.950030    18A     -0.838384
      19A     -0.808903    20A     -0.770481    21A     -0.725859
      22A     -0.654431    23A     -0.654421    24A     -0.644284
      25A     -0.619776    26A     -0.613731    27A     -0.583271
      28A     -0.581081    29A     -0.572475    30A     -0.564750
      31A     -0.544820    32A     -0.529872    33A     -0.454393
      34A     -0.433622    35A     -0.399306    36A     -0.387403
      37A     -0.319798

  @DF-RHF Final Energy:  -470.82757159245909

   => Energetics <=

    Nuclear Repulsion Energy =            525.2188811225390737
    One-Electron Energy =               -1682.4709867798515006
    Two-Electron Energy =                 686.4245340648532192
    Total Energy =                       -470.8275715924590941
  Basis Set: (AUG-CC-PVTZ AUX)
    Blend: AUG-CC-PVTZ-RI
    Molecular point group: c1

    Geometry (in Angstrom), charge = 0, multiplicity = 1:

       Center              X                  Y                   Z               Mass
    ------------   -----------------  -----------------  -----------------  -----------------
         O           -1.264196462526     1.536305011740     0.000002762808    15.994914619570
         N            1.448086537474     0.502478011740    -0.000007237192    14.003074004430
         N            0.589352537474    -1.567591988260     0.000009762808    14.003074004430
         N           -2.014449462526    -0.644734988260    -0.000001237192    14.003074004430
         C            0.309972537474    -0.257080988260     0.000009762808    12.000000000000
         C            2.505362537474    -0.372956988260    -0.000010237192    12.000000000000
         C            1.562460037474     2.060023511740     0.000002362808    12.000000000000
         C           -1.054299462526     0.312326011740     0.000001762808    12.000000000000
         C            1.953078537474    -1.639991988260    -0.000000237192    12.000000000000
         C           -3.426294462526    -0.325843988260    -0.000006237192    12.000000000000
         H            3.528756537474    -0.024448988260    -0.000012237192     1.007825032230
         H            1.068275537474     2.369017011740    -0.883911237192     1.007825032230
         H            1.068320537474     2.369003011740     0.883947762808     1.007825032230
         H            2.616316537474     2.212421011740    -0.000022237192     1.007825032230
         H            2.470668537474    -2.590319988260    -0.000005237192     1.007825032230
         H           -1.689198462526    -1.606183988260    -0.000001237192     1.007825032230
         H           -3.918576462526    -0.726874988260     0.890801762808     1.007825032230
         H           -3.918570462526    -0.726877988260    -0.890816237192     1.007825032230
         H           -3.512666462526     0.760697011740    -0.000009237192     1.007825032230

  Basis Set: AUG-CC-PVTZ
    Blend: AUG-CC-PVTZ
  Basis Set: (AUG-CC-PVTZ AUX)
    Blend: AUG-CC-PVTZ-JKFIT
	 Reference Energy          =    -470.8275715924590941 [Eh]
	 Singles Energy            =      -0.0000000000000000 [Eh]
	 Same-Spin Energy          =      -0.4990356246234151 [Eh]
	 Opposite-Spin Energy      =      -1.5372927181390683 [Eh]
	 Correlation Energy        =      -2.0363283427624834 [Eh]
	 Total Energy              =    -472.8638999352215819 [Eh]

	 ================> DF-SCS-MP2 Energies <==================
	-----------------------------------------------------------
	 SCS Same-Spin Scale       =       0.3333333333333333 [-]
	 SCS Opposite-Spin Scale   =       1.2000000000000000 [-]
	 SCS Same-Spin Energy      =      -0.1663452082078050 [Eh]
	 SCS Opposite-Spin Energy  =      -1.8447512617668820 [Eh]
	 SCS Correlation Energy    =      -2.0110964699746869 [Eh]
	 SCS Total Energy          =    -472.8386680624337828 [Eh]
	-----------------------------------------------------------

  Dipole Moment: [D]
     X:     1.4475      Y:     0.2733      Z:    -0.0000     Total:     1.4731

*** Psi4 exiting successfully. Buy a developer a beer!
