                               Psi4 1.3.2 release

  ==> Input File <==

--------------------------------------------------------------------------
#psi4
#
memory 32 gb

molecule  {
0 1
  O       -1.2482290     1.5306510     0.0000030
  N        1.4640540     0.4968240    -0.0000070
  N        0.6203585    -1.4310944     0.0000101
  N       -1.9984820    -0.6503890    -0.0000010
  C        0.3259400    -0.2627350     0.0000100
  C        2.5213300    -0.3786110    -0.0000100
  C        1.5711040     1.9546380     0.0000020
  C       -1.0383320     0.3066720     0.0000020
  C        1.9690460    -1.6456460     0.0000000
  C       -3.4103270    -0.3314980    -0.0000060
  H        3.5447240    -0.0301030    -0.0000120
  H        1.0842430     2.3633630    -0.8839110
  H        1.0842880     2.3633490     0.8839480
  H        2.6322840     2.2067670    -0.0000220
  H        2.4866360    -2.5959740    -0.0000050
  H       -1.6732310    -1.6118380    -0.0000010
  H       -3.9026090    -0.7325290     0.8908020
  H       -3.9026030    -0.7325320    -0.8908160
  H       -3.4966990     0.7550430    -0.0000090
units angstrom
no_reorient  #important for SAPT in psi4, default
symmetry c1  #important for SAPT in psi4, default
}

set PROPERTIES_ORIGIN ["COM"]
properties('MP2/aug-cc-pvtz', properties = ['dipole'])
--------------------------------------------------------------------------

    Molecular point group: c1
  Charge       = 0
  Multiplicity = 1
  Basis Set: AUG-CC-PVTZ
    Blend: AUG-CC-PVTZ
  Basis Set: (AUG-CC-PVTZ AUX)
    Blend: AUG-CC-PVTZ-JKFIT

    Orbital Energies [Eh]
    ---------------------

    Doubly Occupied:

       1A    -20.522378     2A    -15.619168     3A    -15.585440
       4A    -15.544362     5A    -11.360371     6A    -11.286643
       7A    -11.273905     8A    -11.267081     9A    -11.258738
      10A    -11.251835    11A     -1.389337    12A     -1.360437
      13A     -1.235878    14A     -1.199470    15A     -1.045021
      16A     -0.969767    17A     -0.950821    18A     -0.841498
      19A     -0.825771    20A     -0.772032    21A     -0.731327
      22A     -0.666778    23A     -0.659174    24A     -0.646024
      25A     -0.618673    26A     -0.615288    27A     -0.591576
      28A     -0.583074    29A     -0.565996    30A     -0.561872
      31A     -0.545883    32A     -0.530551    33A     -0.456524
      34A     -0.417999    35A     -0.401796    36A     -0.388836
      37A     -0.329668

  @DF-RHF Final Energy:  -470.82269011787395

   => Energetics <=

    Nuclear Repulsion Energy =            531.1928314196495649
    One-Electron Energy =               -1694.2890609938465332
    Two-Electron Energy =                 692.2735394563230784
    Total Energy =                       -470.8226901178738899
  Basis Set: (AUG-CC-PVTZ AUX)
    Blend: AUG-CC-PVTZ-RI
    Molecular point group: c1

    Geometry (in Angstrom), charge = 0, multiplicity = 1:

       Center              X                  Y                   Z               Mass
    ------------   -----------------  -----------------  -----------------  -----------------
         O           -1.265078746293     1.530597416018     0.000002804510    15.994914619570
         N            1.447204253707     0.496770416018    -0.000007195490    14.003074004430
         N            0.603508753707    -1.431147983982     0.000009904510    14.003074004430
         N           -2.015331746293    -0.650442583982    -0.000001195490    14.003074004430
         C            0.309090253707    -0.262788583982     0.000009804510    12.000000000000
         C            2.504480253707    -0.378664583982    -0.000010195490    12.000000000000
         C            1.554254253707     1.954584416018     0.000001804510    12.000000000000
         C           -1.055181746293     0.306618416018     0.000001804510    12.000000000000
         C            1.952196253707    -1.645699583982    -0.000000195490    12.000000000000
         C           -3.427176746293    -0.331551583982    -0.000006195490    12.000000000000
         H            3.527874253707    -0.030156583982    -0.000012195490     1.007825032230
         H            1.067393253707     2.363309416018    -0.883911195490     1.007825032230
         H            1.067438253707     2.363295416018     0.883947804510     1.007825032230
         H            2.615434253707     2.206713416018    -0.000022195490     1.007825032230
         H            2.469786253707    -2.596027583982    -0.000005195490     1.007825032230
         H           -1.690080746293    -1.611891583982    -0.000001195490     1.007825032230
         H           -3.919458746293    -0.732582583982     0.890801804510     1.007825032230
         H           -3.919452746293    -0.732585583982    -0.890816195490     1.007825032230
         H           -3.513548746293     0.754989416018    -0.000009195490     1.007825032230

  Basis Set: AUG-CC-PVTZ
    Blend: AUG-CC-PVTZ
  Basis Set: (AUG-CC-PVTZ AUX)
    Blend: AUG-CC-PVTZ-JKFIT
	 Reference Energy          =    -470.8226901178739467 [Eh]
	 Singles Energy            =      -0.0000000000000000 [Eh]
	 Same-Spin Energy          =      -0.4966224169244821 [Eh]
	 Opposite-Spin Energy      =      -1.5313793245048684 [Eh]
	 Correlation Energy        =      -2.0280017414293505 [Eh]
	 Total Energy              =    -472.8506918593033106 [Eh]

	 ================> DF-SCS-MP2 Energies <==================
	-----------------------------------------------------------
	 SCS Same-Spin Scale       =       0.3333333333333333 [-]
	 SCS Opposite-Spin Scale   =       1.2000000000000000 [-]
	 SCS Same-Spin Energy      =      -0.1655408056414940 [Eh]
	 SCS Opposite-Spin Energy  =      -1.8376551894058419 [Eh]
	 SCS Correlation Energy    =      -2.0031959950473359 [Eh]
	 SCS Total Energy          =    -472.8258861129212960 [Eh]
	-----------------------------------------------------------

  Dipole Moment: [D]
     X:     1.1643      Y:    -0.4049      Z:    -0.0000     Total:     1.2327

*** Psi4 exiting successfully. Buy a developer a beer!
