                               Psi4 1.3.2 release

  ==> Input File <==

--------------------------------------------------------------------------
#psi4
#
memory 32 gb

molecule  {
0 1
  O       -1.2482290     1.5306510     0.0000030
  N        1.4640540     0.4968240    -0.0000070
  N        0.6053200    -1.5732460     0.0000100
  N       -1.9293819    -0.7150343    -0.0000005
  C        0.3259400    -0.2627350     0.0000100
  C        2.5213300    -0.3786110    -0.0000100
  C        1.5711040     1.9546380     0.0000020
  C       -1.0383320     0.3066720     0.0000020
  C        1.9690460    -1.6456460     0.0000000
  C       -3.4103270    -0.3314980    -0.0000060
  H        3.5447240    -0.0301030    -0.0000120
  H        1.0842430     2.3633630    -0.8839110
  H        1.0842880     2.3633490     0.8839480
  H        2.6322840     2.2067670    -0.0000220
  H        2.4866360    -2.5959740    -0.0000050
  H       -1.6732310    -1.6118380    -0.0000010
  H       -3.9026090    -0.7325290     0.8908020
  H       -3.9026030    -0.7325320    -0.8908160
  H       -3.4966990     0.7550430    -0.0000090
units angstrom
no_reorient  #important for SAPT in psi4, default
symmetry c1  #important for SAPT in psi4, default
}

set PROPERTIES_ORIGIN ["COM"]
properties('MP2/aug-cc-pvtz', properties = ['dipole'])
--------------------------------------------------------------------------

    Molecular point group: c1
  Charge       = 0
  Multiplicity = 1
  Basis Set: AUG-CC-PVTZ
    Blend: AUG-CC-PVTZ
  Basis Set: (AUG-CC-PVTZ AUX)
    Blend: AUG-CC-PVTZ-JKFIT

    Orbital Energies [Eh]
    ---------------------

    Doubly Occupied:

       1A    -20.526827     2A    -15.634874     3A    -15.581978
       4A    -15.562112     5A    -11.364165     6A    -11.300510
       7A    -11.273899     8A    -11.269829     9A    -11.265802
      10A    -11.253121    11A     -1.381673    12A     -1.344278
      13A     -1.235865    14A     -1.187442    15A     -1.031343
      16A     -0.976671    17A     -0.946674    18A     -0.851127
      19A     -0.814418    20A     -0.786398    21A     -0.733033
      22A     -0.657322    23A     -0.654323    24A     -0.640394
      25A     -0.612891    26A     -0.600524    27A     -0.594095
      28A     -0.575541    29A     -0.562077    30A     -0.559717
      31A     -0.554616    32A     -0.532230    33A     -0.455497
      34A     -0.434306    35A     -0.403397    36A     -0.390329
      37A     -0.320475

  @DF-RHF Final Energy:  -470.82313174013404

   => Energetics <=

    Nuclear Repulsion Energy =            527.0774619198539312
    One-Electron Energy =               -1686.0616394629771548
    Two-Electron Energy =                 688.1610458029891788
    Total Energy =                       -470.8231317401340448
  Basis Set: (AUG-CC-PVTZ AUX)
    Blend: AUG-CC-PVTZ-RI
    Molecular point group: c1

    Geometry (in Angstrom), charge = 0, multiplicity = 1:

       Center              X                  Y                   Z               Mass
    ------------   -----------------  -----------------  -----------------  -----------------
         O           -1.270522075218     1.551419284910     0.000002764235    15.994914619570
         N            1.441760924782     0.517592284910    -0.000007235765    14.003074004430
         N            0.583026924782    -1.552477715090     0.000009764235    14.003074004430
         N           -1.951674975218    -0.694266015090    -0.000000735765    14.003074004430
         C            0.303646924782    -0.241966715090     0.000009764235    12.000000000000
         C            2.499036924782    -0.357842715090    -0.000010235765    12.000000000000
         C            1.548810924782     1.975406284910     0.000001764235    12.000000000000
         C           -1.060625075218     0.327440284910     0.000001764235    12.000000000000
         C            1.946752924782    -1.624877715090    -0.000000235765    12.000000000000
         C           -3.432620075218    -0.310729715090    -0.000006235765    12.000000000000
         H            3.522430924782    -0.009334715090    -0.000012235765     1.007825032230
         H            1.061949924782     2.384131284910    -0.883911235765     1.007825032230
         H            1.061994924782     2.384117284910     0.883947764235     1.007825032230
         H            2.609990924782     2.227535284910    -0.000022235765     1.007825032230
         H            2.464342924782    -2.575205715090    -0.000005235765     1.007825032230
         H           -1.695524075218    -1.591069715090    -0.000001235765     1.007825032230
         H           -3.924902075218    -0.711760715090     0.890801764235     1.007825032230
         H           -3.924896075218    -0.711763715090    -0.890816235765     1.007825032230
         H           -3.518992075218     0.775811284910    -0.000009235765     1.007825032230

  Basis Set: AUG-CC-PVTZ
    Blend: AUG-CC-PVTZ
  Basis Set: (AUG-CC-PVTZ AUX)
    Blend: AUG-CC-PVTZ-JKFIT
	 Reference Energy          =    -470.8231317401340448 [Eh]
	 Singles Energy            =      -0.0000000000000000 [Eh]
	 Same-Spin Energy          =      -0.4987992861928804 [Eh]
	 Opposite-Spin Energy      =      -1.5370931126928791 [Eh]
	 Correlation Energy        =      -2.0358923988857596 [Eh]
	 Total Energy              =    -472.8590241390198230 [Eh]

	 ================> DF-SCS-MP2 Energies <==================
	-----------------------------------------------------------
	 SCS Same-Spin Scale       =       0.3333333333333333 [-]
	 SCS Opposite-Spin Scale   =       1.2000000000000000 [-]
	 SCS Same-Spin Energy      =      -0.1662664287309601 [Eh]
	 SCS Opposite-Spin Energy  =      -1.8445117352314548 [Eh]
	 SCS Correlation Energy    =      -2.0107781639624149 [Eh]
	 SCS Total Energy          =    -472.8339099040964584 [Eh]
	-----------------------------------------------------------

  Dipole Moment: [D]
     X:     1.1338      Y:     0.1267      Z:    -0.0000     Total:     1.1409

*** Psi4 exiting successfully. Buy a developer a beer!
