                               Psi4 1.3.2 release

  ==> Input File <==

--------------------------------------------------------------------------
#psi4
#
memory 32 gb

molecule  {
0 1
  O       -1.2482290     1.5306510     0.0000030
  N        1.3784238     0.6116284    -0.0000062
  N        0.6053200    -1.5732460     0.0000100
  N       -1.9984820    -0.6503890    -0.0000010
  C        0.3259400    -0.2627350     0.0000100
  C        2.5213300    -0.3786110    -0.0000100
  C        1.5711040     1.9546380     0.0000020
  C       -1.0383320     0.3066720     0.0000020
  C        1.9690460    -1.6456460     0.0000000
  C       -3.4103270    -0.3314980    -0.0000060
  H        3.5447240    -0.0301030    -0.0000120
  H        1.0842430     2.3633630    -0.8839110
  H        1.0842880     2.3633490     0.8839480
  H        2.6322840     2.2067670    -0.0000220
  H        2.4866360    -2.5959740    -0.0000050
  H       -1.6732310    -1.6118380    -0.0000010
  H       -3.9026090    -0.7325290     0.8908020
  H       -3.9026030    -0.7325320    -0.8908160
  H       -3.4966990     0.7550430    -0.0000090
units angstrom
no_reorient  #important for SAPT in psi4, default
symmetry c1  #important for SAPT in psi4, default
}

set PROPERTIES_ORIGIN ["COM"]
properties('MP2/aug-cc-pvtz', properties = ['dipole'])
--------------------------------------------------------------------------

    Molecular point group: c1
  Charge       = 0
  Multiplicity = 1
  Basis Set: AUG-CC-PVTZ
    Blend: AUG-CC-PVTZ
  Basis Set: (AUG-CC-PVTZ AUX)
    Blend: AUG-CC-PVTZ-JKFIT

    Orbital Energies [Eh]
    ---------------------

    Doubly Occupied:

       1A    -20.524846     2A    -15.635346     3A    -15.586207
       4A    -15.566548     5A    -11.361107     6A    -11.319465
       7A    -11.279399     8A    -11.266942     9A    -11.263373
      10A    -11.258975    11A     -1.382808    12A     -1.333238
      13A     -1.237337    14A     -1.206043    15A     -1.029668
      16A     -0.985701    17A     -0.952343    18A     -0.838982
      19A     -0.811622    20A     -0.774213    21A     -0.731820
      22A     -0.660710    23A     -0.652252    24A     -0.646633
      25A     -0.625735    26A     -0.620702    27A     -0.611038
      28A     -0.581227    29A     -0.557010    30A     -0.546781
      31A     -0.532346    32A     -0.524941    33A     -0.462141
      34A     -0.433726    35A     -0.394295    36A     -0.384528
      37A     -0.329477

  @DF-RHF Final Energy:  -470.80568801927689

   => Energetics <=

    Nuclear Repulsion Energy =            526.8509041185685646
    One-Electron Energy =               -1685.4941348774007110
    Two-Electron Energy =                 687.8375427395551469
    Total Energy =                       -470.8056880192768858
  Basis Set: (AUG-CC-PVTZ AUX)
    Blend: AUG-CC-PVTZ-RI
    Molecular point group: c1

    Geometry (in Angstrom), charge = 0, multiplicity = 1:

       Center              X                  Y                   Z               Mass
    ------------   -----------------  -----------------  -----------------  -----------------
         O           -1.254942663630     1.533350938015     0.000002734028    15.994914619570
         N            1.371710136370     0.614328338015    -0.000006465972    14.003074004430
         N            0.598606336370    -1.570546061985     0.000009734028    14.003074004430
         N           -2.005195663630    -0.647689061985    -0.000001265972    14.003074004430
         C            0.319226336370    -0.260035061985     0.000009734028    12.000000000000
         C            2.514616336370    -0.375911061985    -0.000010265972    12.000000000000
         C            1.564390336370     1.957337938015     0.000001734028    12.000000000000
         C           -1.045045663630     0.309371938015     0.000001734028    12.000000000000
         C            1.962332336370    -1.642946061985    -0.000000265972    12.000000000000
         C           -3.417040663630    -0.328798061985    -0.000006265972    12.000000000000
         H            3.538010336370    -0.027403061985    -0.000012265972     1.007825032230
         H            1.077529336370     2.366062938015    -0.883911265972     1.007825032230
         H            1.077574336370     2.366048938015     0.883947734028     1.007825032230
         H            2.625570336370     2.209466938015    -0.000022265972     1.007825032230
         H            2.479922336370    -2.593274061985    -0.000005265972     1.007825032230
         H           -1.679944663630    -1.609138061985    -0.000001265972     1.007825032230
         H           -3.909322663630    -0.729829061985     0.890801734028     1.007825032230
         H           -3.909316663630    -0.729832061985    -0.890816265972     1.007825032230
         H           -3.503412663630     0.757742938015    -0.000009265972     1.007825032230

  Basis Set: AUG-CC-PVTZ
    Blend: AUG-CC-PVTZ
  Basis Set: (AUG-CC-PVTZ AUX)
    Blend: AUG-CC-PVTZ-JKFIT
	 Reference Energy          =    -470.8056880192768858 [Eh]
	 Singles Energy            =      -0.0000000000000000 [Eh]
	 Same-Spin Energy          =      -0.5002578236584635 [Eh]
	 Opposite-Spin Energy      =      -1.5407549449786251 [Eh]
	 Correlation Energy        =      -2.0410127686370885 [Eh]
	 Total Energy              =    -472.8467007879139601 [Eh]

	 ================> DF-SCS-MP2 Energies <==================
	-----------------------------------------------------------
	 SCS Same-Spin Scale       =       0.3333333333333333 [-]
	 SCS Opposite-Spin Scale   =       1.2000000000000000 [-]
	 SCS Same-Spin Energy      =      -0.1667526078861545 [Eh]
	 SCS Opposite-Spin Energy  =      -1.8489059339743501 [Eh]
	 SCS Correlation Energy    =      -2.0156585418605046 [Eh]
	 SCS Total Energy          =    -472.8213465611373749 [Eh]
	-----------------------------------------------------------

  Dipole Moment: [D]
     X:     1.3548      Y:    -0.3086      Z:    -0.0000     Total:     1.3895

*** Psi4 exiting successfully. Buy a developer a beer!
