                               Psi4 1.3.2 release

  ==> Input File <==

--------------------------------------------------------------------------
#psi4
#
memory 32 gb

molecule  {
0 1
  O       -1.2482290     1.5306510     0.0000030
  N        1.4640540     0.4968240    -0.0000070
  N        0.6053200    -1.5732460     0.0000100
  N       -1.9984820    -0.6503890    -0.0000010
  C        0.4180372    -0.2464388     0.0000093
  C        2.5213300    -0.3786110    -0.0000100
  C        1.5711040     1.9546380     0.0000020
  C       -1.0383320     0.3066720     0.0000020
  C        1.9690460    -1.6456460     0.0000000
  C       -3.4103270    -0.3314980    -0.0000060
  H        3.5447240    -0.0301030    -0.0000120
  H        1.0842430     2.3633630    -0.8839110
  H        1.0842880     2.3633490     0.8839480
  H        2.6322840     2.2067670    -0.0000220
  H        2.4866360    -2.5959740    -0.0000050
  H       -1.6732310    -1.6118380    -0.0000010
  H       -3.9026090    -0.7325290     0.8908020
  H       -3.9026030    -0.7325320    -0.8908160
  H       -3.4966990     0.7550430    -0.0000090
units angstrom
no_reorient  #important for SAPT in psi4, default
symmetry c1  #important for SAPT in psi4, default
}

set PROPERTIES_ORIGIN ["COM"]
properties('MP2/aug-cc-pvtz', properties = ['dipole'])
--------------------------------------------------------------------------

    Molecular point group: c1
  Charge       = 0
  Multiplicity = 1
  Basis Set: AUG-CC-PVTZ
    Blend: AUG-CC-PVTZ
  Basis Set: (AUG-CC-PVTZ AUX)
    Blend: AUG-CC-PVTZ-JKFIT

    Orbital Energies [Eh]
    ---------------------

    Doubly Occupied:

       1A    -20.522163     2A    -15.638728     3A    -15.585907
       4A    -15.557087     5A    -11.364953     6A    -11.303853
       7A    -11.280290     8A    -11.263969     9A    -11.258938
      10A    -11.255265    11A     -1.388238    12A     -1.361658
      13A     -1.233302    14A     -1.197108    15A     -1.028320
      16A     -0.988239    17A     -0.953624    18A     -0.829203
      19A     -0.818945    20A     -0.771493    21A     -0.739406
      22A     -0.666684    23A     -0.654945    24A     -0.643666
      25A     -0.619585    26A     -0.605032    27A     -0.604092
      28A     -0.575186    29A     -0.563705    30A     -0.562429
      31A     -0.545797    32A     -0.531158    33A     -0.461278
      34A     -0.427783    35A     -0.401167    36A     -0.389671
      37A     -0.323703

  @DF-RHF Final Energy:  -470.82804825440957

   => Energetics <=

    Nuclear Repulsion Energy =            527.6541189149498905
    One-Electron Energy =               -1687.1311991868360565
    Two-Electron Energy =                 688.6490320174766566
    Total Energy =                       -470.8280482544096230
  Basis Set: (AUG-CC-PVTZ AUX)
    Blend: AUG-CC-PVTZ-RI
    Molecular point group: c1

    Geometry (in Angstrom), charge = 0, multiplicity = 1:

       Center              X                  Y                   Z               Mass
    ------------   -----------------  -----------------  -----------------  -----------------
         O           -1.271511131621     1.543504197459     0.000002874978    15.994914619570
         N            1.440771868379     0.509677197459    -0.000007125022    14.003074004430
         N            0.582037868379    -1.560392802541     0.000009874978    14.003074004430
         N           -2.021764131621    -0.637535802541    -0.000001125022    14.003074004430
         C            0.394755068379    -0.233585602541     0.000009174978    12.000000000000
         C            2.498047868379    -0.365757802541    -0.000010125022    12.000000000000
         C            1.547821868379     1.967491197459     0.000001874978    12.000000000000
         C           -1.061614131621     0.319525197459     0.000001874978    12.000000000000
         C            1.945763868379    -1.632792802541    -0.000000125022    12.000000000000
         C           -3.433609131621    -0.318644802541    -0.000006125022    12.000000000000
         H            3.521441868379    -0.017249802541    -0.000012125022     1.007825032230
         H            1.060960868379     2.376216197459    -0.883911125022     1.007825032230
         H            1.061005868379     2.376202197459     0.883947874978     1.007825032230
         H            2.609001868379     2.219620197459    -0.000022125022     1.007825032230
         H            2.463353868379    -2.583120802541    -0.000005125022     1.007825032230
         H           -1.696513131621    -1.598984802541    -0.000001125022     1.007825032230
         H           -3.925891131621    -0.719675802541     0.890801874978     1.007825032230
         H           -3.925885131621    -0.719678802541    -0.890816125022     1.007825032230
         H           -3.519981131621     0.767896197459    -0.000009125022     1.007825032230

  Basis Set: AUG-CC-PVTZ
    Blend: AUG-CC-PVTZ
  Basis Set: (AUG-CC-PVTZ AUX)
    Blend: AUG-CC-PVTZ-JKFIT
	 Reference Energy          =    -470.8280482544095662 [Eh]
	 Singles Energy            =      -0.0000000000000000 [Eh]
	 Same-Spin Energy          =      -0.4977654932218656 [Eh]
	 Opposite-Spin Energy      =      -1.5345910936454135 [Eh]
	 Correlation Energy        =      -2.0323565868672793 [Eh]
	 Total Energy              =    -472.8604048412768179 [Eh]

	 ================> DF-SCS-MP2 Energies <==================
	-----------------------------------------------------------
	 SCS Same-Spin Scale       =       0.3333333333333333 [-]
	 SCS Opposite-Spin Scale   =       1.2000000000000000 [-]
	 SCS Same-Spin Energy      =      -0.1659218310739552 [Eh]
	 SCS Opposite-Spin Energy  =      -1.8415093123744961 [Eh]
	 SCS Correlation Energy    =      -2.0074311434484513 [Eh]
	 SCS Total Energy          =    -472.8354793978580233 [Eh]
	-----------------------------------------------------------

  Dipole Moment: [D]
     X:     1.2786      Y:     0.1931      Z:    -0.0000     Total:     1.2931

*** Psi4 exiting successfully. Buy a developer a beer!
