                               Psi4 1.3.2 release

  ==> Input File <==

--------------------------------------------------------------------------
#psi4
#
memory 32 gb

molecule  {
0 1
  O       -1.2482290     1.5306510     0.0000030
  N        1.4055622     0.4209396    -0.0000062
  N        0.6053200    -1.5732460     0.0000100
  N       -1.9984820    -0.6503890    -0.0000010
  C        0.3259400    -0.2627350     0.0000100
  C        2.5213300    -0.3786110    -0.0000100
  C        1.5711040     1.9546380     0.0000020
  C       -1.0383320     0.3066720     0.0000020
  C        1.9690460    -1.6456460     0.0000000
  C       -3.4103270    -0.3314980    -0.0000060
  H        3.5447240    -0.0301030    -0.0000120
  H        1.0842430     2.3633630    -0.8839110
  H        1.0842880     2.3633490     0.8839480
  H        2.6322840     2.2067670    -0.0000220
  H        2.4866360    -2.5959740    -0.0000050
  H       -1.6732310    -1.6118380    -0.0000010
  H       -3.9026090    -0.7325290     0.8908020
  H       -3.9026030    -0.7325320    -0.8908160
  H       -3.4966990     0.7550430    -0.0000090
units angstrom
no_reorient  #important for SAPT in psi4, default
symmetry c1  #important for SAPT in psi4, default
}

set PROPERTIES_ORIGIN ["COM"]
properties('MP2/aug-cc-pvtz', properties = ['dipole'])
--------------------------------------------------------------------------

    Molecular point group: c1
  Charge       = 0
  Multiplicity = 1
  Basis Set: AUG-CC-PVTZ
    Blend: AUG-CC-PVTZ
  Basis Set: (AUG-CC-PVTZ AUX)
    Blend: AUG-CC-PVTZ-JKFIT

    Orbital Energies [Eh]
    ---------------------

    Doubly Occupied:

       1A    -20.523413     2A    -15.636951     3A    -15.585511
       4A    -15.551997     5A    -11.362903     6A    -11.295249
       7A    -11.283661     8A    -11.264640     9A    -11.258612
      10A    -11.253848    11A     -1.388854    12A     -1.358809
      13A     -1.234329    14A     -1.176375    15A     -1.041436
      16A     -0.974339    17A     -0.957737    18A     -0.840389
      19A     -0.818956    20A     -0.771616    21A     -0.733368
      22A     -0.663878    23A     -0.659823    24A     -0.645815
      25A     -0.618640    26A     -0.602860    27A     -0.597700
      28A     -0.579796    29A     -0.566001    30A     -0.555404
      31A     -0.545884    32A     -0.532212    33A     -0.450347
      34A     -0.433728    35A     -0.397859    36A     -0.387750
      37A     -0.326332

  @DF-RHF Final Energy:  -470.82521680222789

   => Energetics <=

    Nuclear Repulsion Energy =            528.6667101893475547
    One-Electron Energy =               -1689.2298092228693349
    Two-Electron Energy =                 689.7378822312938382
    Total Energy =                       -470.8252168022278283
  Basis Set: (AUG-CC-PVTZ AUX)
    Blend: AUG-CC-PVTZ-RI
    Molecular point group: c1

    Geometry (in Angstrom), charge = 0, multiplicity = 1:

       Center              X                  Y                   Z               Mass
    ------------   -----------------  -----------------  -----------------  -----------------
         O           -1.257675162070     1.552550922119     0.000002734028    15.994914619570
         N            1.396116037930     0.442839522119    -0.000006465972    14.003074004430
         N            0.595873837930    -1.551346077881     0.000009734028    14.003074004430
         N           -2.007928162070    -0.628489077881    -0.000001265972    14.003074004430
         C            0.316493837930    -0.240835077881     0.000009734028    12.000000000000
         C            2.511883837930    -0.356711077881    -0.000010265972    12.000000000000
         C            1.561657837930     1.976537922119     0.000001734028    12.000000000000
         C           -1.047778162070     0.328571922119     0.000001734028    12.000000000000
         C            1.959599837930    -1.623746077881    -0.000000265972    12.000000000000
         C           -3.419773162070    -0.309598077881    -0.000006265972    12.000000000000
         H            3.535277837930    -0.008203077881    -0.000012265972     1.007825032230
         H            1.074796837930     2.385262922119    -0.883911265972     1.007825032230
         H            1.074841837930     2.385248922119     0.883947734028     1.007825032230
         H            2.622837837930     2.228666922119    -0.000022265972     1.007825032230
         H            2.477189837930    -2.574074077881    -0.000005265972     1.007825032230
         H           -1.682677162070    -1.589938077881    -0.000001265972     1.007825032230
         H           -3.912055162070    -0.710629077881     0.890801734028     1.007825032230
         H           -3.912049162070    -0.710632077881    -0.890816265972     1.007825032230
         H           -3.506145162070     0.776942922119    -0.000009265972     1.007825032230

  Basis Set: AUG-CC-PVTZ
    Blend: AUG-CC-PVTZ
  Basis Set: (AUG-CC-PVTZ AUX)
    Blend: AUG-CC-PVTZ-JKFIT
	 Reference Energy          =    -470.8252168022278852 [Eh]
	 Singles Energy            =      -0.0000000000000000 [Eh]
	 Same-Spin Energy          =      -0.4987300706538800 [Eh]
	 Opposite-Spin Energy      =      -1.5359845325525119 [Eh]
	 Correlation Energy        =      -2.0347146032063921 [Eh]
	 Total Energy              =    -472.8599314054342813 [Eh]

	 ================> DF-SCS-MP2 Energies <==================
	-----------------------------------------------------------
	 SCS Same-Spin Scale       =       0.3333333333333333 [-]
	 SCS Opposite-Spin Scale   =       1.2000000000000000 [-]
	 SCS Same-Spin Energy      =      -0.1662433568846267 [Eh]
	 SCS Opposite-Spin Energy  =      -1.8431814390630141 [Eh]
	 SCS Correlation Energy    =      -2.0094247959476408 [Eh]
	 SCS Total Energy          =    -472.8346415981755513 [Eh]
	-----------------------------------------------------------

  Dipole Moment: [D]
     X:     1.3929      Y:     0.2602      Z:    -0.0000     Total:     1.4170

*** Psi4 exiting successfully. Buy a developer a beer!
