                               Psi4 1.4a3.dev225

  ==> Input File <==

--------------------------------------------------------------------------
#psi4
#
memory 32 gb

molecule  {
0 1
  O       -1.2482290     1.5306510     0.0000030
  N        1.4640540     0.4968240    -0.0000070
  N        0.6053200    -1.5732460     0.0000100
  N       -1.9984820    -0.6503890    -0.0000010
  C        0.3259400    -0.2627350     0.0000100
  C        2.5213300    -0.3786110    -0.0000100
  C        1.5711040     1.9546380     0.0000020
  C       -1.0844743     0.3259304     0.0000017
  C        1.9690460    -1.6456460     0.0000000
  C       -3.4103270    -0.3314980    -0.0000060
  H        3.5447240    -0.0301030    -0.0000120
  H        1.0842430     2.3633630    -0.8839110
  H        1.0842880     2.3633490     0.8839480
  H        2.6322840     2.2067670    -0.0000220
  H        2.4866360    -2.5959740    -0.0000050
  H       -1.6732310    -1.6118380    -0.0000010
  H       -3.9026090    -0.7325290     0.8908020
  H       -3.9026030    -0.7325320    -0.8908160
  H       -3.4966990     0.7550430    -0.0000090
units angstrom
no_reorient  #important for SAPT in psi4, default
symmetry c1  #important for SAPT in psi4, default
}

set PROPERTIES_ORIGIN ["COM"]
properties('MP2/aug-cc-pvtz', properties = ['dipole'])
--------------------------------------------------------------------------

    Molecular point group: c1
  Charge       = 0
  Multiplicity = 1
  Basis Set: AUG-CC-PVTZ
    Blend: AUG-CC-PVTZ
  Basis Set: (AUG-CC-PVTZ AUX)
    Blend: AUG-CC-PVTZ-JKFIT

    Orbital Energies [Eh]
    ---------------------

    Doubly Occupied:

       1A    -20.526284     2A    -15.633527     3A    -15.587449
       4A    -15.560466     5A    -11.362828     6A    -11.303348
       7A    -11.273517     8A    -11.267811     9A    -11.260286
      10A    -11.251605    11A     -1.395891    12A     -1.345671
      13A     -1.244716    14A     -1.187760    15A     -1.027961
      16A     -0.976668    17A     -0.951571    18A     -0.831028
      19A     -0.810203    20A     -0.780695    21A     -0.732275
      22A     -0.659964    23A     -0.654240    24A     -0.651348
      25A     -0.623843    26A     -0.602980    27A     -0.593792
      28A     -0.583016    29A     -0.561475    30A     -0.559075
      31A     -0.550287    32A     -0.537177    33A     -0.455449
      34A     -0.432179    35A     -0.401521    36A     -0.389936
      37A     -0.319421

  @DF-RHF Final Energy:  -470.83567583423104

   => Energetics <=

    Nuclear Repulsion Energy =            526.9994046295662429
    One-Electron Energy =               -1685.8956318797645508
    Two-Electron Energy =                 688.0605514159673248
    Total Energy =                       -470.8356758342309831
  Basis Set: (AUG-CC-PVTZ AUX)
    Blend: AUG-CC-PVTZ-RI
    Molecular point group: c1

    Geometry (in Angstrom), charge = 0, multiplicity = 1:

       Center              X                  Y                   Z               Mass
    ------------   -----------------  -----------------  -----------------  -----------------
         O           -1.259583184647     1.543248605066     0.000002840464    15.994914619570
         N            1.452699815353     0.509421605066    -0.000007159536    14.003074004430
         N            0.593965815353    -1.560648394934     0.000009840464    14.003074004430
         N           -2.009836184647    -0.637791394934    -0.000001159536    14.003074004430
         C            0.314585815353    -0.250137394934     0.000009840464    12.000000000000
         C            2.509975815353    -0.366013394934    -0.000010159536    12.000000000000
         C            1.559749815353     1.967235605066     0.000001840464    12.000000000000
         C           -1.095828484647     0.338528005066     0.000001540464    12.000000000000
         C            1.957691815353    -1.633048394934    -0.000000159536    12.000000000000
         C           -3.421681184647    -0.318900394934    -0.000006159536    12.000000000000
         H            3.533369815353    -0.017505394934    -0.000012159536     1.007825032230
         H            1.072888815353     2.375960605066    -0.883911159536     1.007825032230
         H            1.072933815353     2.375946605066     0.883947840464     1.007825032230
         H            2.620929815353     2.219364605066    -0.000022159536     1.007825032230
         H            2.475281815353    -2.583376394934    -0.000005159536     1.007825032230
         H           -1.684585184647    -1.599240394934    -0.000001159536     1.007825032230
         H           -3.913963184647    -0.719931394934     0.890801840464     1.007825032230
         H           -3.913957184647    -0.719934394934    -0.890816159536     1.007825032230
         H           -3.508053184647     0.767640605066    -0.000009159536     1.007825032230

  Basis Set: AUG-CC-PVTZ
    Blend: AUG-CC-PVTZ
  Basis Set: (AUG-CC-PVTZ AUX)
    Blend: AUG-CC-PVTZ-JKFIT
	 Reference Energy          =    -470.8356758342310400 [Eh]
	 Singles Energy            =      -0.0000000000000000 [Eh]
	 Same-Spin Energy          =      -0.4982541815220707 [Eh]
	 Opposite-Spin Energy      =      -1.5351912040724682 [Eh]
	 Correlation Energy        =      -2.0334453855945389 [Eh]
	 Total Energy              =    -472.8691212198255585 [Eh]

	 ================> DF-SCS-MP2 Energies <==================
	-----------------------------------------------------------
	 SCS Same-Spin Scale       =       0.3333333333333333 [-]
	 SCS Opposite-Spin Scale   =       1.2000000000000000 [-]
	 SCS Same-Spin Energy      =      -0.1660847271740236 [Eh]
	 SCS Opposite-Spin Energy  =      -1.8422294448869618 [Eh]
	 SCS Correlation Energy    =      -2.0083141720609854 [Eh]
	 SCS Total Energy          =    -472.8439900062920174 [Eh]
	-----------------------------------------------------------

  Dipole Moment: [D]
     X:     1.0281      Y:     0.1287      Z:    -0.0000     Total:     1.0361

*** Psi4 exiting successfully. Buy a developer a beer!
