                               Psi4 1.3.2 release

  ==> Input File <==

--------------------------------------------------------------------------
#psi4
#
memory 32 gb

molecule  {
0 1
  O       -1.2482290     1.5306510     0.0000030
  N        1.4640540     0.4968240    -0.0000070
  N        0.6035916    -1.6685511     0.0000105
  N       -1.9984820    -0.6503890    -0.0000010
  C        0.3259400    -0.2627350     0.0000100
  C        2.5213300    -0.3786110    -0.0000100
  C        1.5711040     1.9546380     0.0000020
  C       -1.0383320     0.3066720     0.0000020
  C        1.9690460    -1.6456460     0.0000000
  C       -3.4103270    -0.3314980    -0.0000060
  H        3.5447240    -0.0301030    -0.0000120
  H        1.0842430     2.3633630    -0.8839110
  H        1.0842880     2.3633490     0.8839480
  H        2.6322840     2.2067670    -0.0000220
  H        2.4866360    -2.5959740    -0.0000050
  H       -1.6732310    -1.6118380    -0.0000010
  H       -3.9026090    -0.7325290     0.8908020
  H       -3.9026030    -0.7325320    -0.8908160
  H       -3.4966990     0.7550430    -0.0000090
units angstrom
no_reorient  #important for SAPT in psi4, default
symmetry c1  #important for SAPT in psi4, default
}

set PROPERTIES_ORIGIN ["COM"]
properties('MP2/aug-cc-pvtz', properties = ['dipole'])
--------------------------------------------------------------------------

    Molecular point group: c1
  Charge       = 0
  Multiplicity = 1
  Basis Set: AUG-CC-PVTZ
    Blend: AUG-CC-PVTZ
  Basis Set: (AUG-CC-PVTZ AUX)
    Blend: AUG-CC-PVTZ-JKFIT

    Orbital Energies [Eh]
    ---------------------

    Doubly Occupied:

       1A    -20.522179     2A    -15.649496     3A    -15.584737
       4A    -15.577527     5A    -11.362847     6A    -11.314590
       7A    -11.279475     8A    -11.271520     9A    -11.258429
      10A    -11.258211    11A     -1.380293    12A     -1.340468
      13A     -1.233833    14A     -1.183608    15A     -1.030836
      16A     -0.986468    17A     -0.949872    18A     -0.841805
      19A     -0.806896    20A     -0.773332    21A     -0.736590
      22A     -0.657450    23A     -0.656373    24A     -0.645283
      25A     -0.619507    26A     -0.602510    27A     -0.595946
      28A     -0.582290    29A     -0.559538    30A     -0.557516
      31A     -0.545324    32A     -0.529742    33A     -0.462858
      34A     -0.435974    35A     -0.399052    36A     -0.389937
      37A     -0.317263

  @DF-RHF Final Energy:  -470.81921946735076

   => Energetics <=

    Nuclear Repulsion Energy =            524.6189323163245035
    One-Electron Energy =               -1681.0771527687841171
    Two-Electron Energy =                 685.6390009851087370
    Total Energy =                       -470.8192194673507629
  Basis Set: (AUG-CC-PVTZ AUX)
    Blend: AUG-CC-PVTZ-RI
    Molecular point group: c1

    Geometry (in Angstrom), charge = 0, multiplicity = 1:

       Center              X                  Y                   Z               Mass
    ------------   -----------------  -----------------  -----------------  -----------------
         O           -1.263390528561     1.554506344416     0.000002764235    15.994914619570
         N            1.448892471439     0.520679344416    -0.000007235765    14.003074004430
         N            0.588430071439    -1.644695755584     0.000010264235    14.003074004430
         N           -2.013643528561    -0.626533655584    -0.000001235765    14.003074004430
         C            0.310778471439    -0.238879655584     0.000009764235    12.000000000000
         C            2.506168471439    -0.354755655584    -0.000010235765    12.000000000000
         C            1.555942471439     1.978493344416     0.000001764235    12.000000000000
         C           -1.053493528561     0.330527344416     0.000001764235    12.000000000000
         C            1.953884471439    -1.621790655584    -0.000000235765    12.000000000000
         C           -3.425488528561    -0.307642655584    -0.000006235765    12.000000000000
         H            3.529562471439    -0.006247655584    -0.000012235765     1.007825032230
         H            1.069081471439     2.387218344416    -0.883911235765     1.007825032230
         H            1.069126471439     2.387204344416     0.883947764235     1.007825032230
         H            2.617122471439     2.230622344416    -0.000022235765     1.007825032230
         H            2.471474471439    -2.572118655584    -0.000005235765     1.007825032230
         H           -1.688392528561    -1.587982655584    -0.000001235765     1.007825032230
         H           -3.917770528561    -0.708673655584     0.890801764235     1.007825032230
         H           -3.917764528561    -0.708676655584    -0.890816235765     1.007825032230
         H           -3.511860528561     0.778898344416    -0.000009235765     1.007825032230

  Basis Set: AUG-CC-PVTZ
    Blend: AUG-CC-PVTZ
  Basis Set: (AUG-CC-PVTZ AUX)
    Blend: AUG-CC-PVTZ-JKFIT
	 Reference Energy          =    -470.8192194673507629 [Eh]
	 Singles Energy            =      -0.0000000000000000 [Eh]
	 Same-Spin Energy          =      -0.5015731446208774 [Eh]
	 Opposite-Spin Energy      =      -1.5420799484256915 [Eh]
	 Correlation Energy        =      -2.0436530930465691 [Eh]
	 Total Energy              =    -472.8628725603973066 [Eh]

	 ================> DF-SCS-MP2 Energies <==================
	-----------------------------------------------------------
	 SCS Same-Spin Scale       =       0.3333333333333333 [-]
	 SCS Opposite-Spin Scale   =       1.2000000000000000 [-]
	 SCS Same-Spin Energy      =      -0.1671910482069591 [Eh]
	 SCS Opposite-Spin Energy  =      -1.8504959381108297 [Eh]
	 SCS Correlation Energy    =      -2.0176869863177886 [Eh]
	 SCS Total Energy          =    -472.8369064536685755 [Eh]
	-----------------------------------------------------------

  Dipole Moment: [D]
     X:     1.5061      Y:     0.2282      Z:    -0.0000     Total:     1.5233

*** Psi4 exiting successfully. Buy a developer a beer!
