                               Psi4 1.4a3.dev225

  ==> Input File <==

--------------------------------------------------------------------------
#psi4
#
memory 32 gb

molecule  {
0 1
  O       -1.2482290     1.5306510     0.0000030
  N        1.4640540     0.4968240    -0.0000070
  N        0.6053200    -1.5732460     0.0000100
  N       -1.9984820    -0.6503890    -0.0000010
  C        0.3425755    -0.2516327     0.0000098
  C        2.5213300    -0.3786110    -0.0000100
  C        1.5711040     1.9546380     0.0000020
  C       -1.0383320     0.3066720     0.0000020
  C        1.9690460    -1.6456460     0.0000000
  C       -3.4103270    -0.3314980    -0.0000060
  H        3.5447240    -0.0301030    -0.0000120
  H        1.0842430     2.3633630    -0.8839110
  H        1.0842880     2.3633490     0.8839480
  H        2.6322840     2.2067670    -0.0000220
  H        2.4866360    -2.5959740    -0.0000050
  H       -1.6732310    -1.6118380    -0.0000010
  H       -3.9026090    -0.7325290     0.8908020
  H       -3.9026030    -0.7325320    -0.8908160
  H       -3.4966990     0.7550430    -0.0000090
units angstrom
no_reorient  #important for SAPT in psi4, default
symmetry c1  #important for SAPT in psi4, default
}

set PROPERTIES_ORIGIN ["COM"]
properties('MP2/aug-cc-pvtz', properties = ['dipole'])
--------------------------------------------------------------------------

    Molecular point group: c1
  Charge       = 0
  Multiplicity = 1
  Basis Set: AUG-CC-PVTZ
    Blend: AUG-CC-PVTZ
  Basis Set: (AUG-CC-PVTZ AUX)
    Blend: AUG-CC-PVTZ-JKFIT

    Orbital Energies [Eh]
    ---------------------

    Doubly Occupied:

       1A    -20.522124     2A    -15.638998     3A    -15.585073
       4A    -15.563934     5A    -11.362736     6A    -11.304653
       7A    -11.276076     8A    -11.270698     9A    -11.258489
      10A    -11.255538    11A     -1.382334    12A     -1.349642
      13A     -1.234223    14A     -1.190547    15A     -1.034558
      16A     -0.980644    17A     -0.951767    18A     -0.838733
      19A     -0.815875    20A     -0.772709    21A     -0.735687
      22A     -0.658825    23A     -0.658370    24A     -0.645403
      25A     -0.619340    26A     -0.605099    27A     -0.596481
      28A     -0.583016    29A     -0.563727    30A     -0.560410
      31A     -0.545725    32A     -0.530264    33A     -0.457559
      34A     -0.433445    35A     -0.398978    36A     -0.388922
      37A     -0.323157

  @DF-RHF Final Energy:  -470.83541407185737

   => Energetics <=

    Nuclear Repulsion Energy =            527.2197571753753209
    One-Electron Energy =               -1686.3228293991953706
    Two-Electron Energy =                 688.2676581519627916
    Total Energy =                       -470.8354140718573717
  Basis Set: (AUG-CC-PVTZ AUX)
    Blend: AUG-CC-PVTZ-RI
    Molecular point group: c1

    Geometry (in Angstrom), charge = 0, multiplicity = 1:

       Center              X                  Y                   Z               Mass
    ------------   -----------------  -----------------  -----------------  -----------------
         O           -1.264999945193     1.543952351306     0.000002831835    15.994914619570
         N            1.447283054807     0.510125351306    -0.000007168165    14.003074004430
         N            0.588549054807    -1.559944648694     0.000009831835    14.003074004430
         N           -2.015252945193    -0.637087648694    -0.000001168165    14.003074004430
         C            0.325804554807    -0.238331348694     0.000009631835    12.000000000000
         C            2.504559054807    -0.365309648694    -0.000010168165    12.000000000000
         C            1.554333054807     1.967939351306     0.000001831835    12.000000000000
         C           -1.055102945193     0.319973351306     0.000001831835    12.000000000000
         C            1.952275054807    -1.632344648694    -0.000000168165    12.000000000000
         C           -3.427097945193    -0.318196648694    -0.000006168165    12.000000000000
         H            3.527953054807    -0.016801648694    -0.000012168165     1.007825032230
         H            1.067472054807     2.376664351306    -0.883911168165     1.007825032230
         H            1.067517054807     2.376650351306     0.883947831835     1.007825032230
         H            2.615513054807     2.220068351306    -0.000022168165     1.007825032230
         H            2.469865054807    -2.582672648694    -0.000005168165     1.007825032230
         H           -1.690001945193    -1.598536648694    -0.000001168165     1.007825032230
         H           -3.919379945193    -0.719227648694     0.890801831835     1.007825032230
         H           -3.919373945193    -0.719230648694    -0.890816168165     1.007825032230
         H           -3.513469945193     0.768344351306    -0.000009168165     1.007825032230

  Basis Set: AUG-CC-PVTZ
    Blend: AUG-CC-PVTZ
  Basis Set: (AUG-CC-PVTZ AUX)
    Blend: AUG-CC-PVTZ-JKFIT
	 Reference Energy          =    -470.8354140718573717 [Eh]
	 Singles Energy            =      -0.0000000000000000 [Eh]
	 Same-Spin Energy          =      -0.4991342859075338 [Eh]
	 Opposite-Spin Energy      =      -1.5367529311492496 [Eh]
	 Correlation Energy        =      -2.0358872170567834 [Eh]
	 Total Energy              =    -472.8713012889141396 [Eh]

	 ================> DF-SCS-MP2 Energies <==================
	-----------------------------------------------------------
	 SCS Same-Spin Scale       =       0.3333333333333333 [-]
	 SCS Opposite-Spin Scale   =       1.2000000000000000 [-]
	 SCS Same-Spin Energy      =      -0.1663780953025113 [Eh]
	 SCS Opposite-Spin Energy  =      -1.8441035173790994 [Eh]
	 SCS Correlation Energy    =      -2.0104816126816107 [Eh]
	 SCS Total Energy          =    -472.8458956845389594 [Eh]
	-----------------------------------------------------------

  Dipole Moment: [D]
     X:     1.3892      Y:     0.0542      Z:    -0.0000     Total:     1.3902

*** Psi4 exiting successfully. Buy a developer a beer!
