                               Psi4 1.3.2 release

  ==> Input File <==

--------------------------------------------------------------------------
#psi4
#
memory 32 gb

molecule  {
0 1
  O       -1.2482290     1.5306510     0.0000030
  N        1.3783380     0.3815128    -0.0000058
  N        0.6053200    -1.5732460     0.0000100
  N       -1.9984820    -0.6503890    -0.0000010
  C        0.3259400    -0.2627350     0.0000100
  C        2.5213300    -0.3786110    -0.0000100
  C        1.5711040     1.9546380     0.0000020
  C       -1.0383320     0.3066720     0.0000020
  C        1.9690460    -1.6456460     0.0000000
  C       -3.4103270    -0.3314980    -0.0000060
  H        3.5447240    -0.0301030    -0.0000120
  H        1.0842430     2.3633630    -0.8839110
  H        1.0842880     2.3633490     0.8839480
  H        2.6322840     2.2067670    -0.0000220
  H        2.4866360    -2.5959740    -0.0000050
  H       -1.6732310    -1.6118380    -0.0000010
  H       -3.9026090    -0.7325290     0.8908020
  H       -3.9026030    -0.7325320    -0.8908160
  H       -3.4966990     0.7550430    -0.0000090
units angstrom
no_reorient  #important for SAPT in psi4, default
symmetry c1  #important for SAPT in psi4, default
}

set PROPERTIES_ORIGIN ["COM"]
properties('MP2/aug-cc-pvtz', properties = ['dipole'])
--------------------------------------------------------------------------

    Molecular point group: c1
  Charge       = 0
  Multiplicity = 1
  Basis Set: AUG-CC-PVTZ
    Blend: AUG-CC-PVTZ
  Basis Set: (AUG-CC-PVTZ AUX)
    Blend: AUG-CC-PVTZ-JKFIT

    Orbital Energies [Eh]
    ---------------------

    Doubly Occupied:

       1A    -20.524133     2A    -15.635909     3A    -15.586017
       4A    -15.545236     5A    -11.363469     6A    -11.290016
       7A    -11.287849     8A    -11.260981     9A    -11.258857
      10A    -11.253121    11A     -1.395812    12A     -1.364392
      13A     -1.234471    14A     -1.169800    15A     -1.045910
      16A     -0.972391    17A     -0.960467    18A     -0.840388
      19A     -0.820864    20A     -0.771153    21A     -0.732467
      22A     -0.667303    23A     -0.663155    24A     -0.645926
      25A     -0.618649    26A     -0.602863    27A     -0.601409
      28A     -0.576884    29A     -0.569628    30A     -0.546948
      31A     -0.544530    32A     -0.533221    33A     -0.446570
      34A     -0.432725    35A     -0.397429    36A     -0.387299
      37A     -0.327399

  @DF-RHF Final Energy:  -470.80874106139834

   => Energetics <=

    Nuclear Repulsion Energy =            529.5039836212426962
    One-Electron Energy =               -1690.8741724625001552
    Two-Electron Energy =                 690.5614477798591224
    Total Energy =                       -470.8087410613983366
  Basis Set: (AUG-CC-PVTZ AUX)
    Blend: AUG-CC-PVTZ-RI
    Molecular point group: c1

    Geometry (in Angstrom), charge = 0, multiplicity = 1:

       Center              X                  Y                   Z               Mass
    ------------   -----------------  -----------------  -----------------  -----------------
         O           -1.254934024640     1.556520709192     0.000002693753    15.994914619570
         N            1.371632975360     0.407382509192    -0.000006106247    14.003074004430
         N            0.598614975360    -1.547376290808     0.000009693753    14.003074004430
         N           -2.005187024640    -0.624519290808    -0.000001306247    14.003074004430
         C            0.319234975360    -0.236865290808     0.000009693753    12.000000000000
         C            2.514624975360    -0.352741290808    -0.000010306247    12.000000000000
         C            1.564398975360     1.980507709192     0.000001693753    12.000000000000
         C           -1.045037024640     0.332541709192     0.000001693753    12.000000000000
         C            1.962340975360    -1.619776290808    -0.000000306247    12.000000000000
         C           -3.417032024640    -0.305628290808    -0.000006306247    12.000000000000
         H            3.538018975360    -0.004233290808    -0.000012306247     1.007825032230
         H            1.077537975360     2.389232709192    -0.883911306247     1.007825032230
         H            1.077582975360     2.389218709192     0.883947693753     1.007825032230
         H            2.625578975360     2.232636709192    -0.000022306247     1.007825032230
         H            2.479930975360    -2.570104290808    -0.000005306247     1.007825032230
         H           -1.679936024640    -1.585968290808    -0.000001306247     1.007825032230
         H           -3.909314024640    -0.706659290808     0.890801693753     1.007825032230
         H           -3.909308024640    -0.706662290808    -0.890816306247     1.007825032230
         H           -3.503404024640     0.780912709192    -0.000009306247     1.007825032230

  Basis Set: AUG-CC-PVTZ
    Blend: AUG-CC-PVTZ
  Basis Set: (AUG-CC-PVTZ AUX)
    Blend: AUG-CC-PVTZ-JKFIT
	 Reference Energy          =    -470.8087410613983366 [Eh]
	 Singles Energy            =      -0.0000000000000000 [Eh]
	 Same-Spin Energy          =      -0.4986916168732469 [Eh]
	 Opposite-Spin Energy      =      -1.5359684286650217 [Eh]
	 Correlation Energy        =      -2.0346600455382688 [Eh]
	 Total Energy              =    -472.8434011069365965 [Eh]

	 ================> DF-SCS-MP2 Energies <==================
	-----------------------------------------------------------
	 SCS Same-Spin Scale       =       0.3333333333333333 [-]
	 SCS Opposite-Spin Scale   =       1.2000000000000000 [-]
	 SCS Same-Spin Energy      =      -0.1662305389577490 [Eh]
	 SCS Opposite-Spin Energy  =      -1.8431621143980259 [Eh]
	 SCS Correlation Energy    =      -2.0093926533557749 [Eh]
	 SCS Total Energy          =    -472.8181337147541399 [Eh]
	-----------------------------------------------------------

  Dipole Moment: [D]
     X:     1.3669      Y:     0.3767      Z:    -0.0000     Total:     1.4179

*** Psi4 exiting successfully. Buy a developer a beer!
