                               Psi4 1.3.2 release

  ==> Input File <==

--------------------------------------------------------------------------
#psi4
#
memory 32 gb

molecule  {
0 1
  O       -1.2482290     1.5306510     0.0000030
  N        1.4640540     0.4968240    -0.0000070
  N        0.6053200    -1.5732460     0.0000100
  N       -1.9984820    -0.6503890    -0.0000010
  C        0.3259400    -0.2627350     0.0000100
  C        2.5213300    -0.3786110    -0.0000100
  C        1.5711040     1.9546380     0.0000020
  C       -1.0383320     0.3066720     0.0000020
  C        1.9690460    -1.6456460     0.0000000
  C       -3.4103270    -0.3314980    -0.0000060
  H        3.4500624    -0.0623392    -0.0000118
  H        1.0842430     2.3633630    -0.8839110
  H        1.0842880     2.3633490     0.8839480
  H        2.6322840     2.2067670    -0.0000220
  H        2.4866360    -2.5959740    -0.0000050
  H       -1.6732310    -1.6118380    -0.0000010
  H       -3.9026090    -0.7325290     0.8908020
  H       -3.9026030    -0.7325320    -0.8908160
  H       -3.4966990     0.7550430    -0.0000090
units angstrom
no_reorient  #important for SAPT in psi4, default
symmetry c1  #important for SAPT in psi4, default
}

set PROPERTIES_ORIGIN ["COM"]
properties('MP2/aug-cc-pvtz', properties = ['dipole'])
--------------------------------------------------------------------------

    Molecular point group: c1
  Charge       = 0
  Multiplicity = 1
  Basis Set: AUG-CC-PVTZ
    Blend: AUG-CC-PVTZ
  Basis Set: (AUG-CC-PVTZ AUX)
    Blend: AUG-CC-PVTZ-JKFIT

    Orbital Energies [Eh]
    ---------------------

    Doubly Occupied:

       1A    -20.522256     2A    -15.637235     3A    -15.584740
       4A    -15.564993     5A    -11.362057     6A    -11.304592
       7A    -11.275069     8A    -11.261300     9A    -11.258266
      10A    -11.254969    11A     -1.381568    12A     -1.346143
      13A     -1.234556    14A     -1.190609    15A     -1.038823
      16A     -0.979795    17A     -0.952011    18A     -0.842420
      19A     -0.823418    20A     -0.774089    21A     -0.736009
      22A     -0.671652    23A     -0.656100    24A     -0.646788
      25A     -0.619096    26A     -0.609026    27A     -0.597503
      28A     -0.584283    29A     -0.563634    30A     -0.560079
      31A     -0.545678    32A     -0.529859    33A     -0.458092
      34A     -0.433797    35A     -0.398963    36A     -0.388684
      37A     -0.323075

  @DF-RHF Final Energy:  -470.82915613181086

   => Energetics <=

    Nuclear Repulsion Energy =            527.7001398683603384
    One-Electron Energy =               -1687.2361433927890175
    Two-Electron Energy =                 688.7068473926178740
    Total Energy =                       -470.8291561318108052
  Basis Set: (AUG-CC-PVTZ AUX)
    Blend: AUG-CC-PVTZ-RI
    Molecular point group: c1

    Geometry (in Angstrom), charge = 0, multiplicity = 1:

       Center              X                  Y                   Z               Mass
    ------------   -----------------  -----------------  -----------------  -----------------
         O           -1.262878577159     1.545143913925     0.000002813129    15.994914619570
         N            1.449404422841     0.511316913925    -0.000007186871    14.003074004430
         N            0.590670422841    -1.558753086075     0.000009813129    14.003074004430
         N           -2.013131577159    -0.635896086075    -0.000001186871    14.003074004430
         C            0.311290422841    -0.248242086075     0.000009813129    12.000000000000
         C            2.506680422841    -0.364118086075    -0.000010186871    12.000000000000
         C            1.556454422841     1.969130913925     0.000001813129    12.000000000000
         C           -1.052981577159     0.321164913925     0.000001813129    12.000000000000
         C            1.954396422841    -1.631153086075    -0.000000186871    12.000000000000
         C           -3.424976577159    -0.317005086075    -0.000006186871    12.000000000000
         H            3.435412822841    -0.047846286075    -0.000011986871     1.007825032230
         H            1.069593422841     2.377855913925    -0.883911186871     1.007825032230
         H            1.069638422841     2.377841913925     0.883947813129     1.007825032230
         H            2.617634422841     2.221259913925    -0.000022186871     1.007825032230
         H            2.471986422841    -2.581481086075    -0.000005186871     1.007825032230
         H           -1.687880577159    -1.597345086075    -0.000001186871     1.007825032230
         H           -3.917258577159    -0.718036086075     0.890801813129     1.007825032230
         H           -3.917252577159    -0.718039086075    -0.890816186871     1.007825032230
         H           -3.511348577159     0.769535913925    -0.000009186871     1.007825032230

  Basis Set: AUG-CC-PVTZ
    Blend: AUG-CC-PVTZ
  Basis Set: (AUG-CC-PVTZ AUX)
    Blend: AUG-CC-PVTZ-JKFIT
	 Reference Energy          =    -470.8291561318108620 [Eh]
	 Singles Energy            =      -0.0000000000000000 [Eh]
	 Same-Spin Energy          =      -0.4991158805801442 [Eh]
	 Opposite-Spin Energy      =      -1.5365419293044957 [Eh]
	 Correlation Energy        =      -2.0356578098846398 [Eh]
	 Total Energy              =    -472.8648139416955019 [Eh]

	 ================> DF-SCS-MP2 Energies <==================
	-----------------------------------------------------------
	 SCS Same-Spin Scale       =       0.3333333333333333 [-]
	 SCS Opposite-Spin Scale   =       1.2000000000000000 [-]
	 SCS Same-Spin Energy      =      -0.1663719601933814 [Eh]
	 SCS Opposite-Spin Energy  =      -1.8438503151653949 [Eh]
	 SCS Correlation Energy    =      -2.0102222753587764 [Eh]
	 SCS Total Energy          =    -472.8393784071696473 [Eh]
	-----------------------------------------------------------

  Dipole Moment: [D]
     X:     1.3875      Y:     0.0137      Z:    -0.0000     Total:     1.3876

*** Psi4 exiting successfully. Buy a developer a beer!
