                               Psi4 1.3.2 release

  ==> Input File <==

--------------------------------------------------------------------------
#psi4
#
memory 32 gb

molecule  {
0 1
  O       -1.2908174     1.5225801     0.0000027
  N        1.4640540     0.4968240    -0.0000070
  N        0.6053200    -1.5732460     0.0000100
  N       -1.9984820    -0.6503890    -0.0000010
  C        0.3259400    -0.2627350     0.0000100
  C        2.5213300    -0.3786110    -0.0000100
  C        1.5711040     1.9546380     0.0000020
  C       -1.0383320     0.3066720     0.0000020
  C        1.9690460    -1.6456460     0.0000000
  C       -3.4103270    -0.3314980    -0.0000060
  H        3.5447240    -0.0301030    -0.0000120
  H        1.0842430     2.3633630    -0.8839110
  H        1.0842880     2.3633490     0.8839480
  H        2.6322840     2.2067670    -0.0000220
  H        2.4866360    -2.5959740    -0.0000050
  H       -1.6732310    -1.6118380    -0.0000010
  H       -3.9026090    -0.7325290     0.8908020
  H       -3.9026030    -0.7325320    -0.8908160
  H       -3.4966990     0.7550430    -0.0000090
units angstrom
no_reorient  #important for SAPT in psi4, default
symmetry c1  #important for SAPT in psi4, default
}

set PROPERTIES_ORIGIN ["COM"]
properties('MP2/aug-cc-pvtz', properties = ['dipole'])
--------------------------------------------------------------------------

    Molecular point group: c1
  Charge       = 0
  Multiplicity = 1
  Basis Set: AUG-CC-PVTZ
    Blend: AUG-CC-PVTZ
  Basis Set: (AUG-CC-PVTZ AUX)
    Blend: AUG-CC-PVTZ-JKFIT

    Orbital Energies [Eh]
    ---------------------

    Doubly Occupied:

       1A    -20.521276     2A    -15.639120     3A    -15.582536
       4A    -15.566864     5A    -11.361626     6A    -11.306662
       7A    -11.276378     8A    -11.273701     9A    -11.256469
      10A    -11.256445    11A     -1.381442    12A     -1.347792
      13A     -1.231971    14A     -1.191667    15A     -1.037081
      16A     -0.980344    17A     -0.949877    18A     -0.841540
      19A     -0.815437    20A     -0.771525    21A     -0.735549
      22A     -0.660030    23A     -0.657165    24A     -0.644865
      25A     -0.618208    26A     -0.605942    27A     -0.596676
      28A     -0.583106    29A     -0.565094    30A     -0.561011
      31A     -0.543316    32A     -0.529364    33A     -0.458900
      34A     -0.433859    35A     -0.399583    36A     -0.387640
      37A     -0.324249

  @DF-RHF Final Energy:  -470.83489143778013

   => Energetics <=

    Nuclear Repulsion Energy =            526.8888980691593815
    One-Electron Energy =               -1685.6589606315424135
    Two-Electron Energy =                 687.9351711246027890
    Total Energy =                       -470.8348914377801293
  Basis Set: (AUG-CC-PVTZ AUX)
    Blend: AUG-CC-PVTZ-RI
    Molecular point group: c1

    Geometry (in Angstrom), charge = 0, multiplicity = 1:

       Center              X                  Y                   Z               Mass
    ------------   -----------------  -----------------  -----------------  -----------------
         O           -1.301254880542     1.537767640648     0.000002549081    15.994914619570
         N            1.453616519458     0.512011540648    -0.000007150919    14.003074004430
         N            0.594882519458    -1.558058459352     0.000009849081    14.003074004430
         N           -2.008919480542    -0.635201459352    -0.000001150919    14.003074004430
         C            0.315502519458    -0.247547459352     0.000009849081    12.000000000000
         C            2.510892519458    -0.363423459352    -0.000010150919    12.000000000000
         C            1.560666519458     1.969825540648     0.000001849081    12.000000000000
         C           -1.048769480542     0.321859540648     0.000001849081    12.000000000000
         C            1.958608519458    -1.630458459352    -0.000000150919    12.000000000000
         C           -3.420764480542    -0.316310459352    -0.000006150919    12.000000000000
         H            3.534286519458    -0.014915459352    -0.000012150919     1.007825032230
         H            1.073805519458     2.378550540648    -0.883911150919     1.007825032230
         H            1.073850519458     2.378536540648     0.883947849081     1.007825032230
         H            2.621846519458     2.221954540648    -0.000022150919     1.007825032230
         H            2.476198519458    -2.580786459352    -0.000005150919     1.007825032230
         H           -1.683668480542    -1.596650459352    -0.000001150919     1.007825032230
         H           -3.913046480542    -0.717341459352     0.890801849081     1.007825032230
         H           -3.913040480542    -0.717344459352    -0.890816150919     1.007825032230
         H           -3.507136480542     0.770230540648    -0.000009150919     1.007825032230

  Basis Set: AUG-CC-PVTZ
    Blend: AUG-CC-PVTZ
  Basis Set: (AUG-CC-PVTZ AUX)
    Blend: AUG-CC-PVTZ-JKFIT
	 Reference Energy          =    -470.8348914377801293 [Eh]
	 Singles Energy            =      -0.0000000000000000 [Eh]
	 Same-Spin Energy          =      -0.4993712174360682 [Eh]
	 Opposite-Spin Energy      =      -1.5371162494116097 [Eh]
	 Correlation Energy        =      -2.0364874668476780 [Eh]
	 Total Energy              =    -472.8713789046278180 [Eh]

	 ================> DF-SCS-MP2 Energies <==================
	-----------------------------------------------------------
	 SCS Same-Spin Scale       =       0.3333333333333333 [-]
	 SCS Opposite-Spin Scale   =       1.2000000000000000 [-]
	 SCS Same-Spin Energy      =      -0.1664570724786894 [Eh]
	 SCS Opposite-Spin Energy  =      -1.8445394992939317 [Eh]
	 SCS Correlation Energy    =      -2.0109965717726213 [Eh]
	 SCS Total Energy          =    -472.8458880095527661 [Eh]
	-----------------------------------------------------------

  Dipole Moment: [D]
     X:     1.5602      Y:     0.0272      Z:    -0.0000     Total:     1.5604

*** Psi4 exiting successfully. Buy a developer a beer!
