                               Psi4 1.3.2 release

  ==> Input File <==

--------------------------------------------------------------------------
#psi4
#
memory 32 gb

molecule  {
0 1
  O       -1.2482290     1.5306510     0.0000030
  N        1.5276967     0.5684433    -0.0000071
  N        0.6053200    -1.5732460     0.0000100
  N       -1.9984820    -0.6503890    -0.0000010
  C        0.3259400    -0.2627350     0.0000100
  C        2.5213300    -0.3786110    -0.0000100
  C        1.5711040     1.9546380     0.0000020
  C       -1.0383320     0.3066720     0.0000020
  C        1.9690460    -1.6456460     0.0000000
  C       -3.4103270    -0.3314980    -0.0000060
  H        3.5447240    -0.0301030    -0.0000120
  H        1.0842430     2.3633630    -0.8839110
  H        1.0842880     2.3633490     0.8839480
  H        2.6322840     2.2067670    -0.0000220
  H        2.4866360    -2.5959740    -0.0000050
  H       -1.6732310    -1.6118380    -0.0000010
  H       -3.9026090    -0.7325290     0.8908020
  H       -3.9026030    -0.7325320    -0.8908160
  H       -3.4966990     0.7550430    -0.0000090
units angstrom
no_reorient  #important for SAPT in psi4, default
symmetry c1  #important for SAPT in psi4, default
}

set PROPERTIES_ORIGIN ["COM"]
properties('MP2/aug-cc-pvtz', properties = ['dipole'])
--------------------------------------------------------------------------

    Molecular point group: c1
  Charge       = 0
  Multiplicity = 1
  Basis Set: AUG-CC-PVTZ
    Blend: AUG-CC-PVTZ
  Basis Set: (AUG-CC-PVTZ AUX)
    Blend: AUG-CC-PVTZ-JKFIT

    Orbital Energies [Eh]
    ---------------------

    Doubly Occupied:

       1A    -20.521613     2A    -15.637268     3A    -15.584506
       4A    -15.578160     5A    -11.361998     6A    -11.312830
       7A    -11.280942     8A    -11.266669     9A    -11.258262
      10A    -11.256848    11A     -1.378678    12A     -1.336938
      13A     -1.236211    14A     -1.205452    15A     -1.035452
      16A     -0.984352    17A     -0.942901    18A     -0.841762
      19A     -0.809183    20A     -0.774438    21A     -0.735594
      22A     -0.660902    23A     -0.656274    24A     -0.645291
      25A     -0.620216    26A     -0.610937    27A     -0.607741
      28A     -0.578245    29A     -0.556786    30A     -0.553097
      31A     -0.545643    32A     -0.527581    33A     -0.464164
      34A     -0.432680    35A     -0.400738    36A     -0.389853
      37A     -0.318929

  @DF-RHF Final Energy:  -470.81938046737014

   => Energetics <=

    Nuclear Repulsion Energy =            525.7702710657272291
    One-Electron Energy =               -1683.3610384173100556
    Two-Electron Energy =                 686.7713868842126885
    Total Energy =                       -470.8193804673701379
  Basis Set: (AUG-CC-PVTZ AUX)
    Blend: AUG-CC-PVTZ-RI
    Molecular point group: c1

    Geometry (in Angstrom), charge = 0, multiplicity = 1:

       Center              X                  Y                   Z               Mass
    ------------   -----------------  -----------------  -----------------  -----------------
         O           -1.269972583096     1.537699139029     0.000002824647    15.994914619570
         N            1.505953116904     0.575491439029    -0.000007275353    14.003074004430
         N            0.583576416904    -1.566197860971     0.000009824647    14.003074004430
         N           -2.020225583096    -0.643340860971    -0.000001175353    14.003074004430
         C            0.304196416904    -0.255686860971     0.000009824647    12.000000000000
         C            2.499586416904    -0.371562860971    -0.000010175353    12.000000000000
         C            1.549360416904     1.961686139029     0.000001824647    12.000000000000
         C           -1.060075583096     0.313720139029     0.000001824647    12.000000000000
         C            1.947302416904    -1.638597860971    -0.000000175353    12.000000000000
         C           -3.432070583096    -0.324449860971    -0.000006175353    12.000000000000
         H            3.522980416904    -0.023054860971    -0.000012175353     1.007825032230
         H            1.062499416904     2.370411139029    -0.883911175353     1.007825032230
         H            1.062544416904     2.370397139029     0.883947824647     1.007825032230
         H            2.610540416904     2.213815139029    -0.000022175353     1.007825032230
         H            2.464892416904    -2.588925860971    -0.000005175353     1.007825032230
         H           -1.694974583096    -1.604789860971    -0.000001175353     1.007825032230
         H           -3.924352583096    -0.725480860971     0.890801824647     1.007825032230
         H           -3.924346583096    -0.725483860971    -0.890816175353     1.007825032230
         H           -3.518442583096     0.762091139029    -0.000009175353     1.007825032230

  Basis Set: AUG-CC-PVTZ
    Blend: AUG-CC-PVTZ
  Basis Set: (AUG-CC-PVTZ AUX)
    Blend: AUG-CC-PVTZ-JKFIT
	 Reference Energy          =    -470.8193804673701379 [Eh]
	 Singles Energy            =      -0.0000000000000000 [Eh]
	 Same-Spin Energy          =      -0.5005761838025029 [Eh]
	 Opposite-Spin Energy      =      -1.5395678389122376 [Eh]
	 Correlation Energy        =      -2.0401440227147405 [Eh]
	 Total Energy              =    -472.8595244900848797 [Eh]

	 ================> DF-SCS-MP2 Energies <==================
	-----------------------------------------------------------
	 SCS Same-Spin Scale       =       0.3333333333333333 [-]
	 SCS Opposite-Spin Scale   =       1.2000000000000000 [-]
	 SCS Same-Spin Energy      =      -0.1668587279341676 [Eh]
	 SCS Opposite-Spin Energy  =      -1.8474814066946850 [Eh]
	 SCS Correlation Energy    =      -2.0143401346288528 [Eh]
	 SCS Total Energy          =    -472.8337206019990049 [Eh]
	-----------------------------------------------------------

  Dipole Moment: [D]
     X:     1.3454      Y:    -0.2196      Z:    -0.0000     Total:     1.3632

*** Psi4 exiting successfully. Buy a developer a beer!
