                               Psi4 1.3.2 release

  ==> Input File <==

--------------------------------------------------------------------------
#psi4
#
memory 32 gb

molecule  {
0 1
  O       -1.2482290     1.5306510     0.0000030
  N        1.4640540     0.4968240    -0.0000070
  N        0.6053200    -1.5732460     0.0000100
  N       -1.9984820    -0.6503890    -0.0000010
  C        0.3531415    -0.3019919     0.0000101
  C        2.5213300    -0.3786110    -0.0000100
  C        1.5711040     1.9546380     0.0000020
  C       -1.0383320     0.3066720     0.0000020
  C        1.9690460    -1.6456460     0.0000000
  C       -3.4103270    -0.3314980    -0.0000060
  H        3.5447240    -0.0301030    -0.0000120
  H        1.0842430     2.3633630    -0.8839110
  H        1.0842880     2.3633490     0.8839480
  H        2.6322840     2.2067670    -0.0000220
  H        2.4866360    -2.5959740    -0.0000050
  H       -1.6732310    -1.6118380    -0.0000010
  H       -3.9026090    -0.7325290     0.8908020
  H       -3.9026030    -0.7325320    -0.8908160
  H       -3.4966990     0.7550430    -0.0000090
units angstrom
no_reorient  #important for SAPT in psi4, default
symmetry c1  #important for SAPT in psi4, default
}

set PROPERTIES_ORIGIN ["COM"]
properties('MP2/aug-cc-pvtz', properties = ['dipole'])
--------------------------------------------------------------------------

    Molecular point group: c1
  Charge       = 0
  Multiplicity = 1
  Basis Set: AUG-CC-PVTZ
    Blend: AUG-CC-PVTZ
  Basis Set: (AUG-CC-PVTZ AUX)
    Blend: AUG-CC-PVTZ-JKFIT

    Orbital Energies [Eh]
    ---------------------

    Doubly Occupied:

       1A    -20.523746     2A    -15.632685     3A    -15.585400
       4A    -15.562274     5A    -11.363968     6A    -11.304591
       7A    -11.274977     8A    -11.271162     9A    -11.258552
      10A    -11.253530    11A     -1.381866    12A     -1.351403
      13A     -1.235228    14A     -1.199494    15A     -1.032506
      16A     -0.979071    17A     -0.950047    18A     -0.833937
      19A     -0.816950    20A     -0.772856    21A     -0.734725
      22A     -0.657427    23A     -0.656455    24A     -0.645192
      25A     -0.619198    26A     -0.606107    27A     -0.598445
      28A     -0.577721    29A     -0.563146    30A     -0.562413
      31A     -0.546036    32A     -0.530836    33A     -0.464960
      34A     -0.430045    35A     -0.402365    36A     -0.389899
      37A     -0.323974

  @DF-RHF Final Energy:  -470.83561065635479

   => Energetics <=

    Nuclear Repulsion Energy =            527.2555579017844138
    One-Electron Energy =               -1686.3959619143179225
    Two-Electron Energy =                 688.3047933561787204
    Total Energy =                       -470.8356106563547883
  Basis Set: (AUG-CC-PVTZ AUX)
    Blend: AUG-CC-PVTZ-RI
    Molecular point group: c1

    Geometry (in Angstrom), charge = 0, multiplicity = 1:

       Center              X                  Y                   Z               Mass
    ------------   -----------------  -----------------  -----------------  -----------------
         O           -1.265911628813     1.548297577289     0.000002805950    15.994914619570
         N            1.446371371187     0.514470577289    -0.000007194050    14.003074004430
         N            0.587637371187    -1.555599422711     0.000009805950    14.003074004430
         N           -2.016164628813    -0.632742422711    -0.000001194050    14.003074004430
         C            0.335458871187    -0.284345322711     0.000009905950    12.000000000000
         C            2.503647371187    -0.360964422711    -0.000010194050    12.000000000000
         C            1.553421371187     1.972284577289     0.000001805950    12.000000000000
         C           -1.056014628813     0.324318577289     0.000001805950    12.000000000000
         C            1.951363371187    -1.627999422711    -0.000000194050    12.000000000000
         C           -3.428009628813    -0.313851422711    -0.000006194050    12.000000000000
         H            3.527041371187    -0.012456422711    -0.000012194050     1.007825032230
         H            1.066560371187     2.381009577289    -0.883911194050     1.007825032230
         H            1.066605371187     2.380995577289     0.883947805950     1.007825032230
         H            2.614601371187     2.224413577289    -0.000022194050     1.007825032230
         H            2.468953371187    -2.578327422711    -0.000005194050     1.007825032230
         H           -1.690913628813    -1.594191422711    -0.000001194050     1.007825032230
         H           -3.920291628813    -0.714882422711     0.890801805950     1.007825032230
         H           -3.920285628813    -0.714885422711    -0.890816194050     1.007825032230
         H           -3.514381628813     0.772689577289    -0.000009194050     1.007825032230

  Basis Set: AUG-CC-PVTZ
    Blend: AUG-CC-PVTZ
  Basis Set: (AUG-CC-PVTZ AUX)
    Blend: AUG-CC-PVTZ-JKFIT
	 Reference Energy          =    -470.8356106563547883 [Eh]
	 Singles Energy            =      -0.0000000000000000 [Eh]
	 Same-Spin Energy          =      -0.4980387555967393 [Eh]
	 Opposite-Spin Energy      =      -1.5350718682367022 [Eh]
	 Correlation Energy        =      -2.0331106238334415 [Eh]
	 Total Energy              =    -472.8687212801882538 [Eh]

	 ================> DF-SCS-MP2 Energies <==================
	-----------------------------------------------------------
	 SCS Same-Spin Scale       =       0.3333333333333333 [-]
	 SCS Opposite-Spin Scale   =       1.2000000000000000 [-]
	 SCS Same-Spin Energy      =      -0.1660129185322464 [Eh]
	 SCS Opposite-Spin Energy  =      -1.8420862418840425 [Eh]
	 SCS Correlation Energy    =      -2.0080991604162888 [Eh]
	 SCS Total Energy          =    -472.8437098167710815 [Eh]
	-----------------------------------------------------------

  Dipole Moment: [D]
     X:     1.2590      Y:     0.0080      Z:    -0.0000     Total:     1.2591

*** Psi4 exiting successfully. Buy a developer a beer!
