                               Psi4 1.3.2 release

  ==> Input File <==

--------------------------------------------------------------------------
#psi4
#
memory 32 gb

molecule  {
0 1
  O       -1.2482290     1.5306510     0.0000030
  N        1.4640540     0.4968240    -0.0000070
  N        0.6053200    -1.5732460     0.0000100
  N       -1.9984820    -0.6503890    -0.0000010
  C        0.3259400    -0.2627350     0.0000100
  C        2.5213300    -0.3786110    -0.0000100
  C        1.5711040     1.9546380     0.0000020
  C       -1.0383320     0.3066720     0.0000020
  C        2.0489615    -1.4623061    -0.0000014
  C       -3.4103270    -0.3314980    -0.0000060
  H        3.5447240    -0.0301030    -0.0000120
  H        1.0842430     2.3633630    -0.8839110
  H        1.0842880     2.3633490     0.8839480
  H        2.6322840     2.2067670    -0.0000220
  H        2.4866360    -2.5959740    -0.0000050
  H       -1.6732310    -1.6118380    -0.0000010
  H       -3.9026090    -0.7325290     0.8908020
  H       -3.9026030    -0.7325320    -0.8908160
  H       -3.4966990     0.7550430    -0.0000090
units angstrom
no_reorient  #important for SAPT in psi4, default
symmetry c1  #important for SAPT in psi4, default
}

set PROPERTIES_ORIGIN ["COM"]
properties('MP2/aug-cc-pvtz', properties = ['dipole'])
--------------------------------------------------------------------------

    Molecular point group: c1
  Charge       = 0
  Multiplicity = 1
  Basis Set: AUG-CC-PVTZ
    Blend: AUG-CC-PVTZ
  Basis Set: (AUG-CC-PVTZ AUX)
    Blend: AUG-CC-PVTZ-JKFIT

    Orbital Energies [Eh]
    ---------------------

    Doubly Occupied:

       1A    -20.527665     2A    -15.620935     3A    -15.589525
       4A    -15.564585     5A    -11.365934     6A    -11.314206
       7A    -11.270165     8A    -11.261126     9A    -11.245539
      10A    -11.239490    11A     -1.386227    12A     -1.352854
      13A     -1.238056    14A     -1.173333    15A     -1.072923
      16A     -0.976771    17A     -0.952108    18A     -0.855467
      19A     -0.799922    20A     -0.774781    21A     -0.727048
      22A     -0.664276    23A     -0.659100    24A     -0.647639
      25A     -0.622046    26A     -0.606740    27A     -0.591721
      28A     -0.577956    29A     -0.561418    30A     -0.548825
      31A     -0.536843    32A     -0.511342    33A     -0.469921
      34A     -0.436550    35A     -0.398158    36A     -0.378171
      37A     -0.364074

  @DF-RHF Final Energy:  -470.77167788211085

   => Energetics <=

    Nuclear Repulsion Energy =            529.7097764159565259
    One-Electron Energy =               -1691.1960249485623535
    Two-Electron Energy =                 690.7145706504948066
    Total Energy =                       -470.7716778821109074
  Basis Set: (AUG-CC-PVTZ AUX)
    Blend: AUG-CC-PVTZ-RI
    Molecular point group: c1

    Geometry (in Angstrom), charge = 0, multiplicity = 1:

       Center              X                  Y                   Z               Mass
    ------------   -----------------  -----------------  -----------------  -----------------
         O           -1.270460037891     1.529090890149     0.000002935377    15.994914619570
         N            1.441822962109     0.495263890149    -0.000007064623    14.003074004430
         N            0.583088962109    -1.574806109851     0.000009935377    14.003074004430
         N           -2.020713037891    -0.651949109851    -0.000001064623    14.003074004430
         C            0.303708962109    -0.264295109851     0.000009935377    12.000000000000
         C            2.499098962109    -0.380171109851    -0.000010064623    12.000000000000
         C            1.548872962109     1.953077890149     0.000001935377    12.000000000000
         C           -1.060563037891     0.305111890149     0.000001935377    12.000000000000
         C            2.026730462109    -1.463866209851    -0.000001464623    12.000000000000
         C           -3.432558037891    -0.333058109851    -0.000006064623    12.000000000000
         H            3.522492962109    -0.031663109851    -0.000012064623     1.007825032230
         H            1.062011962109     2.361802890149    -0.883911064623     1.007825032230
         H            1.062056962109     2.361788890149     0.883947935377     1.007825032230
         H            2.610052962109     2.205206890149    -0.000022064623     1.007825032230
         H            2.464404962109    -2.597534109851    -0.000005064623     1.007825032230
         H           -1.695462037891    -1.613398109851    -0.000001064623     1.007825032230
         H           -3.924840037891    -0.734089109851     0.890801935377     1.007825032230
         H           -3.924834037891    -0.734092109851    -0.890816064623     1.007825032230
         H           -3.518930037891     0.753482890149    -0.000009064623     1.007825032230

  Basis Set: AUG-CC-PVTZ
    Blend: AUG-CC-PVTZ
  Basis Set: (AUG-CC-PVTZ AUX)
    Blend: AUG-CC-PVTZ-JKFIT
	 Reference Energy          =    -470.7716778821108505 [Eh]
	 Singles Energy            =      -0.0000000000000000 [Eh]
	 Same-Spin Energy          =      -0.4973887100881715 [Eh]
	 Opposite-Spin Energy      =      -1.5362378611404335 [Eh]
	 Correlation Energy        =      -2.0336265712286048 [Eh]
	 Total Energy              =    -472.8053044533394313 [Eh]

	 ================> DF-SCS-MP2 Energies <==================
	-----------------------------------------------------------
	 SCS Same-Spin Scale       =       0.3333333333333333 [-]
	 SCS Opposite-Spin Scale   =       1.2000000000000000 [-]
	 SCS Same-Spin Energy      =      -0.1657962366960572 [Eh]
	 SCS Opposite-Spin Energy  =      -1.8434854333685200 [Eh]
	 SCS Correlation Energy    =      -2.0092816700645773 [Eh]
	 SCS Total Energy          =    -472.7809595521754318 [Eh]
	-----------------------------------------------------------

  Dipole Moment: [D]
     X:     1.1903      Y:     0.1279      Z:    -0.0000     Total:     1.1971

*** Psi4 exiting successfully. Buy a developer a beer!
