                               Psi4 1.4a3.dev225

  ==> Input File <==

--------------------------------------------------------------------------
#psi4
#
memory 32 gb

molecule  {
0 1
  O       -1.2482290     1.5306510     0.0000030
  N        1.4640540     0.4968240    -0.0000070
  N        0.6053200    -1.5732460     0.0000100
  N       -1.9984820    -0.6503890    -0.0000010
  C        0.3259400    -0.2627350     0.0000100
  C        2.5213300    -0.3786110    -0.0000100
  C        1.5711040     1.9546380     0.0000020
  C       -1.0383320     0.3066720     0.0000020
  C        2.0189757    -1.6482968    -0.0000004
  C       -3.4103270    -0.3314980    -0.0000060
  H        3.5447240    -0.0301030    -0.0000120
  H        1.0842430     2.3633630    -0.8839110
  H        1.0842880     2.3633490     0.8839480
  H        2.6322840     2.2067670    -0.0000220
  H        2.4866360    -2.5959740    -0.0000050
  H       -1.6732310    -1.6118380    -0.0000010
  H       -3.9026090    -0.7325290     0.8908020
  H       -3.9026030    -0.7325320    -0.8908160
  H       -3.4966990     0.7550430    -0.0000090
units angstrom
no_reorient  #important for SAPT in psi4, default
symmetry c1  #important for SAPT in psi4, default
}

set PROPERTIES_ORIGIN ["COM"]
properties('MP2/aug-cc-pvtz', properties = ['dipole'])
--------------------------------------------------------------------------

    Molecular point group: c1
  Charge       = 0
  Multiplicity = 1
  Basis Set: AUG-CC-PVTZ
    Blend: AUG-CC-PVTZ
  Basis Set: (AUG-CC-PVTZ AUX)
    Blend: AUG-CC-PVTZ-JKFIT

    Orbital Energies [Eh]
    ---------------------

    Doubly Occupied:

       1A    -20.523737     2A    -15.634351     3A    -15.585520
       4A    -15.566685     5A    -11.363311     6A    -11.306884
       7A    -11.274256     8A    -11.273181     9A    -11.258732
      10A    -11.254492    11A     -1.381881    12A     -1.342364
      13A     -1.234916    14A     -1.180387    15A     -1.038795
      16A     -0.976005    17A     -0.951788    18A     -0.844640
      19A     -0.814251    20A     -0.772341    21A     -0.733089
      22A     -0.659393    23A     -0.655266    24A     -0.645935
      25A     -0.619542    26A     -0.608276    27A     -0.593177
      28A     -0.584404    29A     -0.562999    30A     -0.558142
      31A     -0.546145    32A     -0.529700    33A     -0.457130
      34A     -0.433509    35A     -0.396578    36A     -0.384932
      37A     -0.329311

  @DF-RHF Final Energy:  -470.83259836531585

   => Energetics <=

    Nuclear Repulsion Energy =            526.3438413411105330
    One-Electron Energy =               -1684.6007948797869176
    Two-Electron Energy =                 687.4243551733607092
    Total Energy =                       -470.8325983653157891
  Basis Set: (AUG-CC-PVTZ AUX)
    Blend: AUG-CC-PVTZ-RI
    Molecular point group: c1

    Geometry (in Angstrom), charge = 0, multiplicity = 1:

       Center              X                  Y                   Z               Mass
    ------------   -----------------  -----------------  -----------------  -----------------
         O           -1.267872723612     1.545139032736     0.000002849092    15.994914619570
         N            1.444410276388     0.511312032736    -0.000007150908    14.003074004430
         N            0.585676276388    -1.558757967264     0.000009849092    14.003074004430
         N           -2.018125723612    -0.635900967264    -0.000001150908    14.003074004430
         C            0.306296276388    -0.248246967264     0.000009849092    12.000000000000
         C            2.501686276388    -0.364122967264    -0.000010150908    12.000000000000
         C            1.551460276388     1.969126032736     0.000001849092    12.000000000000
         C           -1.057975723612     0.321160032736     0.000001849092    12.000000000000
         C            1.999331976388    -1.633808767264    -0.000000550908    12.000000000000
         C           -3.429970723612    -0.317009967264    -0.000006150908    12.000000000000
         H            3.525080276388    -0.015614967264    -0.000012150908     1.007825032230
         H            1.064599276388     2.377851032736    -0.883911150908     1.007825032230
         H            1.064644276388     2.377837032736     0.883947849092     1.007825032230
         H            2.612640276388     2.221255032736    -0.000022150908     1.007825032230
         H            2.466992276388    -2.581485967264    -0.000005150908     1.007825032230
         H           -1.692874723612    -1.597349967264    -0.000001150908     1.007825032230
         H           -3.922252723612    -0.718040967264     0.890801849092     1.007825032230
         H           -3.922246723612    -0.718043967264    -0.890816150908     1.007825032230
         H           -3.516342723612     0.769531032736    -0.000009150908     1.007825032230

  Basis Set: AUG-CC-PVTZ
    Blend: AUG-CC-PVTZ
  Basis Set: (AUG-CC-PVTZ AUX)
    Blend: AUG-CC-PVTZ-JKFIT
	 Reference Energy          =    -470.8325983653158460 [Eh]
	 Singles Energy            =      -0.0000000000000000 [Eh]
	 Same-Spin Energy          =      -0.4988055405721202 [Eh]
	 Opposite-Spin Energy      =      -1.5373488480253712 [Eh]
	 Correlation Energy        =      -2.0361543885974913 [Eh]
	 Total Energy              =    -472.8687527539133271 [Eh]

	 ================> DF-SCS-MP2 Energies <==================
	-----------------------------------------------------------
	 SCS Same-Spin Scale       =       0.3333333333333333 [-]
	 SCS Opposite-Spin Scale   =       1.2000000000000000 [-]
	 SCS Same-Spin Energy      =      -0.1662685135240401 [Eh]
	 SCS Opposite-Spin Energy  =      -1.8448186176304453 [Eh]
	 SCS Correlation Energy    =      -2.0110871311544853 [Eh]
	 SCS Total Energy          =    -472.8436854964703571 [Eh]
	-----------------------------------------------------------

  Dipole Moment: [D]
     X:     1.3708      Y:     0.0209      Z:    -0.0000     Total:     1.3710

*** Psi4 exiting successfully. Buy a developer a beer!
