                               Psi4 1.3.2 release

  ==> Input File <==

--------------------------------------------------------------------------
#psi4
#
memory 32 gb

molecule  {
0 1
  O       -1.2482290     1.5306510     0.0000030
  N        1.4640540     0.4968240    -0.0000070
  N        0.6053200    -1.5732460     0.0000100
  N       -1.9984820    -0.6503890    -0.0000010
  C        0.3488541    -0.2580587     0.0000098
  C        2.5213300    -0.3786110    -0.0000100
  C        1.5711040     1.9546380     0.0000020
  C       -1.0383320     0.3066720     0.0000020
  C        1.9690460    -1.6456460     0.0000000
  C       -3.4103270    -0.3314980    -0.0000060
  H        3.5447240    -0.0301030    -0.0000120
  H        1.0842430     2.3633630    -0.8839110
  H        1.0842880     2.3633490     0.8839480
  H        2.6322840     2.2067670    -0.0000220
  H        2.4866360    -2.5959740    -0.0000050
  H       -1.6732310    -1.6118380    -0.0000010
  H       -3.9026090    -0.7325290     0.8908020
  H       -3.9026030    -0.7325320    -0.8908160
  H       -3.4966990     0.7550430    -0.0000090
units angstrom
no_reorient  #important for SAPT in psi4, default
symmetry c1  #important for SAPT in psi4, default
}

set PROPERTIES_ORIGIN ["COM"]
properties('MP2/aug-cc-pvtz', properties = ['dipole'])
--------------------------------------------------------------------------

    Molecular point group: c1
  Charge       = 0
  Multiplicity = 1
  Basis Set: AUG-CC-PVTZ
    Blend: AUG-CC-PVTZ
  Basis Set: (AUG-CC-PVTZ AUX)
    Blend: AUG-CC-PVTZ-JKFIT

    Orbital Energies [Eh]
    ---------------------

    Doubly Occupied:

       1A    -20.522378     2A    -15.638149     3A    -15.585196
       4A    -15.563268     5A    -11.363117     6A    -11.304596
       7A    -11.276194     8A    -11.270293     9A    -11.258543
      10A    -11.255211    11A     -1.382408    12A     -1.350667
      13A     -1.234300    14A     -1.192142    15A     -1.033816
      16A     -0.980762    17A     -0.951768    18A     -0.837234
      19A     -0.816407    20A     -0.772699    21A     -0.735774
      22A     -0.658550    23A     -0.658341    24A     -0.645271
      25A     -0.619361    26A     -0.605130    27A     -0.597222
      28A     -0.581992    29A     -0.563695    30A     -0.560793
      31A     -0.545789    32A     -0.530434    33A     -0.458819
      34A     -0.432779    35A     -0.399449    36A     -0.389106
      37A     -0.323389

  @DF-RHF Final Energy:  -470.83589697326613

   => Energetics <=

    Nuclear Repulsion Energy =            527.2468725616761276
    One-Electron Energy =               -1686.3754576119549711
    Two-Electron Energy =                 688.2926880770127127
    Total Energy =                       -470.8358969732661308
  Basis Set: (AUG-CC-PVTZ AUX)
    Blend: AUG-CC-PVTZ-RI
    Molecular point group: c1

    Geometry (in Angstrom), charge = 0, multiplicity = 1:

       Center              X                  Y                   Z               Mass
    ------------   -----------------  -----------------  -----------------  -----------------
         O           -1.265541692001     1.544506816472     0.000002831835    15.994914619570
         N            1.446741307999     0.510679816472    -0.000007168165    14.003074004430
         N            0.588007307999    -1.559390183528     0.000009831835    14.003074004430
         N           -2.015794692001    -0.636533183528    -0.000001168165    14.003074004430
         C            0.331541407999    -0.244202883528     0.000009631835    12.000000000000
         C            2.504017307999    -0.364755183528    -0.000010168165    12.000000000000
         C            1.553791307999     1.968493816472     0.000001831835    12.000000000000
         C           -1.055644692001     0.320527816472     0.000001831835    12.000000000000
         C            1.951733307999    -1.631790183528    -0.000000168165    12.000000000000
         C           -3.427639692001    -0.317642183528    -0.000006168165    12.000000000000
         H            3.527411307999    -0.016247183528    -0.000012168165     1.007825032230
         H            1.066930307999     2.377218816472    -0.883911168165     1.007825032230
         H            1.066975307999     2.377204816472     0.883947831835     1.007825032230
         H            2.614971307999     2.220622816472    -0.000022168165     1.007825032230
         H            2.469323307999    -2.582118183528    -0.000005168165     1.007825032230
         H           -1.690543692001    -1.597982183528    -0.000001168165     1.007825032230
         H           -3.919921692001    -0.718673183528     0.890801831835     1.007825032230
         H           -3.919915692001    -0.718676183528    -0.890816168165     1.007825032230
         H           -3.514011692001     0.768898816472    -0.000009168165     1.007825032230

  Basis Set: AUG-CC-PVTZ
    Blend: AUG-CC-PVTZ
  Basis Set: (AUG-CC-PVTZ AUX)
    Blend: AUG-CC-PVTZ-JKFIT
	 Reference Energy          =    -470.8358969732661308 [Eh]
	 Singles Energy            =      -0.0000000000000000 [Eh]
	 Same-Spin Energy          =      -0.4988774333364430 [Eh]
	 Opposite-Spin Energy      =      -1.5363398276905555 [Eh]
	 Correlation Energy        =      -2.0352172610269985 [Eh]
	 Total Energy              =    -472.8711142342931453 [Eh]

	 ================> DF-SCS-MP2 Energies <==================
	-----------------------------------------------------------
	 SCS Same-Spin Scale       =       0.3333333333333333 [-]
	 SCS Opposite-Spin Scale   =       1.2000000000000000 [-]
	 SCS Same-Spin Energy      =      -0.1662924777788143 [Eh]
	 SCS Opposite-Spin Energy  =      -1.8436077932286665 [Eh]
	 SCS Correlation Energy    =      -2.0099002710074809 [Eh]
	 SCS Total Energy          =    -472.8457972442736263 [Eh]
	-----------------------------------------------------------

  Dipole Moment: [D]
     X:     1.3643      Y:     0.0578      Z:    -0.0000     Total:     1.3655

*** Psi4 exiting successfully. Buy a developer a beer!
