                               Psi4 1.3.2 release

  ==> Input File <==

--------------------------------------------------------------------------
#psi4
#
memory 32 gb

molecule  {
0 1
  O       -1.2482290     1.5306510     0.0000030
  N        1.4640540     0.4968240    -0.0000070
  N        0.6053200    -1.5732460     0.0000100
  N       -1.9984820    -0.6503890    -0.0000010
  C        0.3259400    -0.2627350     0.0000100
  C        2.5213300    -0.3786110    -0.0000100
  C        1.5711040     1.9546380     0.0000020
  C       -1.2229012     0.3837058     0.0000009
  C        1.9690460    -1.6456460     0.0000000
  C       -3.4103270    -0.3314980    -0.0000060
  H        3.5447240    -0.0301030    -0.0000120
  H        1.0842430     2.3633630    -0.8839110
  H        1.0842880     2.3633490     0.8839480
  H        2.6322840     2.2067670    -0.0000220
  H        2.4866360    -2.5959740    -0.0000050
  H       -1.6732310    -1.6118380    -0.0000010
  H       -3.9026090    -0.7325290     0.8908020
  H       -3.9026030    -0.7325320    -0.8908160
  H       -3.4966990     0.7550430    -0.0000090
units angstrom
no_reorient  #important for SAPT in psi4, default
symmetry c1  #important for SAPT in psi4, default
}

set PROPERTIES_ORIGIN ["COM"]
properties('MP2/aug-cc-pvtz', properties = ['dipole'])
--------------------------------------------------------------------------

    Molecular point group: c1
  Charge       = 0
  Multiplicity = 1
  Basis Set: AUG-CC-PVTZ
    Blend: AUG-CC-PVTZ
  Basis Set: (AUG-CC-PVTZ AUX)
    Blend: AUG-CC-PVTZ-JKFIT

    Orbital Energies [Eh]
    ---------------------

    Doubly Occupied:

       1A    -20.541936     2A    -15.619609     3A    -15.597196
       4A    -15.544782     5A    -11.369575     6A    -11.289076
       7A    -11.269018     8A    -11.267246     9A    -11.254130
      10A    -11.240162    11A     -1.448074    12A     -1.334468
      13A     -1.276547    14A     -1.176236    15A     -1.009289
      16A     -0.971967    17A     -0.950339    18A     -0.824189
      19A     -0.800048    20A     -0.783558    21A     -0.724878
      22A     -0.680979    23A     -0.657659    24A     -0.653419
      25A     -0.632576    26A     -0.600745    27A     -0.590811
      28A     -0.579806    29A     -0.572380    30A     -0.561769
      31A     -0.553075    32A     -0.541385    33A     -0.444595
      34A     -0.418784    35A     -0.411642    36A     -0.382133
      37A     -0.306649

  @DF-RHF Final Energy:  -470.80179078933338

   => Energetics <=

    Nuclear Repulsion Energy =            526.6847286675630357
    One-Electron Energy =               -1685.2115772020613349
    Two-Electron Energy =                 687.7250577451648041
    Total Energy =                       -470.8017907893333813
  Basis Set: (AUG-CC-PVTZ AUX)
    Blend: AUG-CC-PVTZ-RI
    Molecular point group: c1

    Geometry (in Angstrom), charge = 0, multiplicity = 1:

       Center              X                  Y                   Z               Mass
    ------------   -----------------  -----------------  -----------------  -----------------
         O           -1.247639067930     1.538263474857     0.000002909491    15.994914619570
         N            1.464643932070     0.504436474857    -0.000007090509    14.003074004430
         N            0.605909932070    -1.565633525143     0.000009909491    14.003074004430
         N           -1.997892067930    -0.642776525143    -0.000001090509    14.003074004430
         C            0.326529932070    -0.255122525143     0.000009909491    12.000000000000
         C            2.521919932070    -0.370998525143    -0.000010090509    12.000000000000
         C            1.571693932070     1.962250474857     0.000001909491    12.000000000000
         C           -1.222311267930     0.391318274857     0.000000809491    12.000000000000
         C            1.969635932070    -1.638033525143    -0.000000090509    12.000000000000
         C           -3.409737067930    -0.323885525143    -0.000006090509    12.000000000000
         H            3.545313932070    -0.022490525143    -0.000012090509     1.007825032230
         H            1.084832932070     2.370975474857    -0.883911090509     1.007825032230
         H            1.084877932070     2.370961474857     0.883947909491     1.007825032230
         H            2.632873932070     2.214379474857    -0.000022090509     1.007825032230
         H            2.487225932070    -2.588361525143    -0.000005090509     1.007825032230
         H           -1.672641067930    -1.604225525143    -0.000001090509     1.007825032230
         H           -3.902019067930    -0.724916525143     0.890801909491     1.007825032230
         H           -3.902013067930    -0.724919525143    -0.890816090509     1.007825032230
         H           -3.496109067930     0.762655474857    -0.000009090509     1.007825032230

  Basis Set: AUG-CC-PVTZ
    Blend: AUG-CC-PVTZ
  Basis Set: (AUG-CC-PVTZ AUX)
    Blend: AUG-CC-PVTZ-JKFIT
	 Reference Energy          =    -470.8017907893333813 [Eh]
	 Singles Energy            =      -0.0000000000000000 [Eh]
	 Same-Spin Energy          =      -0.4969263818193881 [Eh]
	 Opposite-Spin Energy      =      -1.5329373768349186 [Eh]
	 Correlation Energy        =      -2.0298637586543067 [Eh]
	 Total Energy              =    -472.8316545479876822 [Eh]

	 ================> DF-SCS-MP2 Energies <==================
	-----------------------------------------------------------
	 SCS Same-Spin Scale       =       0.3333333333333333 [-]
	 SCS Opposite-Spin Scale   =       1.2000000000000000 [-]
	 SCS Same-Spin Energy      =      -0.1656421272731294 [Eh]
	 SCS Opposite-Spin Energy  =      -1.8395248522019023 [Eh]
	 SCS Correlation Energy    =      -2.0051669794750318 [Eh]
	 SCS Total Energy          =    -472.8069577688083882 [Eh]
	-----------------------------------------------------------

  Dipole Moment: [D]
     X:    -0.1564      Y:     0.5462      Z:    -0.0000     Total:     0.5681

*** Psi4 exiting successfully. Buy a developer a beer!
