                               Psi4 1.3.2 release

  ==> Input File <==

--------------------------------------------------------------------------
#psi4
#
memory 32 gb

molecule  {
0 1
  O       -1.2482290     1.5306510     0.0000030
  N        1.4640540     0.4968240    -0.0000070
  N        0.6053200    -1.5732460     0.0000100
  N       -1.9984820    -0.6503890    -0.0000010
  C        0.3676398    -0.4583395     0.0000100
  C        2.5213300    -0.3786110    -0.0000100
  C        1.5711040     1.9546380     0.0000020
  C       -1.0383320     0.3066720     0.0000020
  C        1.9690460    -1.6456460     0.0000000
  C       -3.4103270    -0.3314980    -0.0000060
  H        3.5447240    -0.0301030    -0.0000120
  H        1.0842430     2.3633630    -0.8839110
  H        1.0842880     2.3633490     0.8839480
  H        2.6322840     2.2067670    -0.0000220
  H        2.4866360    -2.5959740    -0.0000050
  H       -1.6732310    -1.6118380    -0.0000010
  H       -3.9026090    -0.7325290     0.8908020
  H       -3.9026030    -0.7325320    -0.8908160
  H       -3.4966990     0.7550430    -0.0000090
units angstrom
no_reorient  #important for SAPT in psi4, default
symmetry c1  #important for SAPT in psi4, default
}

set PROPERTIES_ORIGIN ["COM"]
properties('MP2/aug-cc-pvtz', properties = ['dipole'])
--------------------------------------------------------------------------

    Molecular point group: c1
  Charge       = 0
  Multiplicity = 1
  Basis Set: AUG-CC-PVTZ
    Blend: AUG-CC-PVTZ
  Basis Set: (AUG-CC-PVTZ AUX)
    Blend: AUG-CC-PVTZ-JKFIT

    Orbital Energies [Eh]
    ---------------------

    Doubly Occupied:

       1A    -20.527901     2A    -15.611352     3A    -15.586327
       4A    -15.555760     5A    -11.365509     6A    -11.302799
       7A    -11.274720     8A    -11.269306     9A    -11.258521
      10A    -11.248964    11A     -1.389943    12A     -1.365877
      13A     -1.238481    14A     -1.219841    15A     -1.030775
      16A     -0.972739    17A     -0.941321    18A     -0.830583
      19A     -0.814157    20A     -0.770925    21A     -0.732340
      22A     -0.656285    23A     -0.653728    24A     -0.644744
      25A     -0.618353    26A     -0.613566    27A     -0.596388
      28A     -0.574604    29A     -0.561440    30A     -0.556602
      31A     -0.546892    32A     -0.532239    33A     -0.484565
      34A     -0.420217    35A     -0.412725    36A     -0.392504
      37A     -0.320071

  @DF-RHF Final Energy:  -470.77993448234679

   => Energetics <=

    Nuclear Repulsion Energy =            527.5921080224595698
    One-Electron Energy =               -1686.9579563339198103
    Two-Electron Energy =                 688.5859138291134514
    Total Energy =                       -470.7799344823467891
  Basis Set: (AUG-CC-PVTZ AUX)
    Blend: AUG-CC-PVTZ-RI
    Molecular point group: c1

    Geometry (in Angstrom), charge = 0, multiplicity = 1:

       Center              X                  Y                   Z               Mass
    ------------   -----------------  -----------------  -----------------  -----------------
         O           -1.267162609565     1.561787975346     0.000002814578    15.994914619570
         N            1.445120390435     0.527960975346    -0.000007185422    14.003074004430
         N            0.586386390435    -1.542109024654     0.000009814578    14.003074004430
         N           -2.017415609565    -0.619252024654    -0.000001185422    14.003074004430
         C            0.348706190435    -0.427202524654     0.000009814578    12.000000000000
         C            2.502396390435    -0.347474024654    -0.000010185422    12.000000000000
         C            1.552170390435     1.985774975346     0.000001814578    12.000000000000
         C           -1.057265609565     0.337808975346     0.000001814578    12.000000000000
         C            1.950112390435    -1.614509024654    -0.000000185422    12.000000000000
         C           -3.429260609565    -0.300361024654    -0.000006185422    12.000000000000
         H            3.525790390435     0.001033975346    -0.000012185422     1.007825032230
         H            1.065309390435     2.394499975346    -0.883911185422     1.007825032230
         H            1.065354390435     2.394485975346     0.883947814578     1.007825032230
         H            2.613350390435     2.237903975346    -0.000022185422     1.007825032230
         H            2.467702390435    -2.564837024654    -0.000005185422     1.007825032230
         H           -1.692164609565    -1.580701024654    -0.000001185422     1.007825032230
         H           -3.921542609565    -0.701392024654     0.890801814578     1.007825032230
         H           -3.921536609565    -0.701395024654    -0.890816185422     1.007825032230
         H           -3.515632609565     0.786179975346    -0.000009185422     1.007825032230

  Basis Set: AUG-CC-PVTZ
    Blend: AUG-CC-PVTZ
  Basis Set: (AUG-CC-PVTZ AUX)
    Blend: AUG-CC-PVTZ-JKFIT
	 Reference Energy          =    -470.7799344823467891 [Eh]
	 Singles Energy            =      -0.0000000000000000 [Eh]
	 Same-Spin Energy          =      -0.4957139525727493 [Eh]
	 Opposite-Spin Energy      =      -1.5322576759322653 [Eh]
	 Correlation Energy        =      -2.0279716285050147 [Eh]
	 Total Energy              =    -472.8079061108518317 [Eh]

	 ================> DF-SCS-MP2 Energies <==================
	-----------------------------------------------------------
	 SCS Same-Spin Scale       =       0.3333333333333333 [-]
	 SCS Opposite-Spin Scale   =       1.2000000000000000 [-]
	 SCS Same-Spin Energy      =      -0.1652379841909164 [Eh]
	 SCS Opposite-Spin Energy  =      -1.8387092111187182 [Eh]
	 SCS Correlation Energy    =      -2.0039471953096348 [Eh]
	 SCS Total Energy          =    -472.7838816776564386 [Eh]
	-----------------------------------------------------------

  Dipole Moment: [D]
     X:     0.8239      Y:    -0.3221      Z:    -0.0000     Total:     0.8846

*** Psi4 exiting successfully. Buy a developer a beer!
