                               Psi4 1.3.2 release

  ==> Input File <==

--------------------------------------------------------------------------
#psi4
#
memory 32 gb

molecule  {
0 1
  O       -1.2482290     1.5306510     0.0000030
  N        1.4640540     0.4968240    -0.0000070
  N        0.6053200    -1.5732460     0.0000100
  N       -1.9984820    -0.6503890    -0.0000010
  C        0.3393695    -0.2824821     0.0000096
  C        2.5213300    -0.3786110    -0.0000100
  C        1.5711040     1.9546380     0.0000020
  C       -1.0383320     0.3066720     0.0000020
  C        1.9690460    -1.6456460     0.0000000
  C       -3.4103270    -0.3314980    -0.0000060
  H        3.5447240    -0.0301030    -0.0000120
  H        1.0842430     2.3633630    -0.8839110
  H        1.0842880     2.3633490     0.8839480
  H        2.6322840     2.2067670    -0.0000220
  H        2.4866360    -2.5959740    -0.0000050
  H       -1.6732310    -1.6118380    -0.0000010
  H       -3.9026090    -0.7325290     0.8908020
  H       -3.9026030    -0.7325320    -0.8908160
  H       -3.4966990     0.7550430    -0.0000090
units angstrom
no_reorient  #important for SAPT in psi4, default
symmetry c1  #important for SAPT in psi4, default
}

set PROPERTIES_ORIGIN ["COM"]
properties('MP2/aug-cc-pvtz', properties = ['dipole'])
--------------------------------------------------------------------------

    Molecular point group: c1
  Charge       = 0
  Multiplicity = 1
  Basis Set: AUG-CC-PVTZ
    Blend: AUG-CC-PVTZ
  Basis Set: (AUG-CC-PVTZ AUX)
    Blend: AUG-CC-PVTZ-JKFIT

    Orbital Energies [Eh]
    ---------------------

    Doubly Occupied:

       1A    -20.523099     2A    -15.635221     3A    -15.585160
       4A    -15.563884     5A    -11.363210     6A    -11.304765
       7A    -11.274929     8A    -11.271788     9A    -11.258469
      10A    -11.254384    11A     -1.381728    12A     -1.348795
      13A     -1.234944    14A     -1.195031    15A     -1.034098
      16A     -0.979252    17A     -0.950299    18A     -0.837246
      19A     -0.815828    20A     -0.772965    21A     -0.734680
      22A     -0.658435    23A     -0.656306    24A     -0.645516
      25A     -0.619204    26A     -0.605501    27A     -0.597198
      28A     -0.580755    29A     -0.563371    30A     -0.561191
      31A     -0.545897    32A     -0.530456    33A     -0.461453
      34A     -0.432116    35A     -0.400667    36A     -0.389412
      37A     -0.323597

  @DF-RHF Final Energy:  -470.83629241643234

   => Energetics <=

    Nuclear Repulsion Energy =            527.1878988428308048
    One-Electron Energy =               -1686.2666878959164478
    Two-Electron Energy =                 688.2424966366531862
    Total Energy =                       -470.8362924164323431
  Basis Set: (AUG-CC-PVTZ AUX)
    Blend: AUG-CC-PVTZ-RI
    Molecular point group: c1

    Geometry (in Angstrom), charge = 0, multiplicity = 1:

       Center              X                  Y                   Z               Mass
    ------------   -----------------  -----------------  -----------------  -----------------
         O           -1.264723316603     1.546614181010     0.000002849092    15.994914619570
         N            1.447559683397     0.512787181010    -0.000007150908    14.003074004430
         N            0.588825683397    -1.557282818990     0.000009849092    14.003074004430
         N           -2.014976316603    -0.634425818990    -0.000001150908    14.003074004430
         C            0.322875183397    -0.266518918990     0.000009449092    12.000000000000
         C            2.504835683397    -0.362647818990    -0.000010150908    12.000000000000
         C            1.554609683397     1.970601181010     0.000001849092    12.000000000000
         C           -1.054826316603     0.322635181010     0.000001849092    12.000000000000
         C            1.952551683397    -1.629682818990    -0.000000150908    12.000000000000
         C           -3.426821316603    -0.315534818990    -0.000006150908    12.000000000000
         H            3.528229683397    -0.014139818990    -0.000012150908     1.007825032230
         H            1.067748683397     2.379326181010    -0.883911150908     1.007825032230
         H            1.067793683397     2.379312181010     0.883947849092     1.007825032230
         H            2.615789683397     2.222730181010    -0.000022150908     1.007825032230
         H            2.470141683397    -2.580010818990    -0.000005150908     1.007825032230
         H           -1.689725316603    -1.595874818990    -0.000001150908     1.007825032230
         H           -3.919103316603    -0.716565818990     0.890801849092     1.007825032230
         H           -3.919097316603    -0.716568818990    -0.890816150908     1.007825032230
         H           -3.513193316603     0.771006181010    -0.000009150908     1.007825032230

  Basis Set: AUG-CC-PVTZ
    Blend: AUG-CC-PVTZ
  Basis Set: (AUG-CC-PVTZ AUX)
    Blend: AUG-CC-PVTZ-JKFIT
	 Reference Energy          =    -470.8362924164323431 [Eh]
	 Singles Energy            =      -0.0000000000000000 [Eh]
	 Same-Spin Energy          =      -0.4986577713876110 [Eh]
	 Opposite-Spin Energy      =      -1.5360196564549480 [Eh]
	 Correlation Energy        =      -2.0346774278425590 [Eh]
	 Total Energy              =    -472.8709698442748959 [Eh]

	 ================> DF-SCS-MP2 Energies <==================
	-----------------------------------------------------------
	 SCS Same-Spin Scale       =       0.3333333333333333 [-]
	 SCS Opposite-Spin Scale   =       1.2000000000000000 [-]
	 SCS Same-Spin Energy      =      -0.1662192571292037 [Eh]
	 SCS Opposite-Spin Energy  =      -1.8432235877459375 [Eh]
	 SCS Correlation Energy    =      -2.0094428448751414 [Eh]
	 SCS Total Energy          =    -472.8457352613074818 [Eh]
	-----------------------------------------------------------

  Dipole Moment: [D]
     X:     1.3248      Y:     0.0129      Z:    -0.0000     Total:     1.3249

*** Psi4 exiting successfully. Buy a developer a beer!
