                               Psi4 1.3.2 release

  ==> Input File <==

--------------------------------------------------------------------------
#psi4
#
memory 32 gb

molecule  {
0 1
  O       -1.2482290     1.5306510     0.0000030
  N        1.4640540     0.4968240    -0.0000070
  N        0.6053200    -1.5732460     0.0000100
  N       -1.9984820    -0.6503890    -0.0000010
  C        0.2842402    -0.0671305     0.0000100
  C        2.5213300    -0.3786110    -0.0000100
  C        1.5711040     1.9546380     0.0000020
  C       -1.0383320     0.3066720     0.0000020
  C        1.9690460    -1.6456460     0.0000000
  C       -3.4103270    -0.3314980    -0.0000060
  H        3.5447240    -0.0301030    -0.0000120
  H        1.0842430     2.3633630    -0.8839110
  H        1.0842880     2.3633490     0.8839480
  H        2.6322840     2.2067670    -0.0000220
  H        2.4866360    -2.5959740    -0.0000050
  H       -1.6732310    -1.6118380    -0.0000010
  H       -3.9026090    -0.7325290     0.8908020
  H       -3.9026030    -0.7325320    -0.8908160
  H       -3.4966990     0.7550430    -0.0000090
units angstrom
no_reorient  #important for SAPT in psi4, default
symmetry c1  #important for SAPT in psi4, default
}

set PROPERTIES_ORIGIN ["COM"]
properties('MP2/aug-cc-pvtz', properties = ['dipole'])
--------------------------------------------------------------------------

    Molecular point group: c1
  Charge       = 0
  Multiplicity = 1
  Basis Set: AUG-CC-PVTZ
    Blend: AUG-CC-PVTZ
  Basis Set: (AUG-CC-PVTZ AUX)
    Blend: AUG-CC-PVTZ-JKFIT

    Orbital Energies [Eh]
    ---------------------

    Doubly Occupied:

       1A    -20.514943     2A    -15.660812     3A    -15.582718
       4A    -15.568480     5A    -11.354335     6A    -11.304841
       7A    -11.278096     8A    -11.273764     9A    -11.263770
      10A    -11.257411    11A     -1.386567    12A     -1.348228
      13A     -1.230468    14A     -1.163829    15A     -1.046438
      16A     -0.982685    17A     -0.955831    18A     -0.864897
      19A     -0.813678    20A     -0.769846    21A     -0.737059
      22A     -0.669200    23A     -0.665653    24A     -0.646247
      25A     -0.619054    26A     -0.607065    27A     -0.599254
      28A     -0.580579    29A     -0.557776    30A     -0.553730
      31A     -0.543974    32A     -0.527821    33A     -0.441542
      34A     -0.423984    35A     -0.394652    36A     -0.387458
      37A     -0.313391

  @DF-RHF Final Energy:  -470.77989074568694

   => Energetics <=

    Nuclear Repulsion Energy =            527.2748372036402316
    One-Electron Energy =               -1686.3293023049532167
    Two-Electron Energy =                 688.2745743556258731
    Total Energy =                       -470.7798907456869983
  Basis Set: (AUG-CC-PVTZ AUX)
    Blend: AUG-CC-PVTZ-RI
    Molecular point group: c1

    Geometry (in Angstrom), charge = 0, multiplicity = 1:

       Center              X                  Y                   Z               Mass
    ------------   -----------------  -----------------  -----------------  -----------------
         O           -1.259966504208     1.528032643421     0.000002814578    15.994914619570
         N            1.452316495792     0.494205643421    -0.000007185422    14.003074004430
         N            0.593582495792    -1.575864356579     0.000009814578    14.003074004430
         N           -2.010219504208    -0.653007356579    -0.000001185422    14.003074004430
         C            0.272502695792    -0.069748856579     0.000009814578    12.000000000000
         C            2.509592495792    -0.381229356579    -0.000010185422    12.000000000000
         C            1.559366495792     1.952019643421     0.000001814578    12.000000000000
         C           -1.050069504208     0.304053643421     0.000001814578    12.000000000000
         C            1.957308495792    -1.648264356579    -0.000000185422    12.000000000000
         C           -3.422064504208    -0.334116356579    -0.000006185422    12.000000000000
         H            3.532986495792    -0.032721356579    -0.000012185422     1.007825032230
         H            1.072505495792     2.360744643421    -0.883911185422     1.007825032230
         H            1.072550495792     2.360730643421     0.883947814578     1.007825032230
         H            2.620546495792     2.204148643421    -0.000022185422     1.007825032230
         H            2.474898495792    -2.598592356579    -0.000005185422     1.007825032230
         H           -1.684968504208    -1.614456356579    -0.000001185422     1.007825032230
         H           -3.914346504208    -0.735147356579     0.890801814578     1.007825032230
         H           -3.914340504208    -0.735150356579    -0.890816185422     1.007825032230
         H           -3.508436504208     0.752424643421    -0.000009185422     1.007825032230

  Basis Set: AUG-CC-PVTZ
    Blend: AUG-CC-PVTZ
  Basis Set: (AUG-CC-PVTZ AUX)
    Blend: AUG-CC-PVTZ-JKFIT
	 Reference Energy          =    -470.7798907456869415 [Eh]
	 Singles Energy            =      -0.0000000000000000 [Eh]
	 Same-Spin Energy          =      -0.5050321543645837 [Eh]
	 Opposite-Spin Energy      =      -1.5472526130554978 [Eh]
	 Correlation Energy        =      -2.0522847674200815 [Eh]
	 Total Energy              =    -472.8321755131070177 [Eh]

	 ================> DF-SCS-MP2 Energies <==================
	-----------------------------------------------------------
	 SCS Same-Spin Scale       =       0.3333333333333333 [-]
	 SCS Opposite-Spin Scale   =       1.2000000000000000 [-]
	 SCS Same-Spin Energy      =      -0.1683440514548612 [Eh]
	 SCS Opposite-Spin Energy  =      -1.8567031356665973 [Eh]
	 SCS Correlation Energy    =      -2.0250471871214586 [Eh]
	 SCS Total Energy          =    -472.8049379328084001 [Eh]
	-----------------------------------------------------------

  Dipole Moment: [D]
     X:     1.8459      Y:     0.0596      Z:    -0.0000     Total:     1.8469

*** Psi4 exiting successfully. Buy a developer a beer!
