                               Psi4 1.3.2 release

  ==> Input File <==

--------------------------------------------------------------------------
#psi4
#
memory 32 gb

molecule  {
0 1
  O       -1.2482290     1.5306510     0.0000030
  N        1.4640540     0.4968240    -0.0000070
  N        0.6067913    -1.5494567     0.0000099
  N       -1.9984820    -0.6503890    -0.0000010
  C        0.3259400    -0.2627350     0.0000100
  C        2.5213300    -0.3786110    -0.0000100
  C        1.5711040     1.9546380     0.0000020
  C       -1.0383320     0.3066720     0.0000020
  C        1.9690460    -1.6456460     0.0000000
  C       -3.4103270    -0.3314980    -0.0000060
  H        3.5447240    -0.0301030    -0.0000120
  H        1.0842430     2.3633630    -0.8839110
  H        1.0842880     2.3633490     0.8839480
  H        2.6322840     2.2067670    -0.0000220
  H        2.4866360    -2.5959740    -0.0000050
  H       -1.6732310    -1.6118380    -0.0000010
  H       -3.9026090    -0.7325290     0.8908020
  H       -3.9026030    -0.7325320    -0.8908160
  H       -3.4966990     0.7550430    -0.0000090
units angstrom
no_reorient  #important for SAPT in psi4, default
symmetry c1  #important for SAPT in psi4, default
}

set PROPERTIES_ORIGIN ["COM"]
properties('MP2/aug-cc-pvtz', properties = ['dipole'])
--------------------------------------------------------------------------

    Molecular point group: c1
  Charge       = 0
  Multiplicity = 1
  Basis Set: AUG-CC-PVTZ
    Blend: AUG-CC-PVTZ
  Basis Set: (AUG-CC-PVTZ AUX)
    Blend: AUG-CC-PVTZ-JKFIT

    Orbital Energies [Eh]
    ---------------------

    Doubly Occupied:

       1A    -20.522333     2A    -15.634804     3A    -15.584876
       4A    -15.562198     5A    -11.361964     6A    -11.302118
       7A    -11.273687     8A    -11.272787     9A    -11.258367
      10A    -11.254673    11A     -1.382298    12A     -1.348445
      13A     -1.234837    14A     -1.192411    15A     -1.037254
      16A     -0.977665    17A     -0.950652    18A     -0.840767
      19A     -0.816519    20A     -0.772784    21A     -0.734151
      22A     -0.660398    23A     -0.656456    24A     -0.645869
      25A     -0.619063    26A     -0.606853    27A     -0.594964
      28A     -0.583705    29A     -0.563719    30A     -0.560990
      31A     -0.545731    32A     -0.530062    33A     -0.457233
      34A     -0.432263    35A     -0.399424    36A     -0.388708
      37A     -0.324464

  @DF-RHF Final Energy:  -470.83679673174606

   => Energetics <=

    Nuclear Repulsion Energy =            527.7849504001541163
    One-Electron Energy =               -1687.4725151027605534
    Two-Electron Energy =                 688.8507679708602609
    Total Energy =                       -470.8367967317460625
  Basis Set: (AUG-CC-PVTZ AUX)
    Blend: AUG-CC-PVTZ-RI
    Molecular point group: c1

    Geometry (in Angstrom), charge = 0, multiplicity = 1:

       Center              X                  Y                   Z               Mass
    ------------   -----------------  -----------------  -----------------  -----------------
         O           -1.263712698448     1.542515023547     0.000002824647    15.994914619570
         N            1.448570301552     0.508688023547    -0.000007175353    14.003074004430
         N            0.591307601552    -1.537592676453     0.000009724647    14.003074004430
         N           -2.013965698448    -0.638524976453    -0.000001175353    14.003074004430
         C            0.310456301552    -0.250870976453     0.000009824647    12.000000000000
         C            2.505846301552    -0.366746976453    -0.000010175353    12.000000000000
         C            1.555620301552     1.966502023547     0.000001824647    12.000000000000
         C           -1.053815698448     0.318536023547     0.000001824647    12.000000000000
         C            1.953562301552    -1.633781976453    -0.000000175353    12.000000000000
         C           -3.425810698448    -0.319633976453    -0.000006175353    12.000000000000
         H            3.529240301552    -0.018238976453    -0.000012175353     1.007825032230
         H            1.068759301552     2.375227023547    -0.883911175353     1.007825032230
         H            1.068804301552     2.375213023547     0.883947824647     1.007825032230
         H            2.616800301552     2.218631023547    -0.000022175353     1.007825032230
         H            2.471152301552    -2.584109976453    -0.000005175353     1.007825032230
         H           -1.688714698448    -1.599973976453    -0.000001175353     1.007825032230
         H           -3.918092698448    -0.720664976453     0.890801824647     1.007825032230
         H           -3.918086698448    -0.720667976453    -0.890816175353     1.007825032230
         H           -3.512182698448     0.766907023547    -0.000009175353     1.007825032230

  Basis Set: AUG-CC-PVTZ
    Blend: AUG-CC-PVTZ
  Basis Set: (AUG-CC-PVTZ AUX)
    Blend: AUG-CC-PVTZ-JKFIT
	 Reference Energy          =    -470.8367967317460625 [Eh]
	 Singles Energy            =      -0.0000000000000000 [Eh]
	 Same-Spin Energy          =      -0.4988058197119129 [Eh]
	 Opposite-Spin Energy      =      -1.5359622409584639 [Eh]
	 Correlation Energy        =      -2.0347680606703769 [Eh]
	 Total Energy              =    -472.8715647924164500 [Eh]

	 ================> DF-SCS-MP2 Energies <==================
	-----------------------------------------------------------
	 SCS Same-Spin Scale       =       0.3333333333333333 [-]
	 SCS Opposite-Spin Scale   =       1.2000000000000000 [-]
	 SCS Same-Spin Energy      =      -0.1662686065706376 [Eh]
	 SCS Opposite-Spin Energy  =      -1.8431546891501567 [Eh]
	 SCS Correlation Energy    =      -2.0094232957207945 [Eh]
	 SCS Total Energy          =    -472.8462200274668703 [Eh]
	-----------------------------------------------------------

  Dipole Moment: [D]
     X:     1.3617      Y:    -0.0472      Z:    -0.0000     Total:     1.3625

*** Psi4 exiting successfully. Buy a developer a beer!
