                               Psi4 1.3.2 release

  ==> Input File <==

--------------------------------------------------------------------------
#psi4
#
memory 32 gb

molecule  {
0 1
  O       -1.2482290     1.5306510     0.0000030
  N        1.4640540     0.4968240    -0.0000070
  N        0.6053200    -1.5732460     0.0000100
  N       -1.9984820    -0.6503890    -0.0000010
  C        0.3718464    -0.2537831     0.0000096
  C        2.5213300    -0.3786110    -0.0000100
  C        1.5711040     1.9546380     0.0000020
  C       -1.0383320     0.3066720     0.0000020
  C        1.9690460    -1.6456460     0.0000000
  C       -3.4103270    -0.3314980    -0.0000060
  H        3.5447240    -0.0301030    -0.0000120
  H        1.0842430     2.3633630    -0.8839110
  H        1.0842880     2.3633490     0.8839480
  H        2.6322840     2.2067670    -0.0000220
  H        2.4866360    -2.5959740    -0.0000050
  H       -1.6732310    -1.6118380    -0.0000010
  H       -3.9026090    -0.7325290     0.8908020
  H       -3.9026030    -0.7325320    -0.8908160
  H       -3.4966990     0.7550430    -0.0000090
units angstrom
no_reorient  #important for SAPT in psi4, default
symmetry c1  #important for SAPT in psi4, default
}

set PROPERTIES_ORIGIN ["COM"]
properties('MP2/aug-cc-pvtz', properties = ['dipole'])
--------------------------------------------------------------------------

    Molecular point group: c1
  Charge       = 0
  Multiplicity = 1
  Basis Set: AUG-CC-PVTZ
    Blend: AUG-CC-PVTZ
  Basis Set: (AUG-CC-PVTZ AUX)
    Blend: AUG-CC-PVTZ-JKFIT

    Orbital Energies [Eh]
    ---------------------

    Doubly Occupied:

       1A    -20.522383     2A    -15.638396     3A    -15.585509
       4A    -15.561125     5A    -11.363901     6A    -11.304322
       7A    -11.277519     8A    -11.268101     9A    -11.258724
      10A    -11.255144    11A     -1.383564    12A     -1.354798
      13A     -1.233978    14A     -1.193686    15A     -1.031878
      16A     -0.982706    17A     -0.952707    18A     -0.833797
      19A     -0.818044    20A     -0.772383    21A     -0.736923
      22A     -0.661031    23A     -0.657155    24A     -0.644760
      25A     -0.619506    26A     -0.605063    27A     -0.599368
      28A     -0.579805    29A     -0.563650    30A     -0.561585
      31A     -0.545844    32A     -0.530790    33A     -0.459643
      34A     -0.431427    35A     -0.399850    36A     -0.389340
      37A     -0.323567

  @DF-RHF Final Energy:  -470.83495194325161

   => Energetics <=

    Nuclear Repulsion Energy =            527.3716865849278292
    One-Electron Energy =               -1686.6093381598493579
    Two-Electron Energy =                 688.4026996316698614
    Total Energy =                       -470.8349519432516672
  Basis Set: (AUG-CC-PVTZ AUX)
    Blend: AUG-CC-PVTZ-RI
    Molecular point group: c1

    Geometry (in Angstrom), charge = 0, multiplicity = 1:

       Center              X                  Y                   Z               Mass
    ------------   -----------------  -----------------  -----------------  -----------------
         O           -1.267525574576     1.544137897819     0.000002849092    15.994914619570
         N            1.444757425424     0.510310897819    -0.000007150908    14.003074004430
         N            0.586023425424    -1.559759102181     0.000009849092    14.003074004430
         N           -2.017778574576    -0.636902102181    -0.000001150908    14.003074004430
         C            0.352549825424    -0.240296202181     0.000009449092    12.000000000000
         C            2.502033425424    -0.365124102181    -0.000010150908    12.000000000000
         C            1.551807425424     1.968124897819     0.000001849092    12.000000000000
         C           -1.057628574576     0.320158897819     0.000001849092    12.000000000000
         C            1.949749425424    -1.632159102181    -0.000000150908    12.000000000000
         C           -3.429623574576    -0.318011102181    -0.000006150908    12.000000000000
         H            3.525427425424    -0.016616102181    -0.000012150908     1.007825032230
         H            1.064946425424     2.376849897819    -0.883911150908     1.007825032230
         H            1.064991425424     2.376835897819     0.883947849092     1.007825032230
         H            2.612987425424     2.220253897819    -0.000022150908     1.007825032230
         H            2.467339425424    -2.582487102181    -0.000005150908     1.007825032230
         H           -1.692527574576    -1.598351102181    -0.000001150908     1.007825032230
         H           -3.921905574576    -0.719042102181     0.890801849092     1.007825032230
         H           -3.921899574576    -0.719045102181    -0.890816150908     1.007825032230
         H           -3.515995574576     0.768529897819    -0.000009150908     1.007825032230

  Basis Set: AUG-CC-PVTZ
    Blend: AUG-CC-PVTZ
  Basis Set: (AUG-CC-PVTZ AUX)
    Blend: AUG-CC-PVTZ-JKFIT
	 Reference Energy          =    -470.8349519432516104 [Eh]
	 Singles Energy            =      -0.0000000000000000 [Eh]
	 Same-Spin Energy          =      -0.4984673574771902 [Eh]
	 Opposite-Spin Energy      =      -1.5356776562800905 [Eh]
	 Correlation Energy        =      -2.0341450137572807 [Eh]
	 Total Energy              =    -472.8690969570088782 [Eh]

	 ================> DF-SCS-MP2 Energies <==================
	-----------------------------------------------------------
	 SCS Same-Spin Scale       =       0.3333333333333333 [-]
	 SCS Opposite-Spin Scale   =       1.2000000000000000 [-]
	 SCS Same-Spin Energy      =      -0.1661557858257301 [Eh]
	 SCS Opposite-Spin Energy  =      -1.8428131875361085 [Eh]
	 SCS Correlation Energy    =      -2.0089689733618386 [Eh]
	 SCS Total Energy          =    -472.8439209166134560 [Eh]
	-----------------------------------------------------------

  Dipole Moment: [D]
     X:     1.3343      Y:     0.1022      Z:    -0.0000     Total:     1.3382

*** Psi4 exiting successfully. Buy a developer a beer!
