                               Psi4 1.3.2 release

  ==> Input File <==

--------------------------------------------------------------------------
#psi4
#
memory 32 gb

molecule  {
0 1
  O       -1.2482290     1.5306510     0.0000030
  N        1.4640540     0.4968240    -0.0000070
  N        0.6053200    -1.5732460     0.0000100
  N       -1.9984820    -0.6503890    -0.0000010
  C        0.3259400    -0.2627350     0.0000100
  C        2.5213300    -0.3786110    -0.0000100
  C        1.5711040     1.9546380     0.0000020
  C       -1.0383320     0.3066720     0.0000020
  C        1.9690460    -1.6456460     0.0000000
  C       -3.4103270    -0.3314980    -0.0000060
  H        3.5447240    -0.0301030    -0.0000120
  H        1.0842430     2.3633630    -0.8839110
  H        1.0842880     2.3633490     0.8839480
  H        2.6322840     2.2067670    -0.0000220
  H        2.3909754    -2.4203350    -0.0000041
  H       -1.6732310    -1.6118380    -0.0000010
  H       -3.9026090    -0.7325290     0.8908020
  H       -3.9026030    -0.7325320    -0.8908160
  H       -3.4966990     0.7550430    -0.0000090
units angstrom
no_reorient  #important for SAPT in psi4, default
symmetry c1  #important for SAPT in psi4, default
}

set PROPERTIES_ORIGIN ["COM"]
properties('MP2/aug-cc-pvtz', properties = ['dipole'])
--------------------------------------------------------------------------

    Molecular point group: c1
  Charge       = 0
  Multiplicity = 1
  Basis Set: AUG-CC-PVTZ
    Blend: AUG-CC-PVTZ
  Basis Set: (AUG-CC-PVTZ AUX)
    Blend: AUG-CC-PVTZ-JKFIT

    Orbital Energies [Eh]
    ---------------------

    Doubly Occupied:

       1A    -20.521937     2A    -15.637227     3A    -15.584481
       4A    -15.564362     5A    -11.361701     6A    -11.303947
       7A    -11.274550     8A    -11.271886     9A    -11.258106
      10A    -11.232298    11A     -1.381236    12A     -1.345698
      13A     -1.234277    14A     -1.191057    15A     -1.040198
      16A     -0.979747    17A     -0.954049    18A     -0.857759
      19A     -0.824664    20A     -0.772581    21A     -0.741669
      22A     -0.663012    23A     -0.655758    24A     -0.649619
      25A     -0.625028    26A     -0.618883    27A     -0.595884
      28A     -0.584909    29A     -0.568466    30A     -0.559683
      31A     -0.545514    32A     -0.529579    33A     -0.458920
      34A     -0.433384    35A     -0.398654    36A     -0.388463
      37A     -0.322969

  @DF-RHF Final Energy:  -470.79924818034311

   => Energetics <=

    Nuclear Repulsion Energy =            528.3533023014248329
    One-Electron Energy =               -1688.4407884259819639
    Two-Electron Energy =                 689.2882379442138472
    Total Energy =                       -470.7992481803431701
  Basis Set: (AUG-CC-PVTZ AUX)
    Blend: AUG-CC-PVTZ-RI
    Molecular point group: c1

    Geometry (in Angstrom), charge = 0, multiplicity = 1:

       Center              X                  Y                   Z               Mass
    ------------   -----------------  -----------------  -----------------  -----------------
         O           -1.262871337753     1.543637514572     0.000002808056    15.994914619570
         N            1.449411662247     0.509810514572    -0.000007191944    14.003074004430
         N            0.590677662247    -1.560259485428     0.000009808056    14.003074004430
         N           -2.013124337753    -0.637402485428    -0.000001191944    14.003074004430
         C            0.311297662247    -0.249748485428     0.000009808056    12.000000000000
         C            2.506687662247    -0.365624485428    -0.000010191944    12.000000000000
         C            1.556461662247     1.967624514572     0.000001808056    12.000000000000
         C           -1.052974337753     0.319658514572     0.000001808056    12.000000000000
         C            1.954403662247    -1.632659485428    -0.000000191944    12.000000000000
         C           -3.424969337753    -0.318511485428    -0.000006191944    12.000000000000
         H            3.530081662247    -0.017116485428    -0.000012191944     1.007825032230
         H            1.069600662247     2.376349514572    -0.883911191944     1.007825032230
         H            1.069645662247     2.376335514572     0.883947808056     1.007825032230
         H            2.617641662247     2.219753514572    -0.000022191944     1.007825032230
         H            2.376333062247    -2.407348485428    -0.000004291944     1.007825032230
         H           -1.687873337753    -1.598851485428    -0.000001191944     1.007825032230
         H           -3.917251337753    -0.719542485428     0.890801808056     1.007825032230
         H           -3.917245337753    -0.719545485428    -0.890816191944     1.007825032230
         H           -3.511341337753     0.768029514572    -0.000009191944     1.007825032230

  Basis Set: AUG-CC-PVTZ
    Blend: AUG-CC-PVTZ
  Basis Set: (AUG-CC-PVTZ AUX)
    Blend: AUG-CC-PVTZ-JKFIT
	 Reference Energy          =    -470.7992481803431133 [Eh]
	 Singles Energy            =      -0.0000000000000000 [Eh]
	 Same-Spin Energy          =      -0.4991216409595253 [Eh]
	 Opposite-Spin Energy      =      -1.5365516230296101 [Eh]
	 Correlation Energy        =      -2.0356732639891355 [Eh]
	 Total Energy              =    -472.8349214443322239 [Eh]

	 ================> DF-SCS-MP2 Energies <==================
	-----------------------------------------------------------
	 SCS Same-Spin Scale       =       0.3333333333333333 [-]
	 SCS Opposite-Spin Scale   =       1.2000000000000000 [-]
	 SCS Same-Spin Energy      =      -0.1663738803198417 [Eh]
	 SCS Opposite-Spin Energy  =      -1.8438619476355320 [Eh]
	 SCS Correlation Energy    =      -2.0102358279553738 [Eh]
	 SCS Total Energy          =    -472.8094840082985115 [Eh]
	-----------------------------------------------------------

  Dipole Moment: [D]
     X:     1.4201      Y:     0.0257      Z:    -0.0000     Total:     1.4203

*** Psi4 exiting successfully. Buy a developer a beer!
