                               Psi4 1.3.2 release

  ==> Input File <==

--------------------------------------------------------------------------
#psi4
#
memory 32 gb

molecule  {
0 1
  O       -1.2482290     1.5306510     0.0000030
  N        1.4640540     0.4968240    -0.0000070
  N        0.6053200    -1.5732460     0.0000100
  N       -2.0932623    -0.5447831    -0.0000017
  C        0.3259400    -0.2627350     0.0000100
  C        2.5213300    -0.3786110    -0.0000100
  C        1.5711040     1.9546380     0.0000020
  C       -1.0383320     0.3066720     0.0000020
  C        1.9690460    -1.6456460     0.0000000
  C       -3.4103270    -0.3314980    -0.0000060
  H        3.5447240    -0.0301030    -0.0000120
  H        1.0842430     2.3633630    -0.8839110
  H        1.0842880     2.3633490     0.8839480
  H        2.6322840     2.2067670    -0.0000220
  H        2.4866360    -2.5959740    -0.0000050
  H       -1.6732310    -1.6118380    -0.0000010
  H       -3.9026090    -0.7325290     0.8908020
  H       -3.9026030    -0.7325320    -0.8908160
  H       -3.4966990     0.7550430    -0.0000090
units angstrom
no_reorient  #important for SAPT in psi4, default
symmetry c1  #important for SAPT in psi4, default
}

set PROPERTIES_ORIGIN ["COM"]
properties('MP2/aug-cc-pvtz', properties = ['dipole'])
--------------------------------------------------------------------------

    Molecular point group: c1
  Charge       = 0
  Multiplicity = 1
  Basis Set: AUG-CC-PVTZ
    Blend: AUG-CC-PVTZ
  Basis Set: (AUG-CC-PVTZ AUX)
    Blend: AUG-CC-PVTZ-JKFIT

    Orbital Energies [Eh]
    ---------------------

    Doubly Occupied:

       1A    -20.516686     2A    -15.642413     3A    -15.588248
       4A    -15.570529     5A    -11.362982     6A    -11.311767
       7A    -11.276757     8A    -11.276645     9A    -11.258823
      10A    -11.247953    11A     -1.383947    12A     -1.350388
      13A     -1.242376    14A     -1.196222    15A     -1.042660
      16A     -0.984203    17A     -0.957350    18A     -0.838620
      19A     -0.816896    20A     -0.753072    21A     -0.734979
      22A     -0.668972    23A     -0.660133    24A     -0.653069
      25A     -0.631349    26A     -0.614177    27A     -0.598333
      28A     -0.590211    29A     -0.565766    30A     -0.561983
      31A     -0.527233    32A     -0.515864    33A     -0.460824
      34A     -0.431360    35A     -0.400118    36A     -0.378844
      37A     -0.327123

  @DF-RHF Final Energy:  -470.80427053809899

   => Energetics <=

    Nuclear Repulsion Energy =            527.5364070567625276
    One-Electron Energy =               -1686.8035997883414439
    Two-Electron Energy =                 688.4629221934799261
    Total Energy =                       -470.8042705380989901
  Basis Set: (AUG-CC-PVTZ AUX)
    Blend: AUG-CC-PVTZ-RI
    Molecular point group: c1

    Geometry (in Angstrom), charge = 0, multiplicity = 1:

       Center              X                  Y                   Z               Mass
    ------------   -----------------  -----------------  -----------------  -----------------
         O           -1.254021362669     1.534277112251     0.000002885060    15.994914619570
         N            1.458261637331     0.500450112251    -0.000007114940    14.003074004430
         N            0.599527637331    -1.569619887749     0.000009885060    14.003074004430
         N           -2.099054662669    -0.541156987749    -0.000001814940    14.003074004430
         C            0.320147637331    -0.259108887749     0.000009885060    12.000000000000
         C            2.515537637331    -0.374984887749    -0.000010114940    12.000000000000
         C            1.565311637331     1.958264112251     0.000001885060    12.000000000000
         C           -1.044124362669     0.310298112251     0.000001885060    12.000000000000
         C            1.963253637331    -1.642019887749    -0.000000114940    12.000000000000
         C           -3.416119362669    -0.327871887749    -0.000006114940    12.000000000000
         H            3.538931637331    -0.026476887749    -0.000012114940     1.007825032230
         H            1.078450637331     2.366989112251    -0.883911114940     1.007825032230
         H            1.078495637331     2.366975112251     0.883947885060     1.007825032230
         H            2.626491637331     2.210393112251    -0.000022114940     1.007825032230
         H            2.480843637331    -2.592347887749    -0.000005114940     1.007825032230
         H           -1.679023362669    -1.608211887749    -0.000001114940     1.007825032230
         H           -3.908401362669    -0.728902887749     0.890801885060     1.007825032230
         H           -3.908395362669    -0.728905887749    -0.890816114940     1.007825032230
         H           -3.502491362669     0.758669112251    -0.000009114940     1.007825032230

  Basis Set: AUG-CC-PVTZ
    Blend: AUG-CC-PVTZ
  Basis Set: (AUG-CC-PVTZ AUX)
    Blend: AUG-CC-PVTZ-JKFIT
	 Reference Energy          =    -470.8042705380989901 [Eh]
	 Singles Energy            =      -0.0000000000000000 [Eh]
	 Same-Spin Energy          =      -0.5013543268015748 [Eh]
	 Opposite-Spin Energy      =      -1.5401313862813657 [Eh]
	 Correlation Energy        =      -2.0414857130829405 [Eh]
	 Total Energy              =    -472.8457562511819106 [Eh]

	 ================> DF-SCS-MP2 Energies <==================
	-----------------------------------------------------------
	 SCS Same-Spin Scale       =       0.3333333333333333 [-]
	 SCS Opposite-Spin Scale   =       1.2000000000000000 [-]
	 SCS Same-Spin Energy      =      -0.1671181089338583 [Eh]
	 SCS Opposite-Spin Energy  =      -1.8481576635376387 [Eh]
	 SCS Correlation Energy    =      -2.0152757724714969 [Eh]
	 SCS Total Energy          =    -472.8195463105705016 [Eh]
	-----------------------------------------------------------

  Dipole Moment: [D]
     X:     1.8114      Y:    -0.1047      Z:    -0.0000     Total:     1.8145

*** Psi4 exiting successfully. Buy a developer a beer!
