                               Psi4 1.3.2 release

  ==> Input File <==

--------------------------------------------------------------------------
#psi4
#
memory 32 gb

molecule  {
0 1
  O       -1.2482290     1.5306510     0.0000030
  N        1.4640540     0.4968240    -0.0000070
  N        0.6053200    -1.5732460     0.0000100
  N       -1.9984820    -0.6503890    -0.0000010
  C        0.3259400    -0.2627350     0.0000100
  C        2.4901337    -0.4149761    -0.0000103
  C        1.5711040     1.9546380     0.0000020
  C       -1.0383320     0.3066720     0.0000020
  C        1.9690460    -1.6456460     0.0000000
  C       -3.4103270    -0.3314980    -0.0000060
  H        3.5447240    -0.0301030    -0.0000120
  H        1.0842430     2.3633630    -0.8839110
  H        1.0842880     2.3633490     0.8839480
  H        2.6322840     2.2067670    -0.0000220
  H        2.4866360    -2.5959740    -0.0000050
  H       -1.6732310    -1.6118380    -0.0000010
  H       -3.9026090    -0.7325290     0.8908020
  H       -3.9026030    -0.7325320    -0.8908160
  H       -3.4966990     0.7550430    -0.0000090
units angstrom
no_reorient  #important for SAPT in psi4, default
symmetry c1  #important for SAPT in psi4, default
}

set PROPERTIES_ORIGIN ["COM"]
properties('MP2/aug-cc-pvtz', properties = ['dipole'])
--------------------------------------------------------------------------

    Molecular point group: c1
  Charge       = 0
  Multiplicity = 1
  Basis Set: AUG-CC-PVTZ
    Blend: AUG-CC-PVTZ
  Basis Set: (AUG-CC-PVTZ AUX)
    Blend: AUG-CC-PVTZ-JKFIT

    Orbital Energies [Eh]
    ---------------------

    Doubly Occupied:

       1A    -20.522862     2A    -15.634560     3A    -15.584895
       4A    -15.563469     5A    -11.362227     6A    -11.305415
       7A    -11.275439     8A    -11.270058     9A    -11.258367
      10A    -11.248824    11A     -1.382372    12A     -1.348478
      13A     -1.234570    14A     -1.190060    15A     -1.040027
      16A     -0.979663    17A     -0.951274    18A     -0.844535
      19A     -0.808939    20A     -0.773023    21A     -0.736013
      22A     -0.656867    23A     -0.654812    24A     -0.643755
      25A     -0.619245    26A     -0.604609    27A     -0.597807
      28A     -0.582247    29A     -0.561413    30A     -0.561321
      31A     -0.545698    32A     -0.531204    33A     -0.457101
      34A     -0.434001    35A     -0.398126    36A     -0.388532
      37A     -0.329657

  @DF-RHF Final Energy:  -470.83330239127309

   => Energetics <=

    Nuclear Repulsion Energy =            527.8607753060123287
    One-Electron Energy =               -1687.6252305158086529
    Two-Electron Energy =                 688.9311528185231737
    Total Energy =                       -470.8333023912731505
  Basis Set: (AUG-CC-PVTZ AUX)
    Blend: AUG-CC-PVTZ-RI
    Molecular point group: c1

    Geometry (in Angstrom), charge = 0, multiplicity = 1:

       Center              X                  Y                   Z               Mass
    ------------   -----------------  -----------------  -----------------  -----------------
         O           -1.260872795037     1.548048059336     0.000002840464    15.994914619570
         N            1.451410204963     0.514221059336    -0.000007159536    14.003074004430
         N            0.592676204963    -1.555848940664     0.000009840464    14.003074004430
         N           -2.011125795037    -0.632991940664    -0.000001159536    14.003074004430
         C            0.313296204963    -0.245337940664     0.000009840464    12.000000000000
         C            2.477489904963    -0.397579040664    -0.000010459536    12.000000000000
         C            1.558460204963     1.972035059336     0.000001840464    12.000000000000
         C           -1.050975795037     0.324069059336     0.000001840464    12.000000000000
         C            1.956402204963    -1.628248940664    -0.000000159536    12.000000000000
         C           -3.422970795037    -0.314100940664    -0.000006159536    12.000000000000
         H            3.532080204963    -0.012705940664    -0.000012159536     1.007825032230
         H            1.071599204963     2.380760059336    -0.883911159536     1.007825032230
         H            1.071644204963     2.380746059336     0.883947840464     1.007825032230
         H            2.619640204963     2.224164059336    -0.000022159536     1.007825032230
         H            2.473992204963    -2.578576940664    -0.000005159536     1.007825032230
         H           -1.685874795037    -1.594440940664    -0.000001159536     1.007825032230
         H           -3.915252795037    -0.715131940664     0.890801840464     1.007825032230
         H           -3.915246795037    -0.715134940664    -0.890816159536     1.007825032230
         H           -3.509342795037     0.772440059336    -0.000009159536     1.007825032230

  Basis Set: AUG-CC-PVTZ
    Blend: AUG-CC-PVTZ
  Basis Set: (AUG-CC-PVTZ AUX)
    Blend: AUG-CC-PVTZ-JKFIT
	 Reference Energy          =    -470.8333023912730937 [Eh]
	 Singles Energy            =      -0.0000000000000000 [Eh]
	 Same-Spin Energy          =      -0.4987972632206494 [Eh]
	 Opposite-Spin Energy      =      -1.5362378617269137 [Eh]
	 Correlation Energy        =      -2.0350351249475631 [Eh]
	 Total Energy              =    -472.8683375162206630 [Eh]

	 ================> DF-SCS-MP2 Energies <==================
	-----------------------------------------------------------
	 SCS Same-Spin Scale       =       0.3333333333333333 [-]
	 SCS Opposite-Spin Scale   =       1.2000000000000000 [-]
	 SCS Same-Spin Energy      =      -0.1662657544068831 [Eh]
	 SCS Opposite-Spin Energy  =      -1.8434854340722964 [Eh]
	 SCS Correlation Energy    =      -2.0097511884791794 [Eh]
	 SCS Total Energy          =    -472.8430535797522793 [Eh]
	-----------------------------------------------------------

  Dipole Moment: [D]
     X:     1.3786      Y:     0.0042      Z:    -0.0000     Total:     1.3786

*** Psi4 exiting successfully. Buy a developer a beer!
