                               Psi4 1.3.2 release

  ==> Input File <==

--------------------------------------------------------------------------
#psi4
#
memory 32 gb

molecule  {
0 1
  O       -1.2482290     1.5306510     0.0000030
  N        1.4640540     0.4968240    -0.0000070
  N        0.6053200    -1.5732460     0.0000100
  N       -1.9984820    -0.6503890    -0.0000010
  C        0.3259400    -0.2627350     0.0000100
  C        2.5512382    -0.3411793    -0.0000097
  C        1.5711040     1.9546380     0.0000020
  C       -1.0383320     0.3066720     0.0000020
  C        1.9690460    -1.6456460     0.0000000
  C       -3.4103270    -0.3314980    -0.0000060
  H        3.5447240    -0.0301030    -0.0000120
  H        1.0842430     2.3633630    -0.8839110
  H        1.0842880     2.3633490     0.8839480
  H        2.6322840     2.2067670    -0.0000220
  H        2.4866360    -2.5959740    -0.0000050
  H       -1.6732310    -1.6118380    -0.0000010
  H       -3.9026090    -0.7325290     0.8908020
  H       -3.9026030    -0.7325320    -0.8908160
  H       -3.4966990     0.7550430    -0.0000090
units angstrom
no_reorient  #important for SAPT in psi4, default
symmetry c1  #important for SAPT in psi4, default
}

set PROPERTIES_ORIGIN ["COM"]
properties('MP2/aug-cc-pvtz', properties = ['dipole'])
--------------------------------------------------------------------------

    Molecular point group: c1
  Charge       = 0
  Multiplicity = 1
  Basis Set: AUG-CC-PVTZ
    Blend: AUG-CC-PVTZ
  Basis Set: (AUG-CC-PVTZ AUX)
    Blend: AUG-CC-PVTZ-JKFIT

    Orbital Energies [Eh]
    ---------------------

    Doubly Occupied:

       1A    -20.521771     2A    -15.641399     3A    -15.584781
       4A    -15.567685     5A    -11.362180     6A    -11.304494
       7A    -11.275056     8A    -11.274445     9A    -11.261617
      10A    -11.258304    11A     -1.381156    12A     -1.344750
      13A     -1.234732    14A     -1.191795    15A     -1.032323
      16A     -0.979133    17A     -0.950218    18A     -0.838271
      19A     -0.819872    20A     -0.773081    21A     -0.733123
      22A     -0.668247    23A     -0.655950    24A     -0.646314
      25A     -0.619111    26A     -0.608901    27A     -0.590592
      28A     -0.584633    29A     -0.562218    30A     -0.559226
      31A     -0.545612    32A     -0.528879    33A     -0.458430
      34A     -0.433667    35A     -0.400562    36A     -0.389256
      37A     -0.316992

  @DF-RHF Final Energy:  -470.83000597720297

   => Energetics <=

    Nuclear Repulsion Energy =            526.4604172216045299
    One-Electron Energy =               -1684.7832882634065754
    Two-Electron Energy =                 687.4928650645990729
    Total Energy =                       -470.8300059772029726
  Basis Set: (AUG-CC-PVTZ AUX)
    Blend: AUG-CC-PVTZ-RI
    Molecular point group: c1

    Geometry (in Angstrom), charge = 0, multiplicity = 1:

       Center              X                  Y                   Z               Mass
    ------------   -----------------  -----------------  -----------------  -----------------
         O           -1.266145175477     1.541680528223     0.000002788693    15.994914619570
         N            1.446137824523     0.507853528223    -0.000007211307    14.003074004430
         N            0.587403824523    -1.562216471777     0.000009788693    14.003074004430
         N           -2.016398175477    -0.639359471777    -0.000001211307    14.003074004430
         C            0.308023824523    -0.251705471777     0.000009788693    12.000000000000
         C            2.533322024523    -0.330149771777    -0.000009911307    12.000000000000
         C            1.553187824523     1.965667528223     0.000001788693    12.000000000000
         C           -1.056248175477     0.317701528223     0.000001788693    12.000000000000
         C            1.951129824523    -1.634616471777    -0.000000211307    12.000000000000
         C           -3.428243175477    -0.320468471777    -0.000006211307    12.000000000000
         H            3.526807824523    -0.019073471777    -0.000012211307     1.007825032230
         H            1.066326824523     2.374392528223    -0.883911211307     1.007825032230
         H            1.066371824523     2.374378528223     0.883947788693     1.007825032230
         H            2.614367824523     2.217796528223    -0.000022211307     1.007825032230
         H            2.468719824523    -2.584944471777    -0.000005211307     1.007825032230
         H           -1.691147175477    -1.600808471777    -0.000001211307     1.007825032230
         H           -3.920525175477    -0.721499471777     0.890801788693     1.007825032230
         H           -3.920519175477    -0.721502471777    -0.890816211307     1.007825032230
         H           -3.514615175477     0.766072528223    -0.000009211307     1.007825032230

  Basis Set: AUG-CC-PVTZ
    Blend: AUG-CC-PVTZ
  Basis Set: (AUG-CC-PVTZ AUX)
    Blend: AUG-CC-PVTZ-JKFIT
	 Reference Energy          =    -470.8300059772029726 [Eh]
	 Singles Energy            =      -0.0000000000000000 [Eh]
	 Same-Spin Energy          =      -0.4999912438041583 [Eh]
	 Opposite-Spin Energy      =      -1.5383045296459463 [Eh]
	 Correlation Energy        =      -2.0382957734501046 [Eh]
	 Total Energy              =    -472.8683017506530746 [Eh]

	 ================> DF-SCS-MP2 Energies <==================
	-----------------------------------------------------------
	 SCS Same-Spin Scale       =       0.3333333333333333 [-]
	 SCS Opposite-Spin Scale   =       1.2000000000000000 [-]
	 SCS Same-Spin Energy      =      -0.1666637479347194 [Eh]
	 SCS Opposite-Spin Energy  =      -1.8459654355751356 [Eh]
	 SCS Correlation Energy    =      -2.0126291835098549 [Eh]
	 SCS Total Energy          =    -472.8426351607128026 [Eh]
	-----------------------------------------------------------

  Dipole Moment: [D]
     X:     1.3940      Y:     0.0158      Z:    -0.0000     Total:     1.3941

*** Psi4 exiting successfully. Buy a developer a beer!
