                               Psi4 1.3.2 release

  ==> Input File <==

--------------------------------------------------------------------------
#psi4
#
memory 32 gb

molecule  {
0 1
  O       -1.2482290     1.5306510     0.0000030
  N        1.4640540     0.4968240    -0.0000070
  N        0.6053200    -1.5732460     0.0000100
  N       -1.9984820    -0.6503890    -0.0000010
  C        0.3259400    -0.2627350     0.0000100
  C        2.5213300    -0.3786110    -0.0000100
  C        1.5711040     1.9546380     0.0000020
  C       -1.0383320     0.3066720     0.0000020
  C        1.9690460    -1.6456460     0.0000000
  C       -3.4103270    -0.3314980    -0.0000060
  H        3.7340473     0.0343694    -0.0000124
  H        1.0842430     2.3633630    -0.8839110
  H        1.0842880     2.3633490     0.8839480
  H        2.6322840     2.2067670    -0.0000220
  H        2.4866360    -2.5959740    -0.0000050
  H       -1.6732310    -1.6118380    -0.0000010
  H       -3.9026090    -0.7325290     0.8908020
  H       -3.9026030    -0.7325320    -0.8908160
  H       -3.4966990     0.7550430    -0.0000090
units angstrom
no_reorient  #important for SAPT in psi4, default
symmetry c1  #important for SAPT in psi4, default
}

set PROPERTIES_ORIGIN ["COM"]
properties('MP2/aug-cc-pvtz', properties = ['dipole'])
--------------------------------------------------------------------------

    Molecular point group: c1
  Charge       = 0
  Multiplicity = 1
  Basis Set: AUG-CC-PVTZ
    Blend: AUG-CC-PVTZ
  Basis Set: (AUG-CC-PVTZ AUX)
    Blend: AUG-CC-PVTZ-JKFIT

    Orbital Energies [Eh]
    ---------------------

    Doubly Occupied:

       1A    -20.522624     2A    -15.639620     3A    -15.585206
       4A    -15.566862     5A    -11.362698     6A    -11.305956
       7A    -11.292520     8A    -11.274600     9A    -11.258589
      10A    -11.256754    11A     -1.382232    12A     -1.347440
      13A     -1.235007    14A     -1.191425    15A     -1.033211
      16A     -0.979294    17A     -0.948960    18A     -0.840677
      19A     -0.804036    20A     -0.771229    21A     -0.733115
      22A     -0.656937    23A     -0.650299    24A     -0.637785
      25A     -0.619441    26A     -0.601956    27A     -0.588332
      28A     -0.572403    29A     -0.560561    30A     -0.560289
      31A     -0.545628    32A     -0.530481    33A     -0.457578
      34A     -0.434162    35A     -0.399982    36A     -0.389427
      37A     -0.323867

  @DF-RHF Final Energy:  -470.81192551080989

   => Energetics <=

    Nuclear Repulsion Energy =            526.1737733783253361
    One-Electron Energy =               -1684.2490351225937957
    Two-Electron Energy =                 687.2633362334587446
    Total Energy =                       -470.8119255108098287
  Basis Set: (AUG-CC-PVTZ AUX)
    Blend: AUG-CC-PVTZ-RI
    Molecular point group: c1

    Geometry (in Angstrom), charge = 0, multiplicity = 1:

       Center              X                  Y                   Z               Mass
    ------------   -----------------  -----------------  -----------------  -----------------
         O           -1.264936517066     1.544443100300     0.000002817477    15.994914619570
         N            1.447346482934     0.510616100300    -0.000007182523    14.003074004430
         N            0.588612482934    -1.559453899700     0.000009817477    14.003074004430
         N           -2.015189517066    -0.636596899700    -0.000001182523    14.003074004430
         C            0.309232482934    -0.248942899700     0.000009817477    12.000000000000
         C            2.504622482934    -0.364818899700    -0.000010182523    12.000000000000
         C            1.554396482934     1.968430100300     0.000001817477    12.000000000000
         C           -1.055039517066     0.320464100300     0.000001817477    12.000000000000
         C            1.952338482934    -1.631853899700    -0.000000182523    12.000000000000
         C           -3.427034517066    -0.317705899700    -0.000006182523    12.000000000000
         H            3.717339782934     0.048161500300    -0.000012582523     1.007825032230
         H            1.067535482934     2.377155100300    -0.883911182523     1.007825032230
         H            1.067580482934     2.377141100300     0.883947817477     1.007825032230
         H            2.615576482934     2.220559100300    -0.000022182523     1.007825032230
         H            2.469928482934    -2.582181899700    -0.000005182523     1.007825032230
         H           -1.689938517066    -1.598045899700    -0.000001182523     1.007825032230
         H           -3.919316517066    -0.718736899700     0.890801817477     1.007825032230
         H           -3.919310517066    -0.718739899700    -0.890816182523     1.007825032230
         H           -3.513406517066     0.768835100300    -0.000009182523     1.007825032230

  Basis Set: AUG-CC-PVTZ
    Blend: AUG-CC-PVTZ
  Basis Set: (AUG-CC-PVTZ AUX)
    Blend: AUG-CC-PVTZ-JKFIT
	 Reference Energy          =    -470.8119255108098855 [Eh]
	 Singles Energy            =      -0.0000000000000000 [Eh]
	 Same-Spin Energy          =      -0.4999732132158354 [Eh]
	 Opposite-Spin Energy      =      -1.5393969239373175 [Eh]
	 Correlation Energy        =      -2.0393701371531527 [Eh]
	 Total Energy              =    -472.8512956479630134 [Eh]

	 ================> DF-SCS-MP2 Energies <==================
	-----------------------------------------------------------
	 SCS Same-Spin Scale       =       0.3333333333333333 [-]
	 SCS Opposite-Spin Scale   =       1.2000000000000000 [-]
	 SCS Same-Spin Energy      =      -0.1666577377386118 [Eh]
	 SCS Opposite-Spin Energy  =      -1.8472763087247810 [Eh]
	 SCS Correlation Energy    =      -2.0139340464633930 [Eh]
	 SCS Total Energy          =    -472.8258595572733043 [Eh]
	-----------------------------------------------------------

  Dipole Moment: [D]
     X:     1.3780      Y:     0.0107      Z:    -0.0000     Total:     1.3780

*** Psi4 exiting successfully. Buy a developer a beer!
