                               Psi4 1.4a3.dev225

  ==> Input File <==

--------------------------------------------------------------------------
#psi4
#
memory 32 gb

molecule  {
0 1
  O       -1.2482290     1.5306510     0.0000030
  N        1.4640540     0.4968240    -0.0000070
  N        0.6053200    -1.5732460     0.0000100
  N       -1.9984820    -0.6503890    -0.0000010
  C        0.3259400    -0.2627350     0.0000100
  C        2.5213300    -0.3786110    -0.0000100
  C        1.5711040     1.9546380     0.0000020
  C       -1.0383320     0.3066720     0.0000020
  C        1.9890179    -1.6467063    -0.0000001
  C       -3.4103270    -0.3314980    -0.0000060
  H        3.5447240    -0.0301030    -0.0000120
  H        1.0842430     2.3633630    -0.8839110
  H        1.0842880     2.3633490     0.8839480
  H        2.6322840     2.2067670    -0.0000220
  H        2.4866360    -2.5959740    -0.0000050
  H       -1.6732310    -1.6118380    -0.0000010
  H       -3.9026090    -0.7325290     0.8908020
  H       -3.9026030    -0.7325320    -0.8908160
  H       -3.4966990     0.7550430    -0.0000090
units angstrom
no_reorient  #important for SAPT in psi4, default
symmetry c1  #important for SAPT in psi4, default
}

set PROPERTIES_ORIGIN ["COM"]
properties('MP2/aug-cc-pvtz', properties = ['dipole'])
--------------------------------------------------------------------------

    Molecular point group: c1
  Charge       = 0
  Multiplicity = 1
  Basis Set: AUG-CC-PVTZ
    Blend: AUG-CC-PVTZ
  Basis Set: (AUG-CC-PVTZ AUX)
    Blend: AUG-CC-PVTZ-JKFIT

    Orbital Energies [Eh]
    ---------------------

    Doubly Occupied:

       1A    -20.522900     2A    -15.636390     3A    -15.585111
       4A    -15.566010     5A    -11.362651     6A    -11.305712
       7A    -11.274635     8A    -11.272765     9A    -11.258493
      10A    -11.254966    11A     -1.381734    12A     -1.344726
      13A     -1.234724    14A     -1.186442    15A     -1.037028
      16A     -0.977994    17A     -0.951028    18A     -0.842381
      19A     -0.814397    20A     -0.772684    21A     -0.733932
      22A     -0.659517    23A     -0.655853    24A     -0.645828
      25A     -0.619315    26A     -0.605695    27A     -0.595100
      28A     -0.584005    29A     -0.563465    30A     -0.559292
      31A     -0.545899    32A     -0.529874    33A     -0.457822
      34A     -0.433804    35A     -0.397778    36A     -0.387551
      37A     -0.325610

  @DF-RHF Final Energy:  -470.83482721187175

   => Energetics <=

    Nuclear Repulsion Energy =            526.8133686311379051
    One-Electron Energy =               -1685.5301771297877167
    Two-Electron Energy =                 687.8819812867778865
    Total Energy =                       -470.8348272118718114
  Basis Set: (AUG-CC-PVTZ AUX)
    Blend: AUG-CC-PVTZ-RI
    Molecular point group: c1

    Geometry (in Angstrom), charge = 0, multiplicity = 1:

       Center              X                  Y                   Z               Mass
    ------------   -----------------  -----------------  -----------------  -----------------
         O           -1.265287825302     1.545001796999     0.000002823207    15.994914619570
         N            1.446995174698     0.511174796999    -0.000007176793    14.003074004430
         N            0.588261174698    -1.558895203001     0.000009823207    14.003074004430
         N           -2.015540825302    -0.636038203001    -0.000001176793    14.003074004430
         C            0.308881174698    -0.248384203001     0.000009823207    12.000000000000
         C            2.504271174698    -0.364260203001    -0.000010176793    12.000000000000
         C            1.554045174698     1.968988796999     0.000001823207    12.000000000000
         C           -1.055390825302     0.321022796999     0.000001823207    12.000000000000
         C            1.971959074698    -1.632355503001    -0.000000276793    12.000000000000
         C           -3.427385825302    -0.317147203001    -0.000006176793    12.000000000000
         H            3.527665174698    -0.015752203001    -0.000012176793     1.007825032230
         H            1.067184174698     2.377713796999    -0.883911176793     1.007825032230
         H            1.067229174698     2.377699796999     0.883947823207     1.007825032230
         H            2.615225174698     2.221117796999    -0.000022176793     1.007825032230
         H            2.469577174698    -2.581623203001    -0.000005176793     1.007825032230
         H           -1.690289825302    -1.597487203001    -0.000001176793     1.007825032230
         H           -3.919667825302    -0.718178203001     0.890801823207     1.007825032230
         H           -3.919661825302    -0.718181203001    -0.890816176793     1.007825032230
         H           -3.513757825302     0.769393796999    -0.000009176793     1.007825032230

  Basis Set: AUG-CC-PVTZ
    Blend: AUG-CC-PVTZ
  Basis Set: (AUG-CC-PVTZ AUX)
    Blend: AUG-CC-PVTZ-JKFIT
	 Reference Energy          =    -470.8348272118717546 [Eh]
	 Singles Energy            =      -0.0000000000000000 [Eh]
	 Same-Spin Energy          =      -0.4991086010572641 [Eh]
	 Opposite-Spin Energy      =      -1.5371553037966956 [Eh]
	 Correlation Energy        =      -2.0362639048539597 [Eh]
	 Total Energy              =    -472.8710911167257223 [Eh]

	 ================> DF-SCS-MP2 Energies <==================
	-----------------------------------------------------------
	 SCS Same-Spin Scale       =       0.3333333333333333 [-]
	 SCS Opposite-Spin Scale   =       1.2000000000000000 [-]
	 SCS Same-Spin Energy      =      -0.1663695336857547 [Eh]
	 SCS Opposite-Spin Energy  =      -1.8445863645560348 [Eh]
	 SCS Correlation Energy    =      -2.0109558982417894 [Eh]
	 SCS Total Energy          =    -472.8457831101135298 [Eh]
	-----------------------------------------------------------

  Dipole Moment: [D]
     X:     1.3866      Y:     0.0174      Z:    -0.0000     Total:     1.3867

*** Psi4 exiting successfully. Buy a developer a beer!
