                               Psi4 1.3.2 release

  ==> Input File <==

--------------------------------------------------------------------------
#psi4
#
memory 32 gb

molecule  {
0 1
  O       -1.2482290     1.5306510     0.0000030
  N        1.4640540     0.4968240    -0.0000070
  N        0.6053200    -1.5732460     0.0000100
  N       -1.9984820    -0.6503890    -0.0000010
  C        0.3259400    -0.2627350     0.0000100
  C        2.5213300    -0.3786110    -0.0000100
  C        1.5711040     1.9546380     0.0000020
  C       -1.0383320     0.3066720     0.0000020
  C        2.0090037    -1.5539761    -0.0000007
  C       -3.4103270    -0.3314980    -0.0000060
  H        3.5447240    -0.0301030    -0.0000120
  H        1.0842430     2.3633630    -0.8839110
  H        1.0842880     2.3633490     0.8839480
  H        2.6322840     2.2067670    -0.0000220
  H        2.4866360    -2.5959740    -0.0000050
  H       -1.6732310    -1.6118380    -0.0000010
  H       -3.9026090    -0.7325290     0.8908020
  H       -3.9026030    -0.7325320    -0.8908160
  H       -3.4966990     0.7550430    -0.0000090
units angstrom
no_reorient  #important for SAPT in psi4, default
symmetry c1  #important for SAPT in psi4, default
}

set PROPERTIES_ORIGIN ["COM"]
properties('MP2/aug-cc-pvtz', properties = ['dipole'])
--------------------------------------------------------------------------

    Molecular point group: c1
  Charge       = 0
  Multiplicity = 1
  Basis Set: AUG-CC-PVTZ
    Blend: AUG-CC-PVTZ
  Basis Set: (AUG-CC-PVTZ AUX)
    Blend: AUG-CC-PVTZ-JKFIT

    Orbital Energies [Eh]
    ---------------------

    Doubly Occupied:

       1A    -20.525186     2A    -15.629072     3A    -15.587337
       4A    -15.564652     5A    -11.364211     6A    -11.309709
       7A    -11.272476     8A    -11.259822     9A    -11.259634
      10A    -11.247835    11A     -1.383995    12A     -1.349051
      13A     -1.236388    14A     -1.182203    15A     -1.051403
      16A     -0.977346    17A     -0.952220    18A     -0.847731
      19A     -0.805976    20A     -0.774853    21A     -0.732812
      22A     -0.661150    23A     -0.657221    24A     -0.646308
      25A     -0.620599    26A     -0.602083    27A     -0.593338
      28A     -0.581281    29A     -0.560428    30A     -0.547429
      31A     -0.542978    32A     -0.533061    33A     -0.464955
      34A     -0.435998    35A     -0.397164    36A     -0.384455
      37A     -0.342133

  @DF-RHF Final Energy:  -470.82259654914338

   => Energetics <=

    Nuclear Repulsion Energy =            528.3442260137774156
    One-Electron Energy =               -1688.5646605530987472
    Two-Electron Energy =                 689.3978379901778908
    Total Energy =                       -470.8225965491434408
  Basis Set: (AUG-CC-PVTZ AUX)
    Blend: AUG-CC-PVTZ-RI
    Molecular point group: c1

    Geometry (in Angstrom), charge = 0, multiplicity = 1:

       Center              X                  Y                   Z               Mass
    ------------   -----------------  -----------------  -----------------  -----------------
         O           -1.267012293075     1.537000604080     0.000002874978    15.994914619570
         N            1.445270706925     0.503173604080    -0.000007125022    14.003074004430
         N            0.586536706925    -1.566896395920     0.000009874978    14.003074004430
         N           -2.017265293075    -0.644039395920    -0.000001125022    14.003074004430
         C            0.307156706925    -0.256385395920     0.000009874978    12.000000000000
         C            2.502546706925    -0.372261395920    -0.000010125022    12.000000000000
         C            1.552320706925     1.960987604080     0.000001874978    12.000000000000
         C           -1.057115293075     0.313021604080     0.000001874978    12.000000000000
         C            1.990220406925    -1.547626495920    -0.000000825022    12.000000000000
         C           -3.429110293075    -0.325148395920    -0.000006125022    12.000000000000
         H            3.525940706925    -0.023753395920    -0.000012125022     1.007825032230
         H            1.065459706925     2.369712604080    -0.883911125022     1.007825032230
         H            1.065504706925     2.369698604080     0.883947874978     1.007825032230
         H            2.613500706925     2.213116604080    -0.000022125022     1.007825032230
         H            2.467852706925    -2.589624395920    -0.000005125022     1.007825032230
         H           -1.692014293075    -1.605488395920    -0.000001125022     1.007825032230
         H           -3.921392293075    -0.726179395920     0.890801874978     1.007825032230
         H           -3.921386293075    -0.726182395920    -0.890816125022     1.007825032230
         H           -3.515482293075     0.761392604080    -0.000009125022     1.007825032230

  Basis Set: AUG-CC-PVTZ
    Blend: AUG-CC-PVTZ
  Basis Set: (AUG-CC-PVTZ AUX)
    Blend: AUG-CC-PVTZ-JKFIT
	 Reference Energy          =    -470.8225965491433840 [Eh]
	 Singles Energy            =      -0.0000000000000000 [Eh]
	 Same-Spin Energy          =      -0.4981418014313700 [Eh]
	 Opposite-Spin Energy      =      -1.5361306995564421 [Eh]
	 Correlation Energy        =      -2.0342725009878122 [Eh]
	 Total Energy              =    -472.8568690501311949 [Eh]

	 ================> DF-SCS-MP2 Energies <==================
	-----------------------------------------------------------
	 SCS Same-Spin Scale       =       0.3333333333333333 [-]
	 SCS Opposite-Spin Scale   =       1.2000000000000000 [-]
	 SCS Same-Spin Energy      =      -0.1660472671437900 [Eh]
	 SCS Opposite-Spin Energy  =      -1.8433568394677304 [Eh]
	 SCS Correlation Energy    =      -2.0094041066115205 [Eh]
	 SCS Total Energy          =    -472.8320006557548822 [Eh]
	-----------------------------------------------------------

  Dipole Moment: [D]
     X:     1.3023      Y:     0.0811      Z:    -0.0000     Total:     1.3049

*** Psi4 exiting successfully. Buy a developer a beer!
