                               Psi4 1.3.2 release

  ==> Input File <==

--------------------------------------------------------------------------
#psi4
#
memory 32 gb

molecule  {
0 1
  O       -1.2482290     1.5306510     0.0000030
  N        1.4640540     0.4968240    -0.0000070
  N        0.6053200    -1.5732460     0.0000100
  N       -1.9984820    -0.6503890    -0.0000010
  C        0.3259400    -0.2627350     0.0000100
  C        2.5213300    -0.3786110    -0.0000100
  C        1.5711040     1.9546380     0.0000020
  C       -1.0383320     0.3066720     0.0000020
  C        1.9690460    -1.6456460     0.0000000
  C       -3.4103270    -0.3314980    -0.0000060
  H        3.5447240    -0.0301030    -0.0000120
  H        1.0842430     2.3633630    -0.8839110
  H        1.0842880     2.3633490     0.8839480
  H        2.6322840     2.2067670    -0.0000220
  H        2.4388057    -2.5081545    -0.0000045
  H       -1.6732310    -1.6118380    -0.0000010
  H       -3.9026090    -0.7325290     0.8908020
  H       -3.9026030    -0.7325320    -0.8908160
  H       -3.4966990     0.7550430    -0.0000090
units angstrom
no_reorient  #important for SAPT in psi4, default
symmetry c1  #important for SAPT in psi4, default
}

set PROPERTIES_ORIGIN ["COM"]
properties('MP2/aug-cc-pvtz', properties = ['dipole'])
--------------------------------------------------------------------------

    Molecular point group: c1
  Charge       = 0
  Multiplicity = 1
  Basis Set: AUG-CC-PVTZ
    Blend: AUG-CC-PVTZ
  Basis Set: (AUG-CC-PVTZ AUX)
    Blend: AUG-CC-PVTZ-JKFIT

    Orbital Energies [Eh]
    ---------------------

    Doubly Occupied:

       1A    -20.522072     2A    -15.637444     3A    -15.584609
       4A    -15.564769     5A    -11.361888     6A    -11.304329
       7A    -11.274673     8A    -11.272037     9A    -11.258186
      10A    -11.243796    11A     -1.381409    12A     -1.345963
      13A     -1.234403    14A     -1.190678    15A     -1.037406
      16A     -0.979409    17A     -0.951824    18A     -0.846501
      19A     -0.820297    20A     -0.772705    21A     -0.738003
      22A     -0.660661    23A     -0.655952    24A     -0.647322
      25A     -0.618982    26A     -0.615808    27A     -0.595864
      28A     -0.584466    29A     -0.566881    30A     -0.559860
      31A     -0.545584    32A     -0.529721    33A     -0.458502
      34A     -0.433555    35A     -0.398852    36A     -0.388597
      37A     -0.322930

  @DF-RHF Final Energy:  -470.82915958320655

   => Energetics <=

    Nuclear Repulsion Energy =            527.7017153338603066
    One-Electron Energy =               -1687.2498695486219731
    Two-Electron Energy =                 688.7189946315552334
    Total Energy =                       -470.8291595832065468
  Basis Set: (AUG-CC-PVTZ AUX)
    Blend: AUG-CC-PVTZ-RI
    Molecular point group: c1

    Geometry (in Angstrom), charge = 0, multiplicity = 1:

       Center              X                  Y                   Z               Mass
    ------------   -----------------  -----------------  -----------------  -----------------
         O           -1.263217947320     1.544273911978     0.000002810955    15.994914619570
         N            1.449065052680     0.510446911978    -0.000007189045    14.003074004430
         N            0.590331052680    -1.559623088022     0.000009810955    14.003074004430
         N           -2.013470947320    -0.636766088022    -0.000001189045    14.003074004430
         C            0.310951052680    -0.249112088022     0.000009810955    12.000000000000
         C            2.506341052680    -0.364988088022    -0.000010189045    12.000000000000
         C            1.556115052680     1.968260911978     0.000001810955    12.000000000000
         C           -1.053320947320     0.320294911978     0.000001810955    12.000000000000
         C            1.954057052680    -1.632023088022    -0.000000189045    12.000000000000
         C           -3.425315947320    -0.317875088022    -0.000006189045    12.000000000000
         H            3.529735052680    -0.016480088022    -0.000012189045     1.007825032230
         H            1.069254052680     2.376985911978    -0.883911189045     1.007825032230
         H            1.069299052680     2.376971911978     0.883947810955     1.007825032230
         H            2.617295052680     2.220389911978    -0.000022189045     1.007825032230
         H            2.423816752680    -2.494531588022    -0.000004689045     1.007825032230
         H           -1.688219947320    -1.598215088022    -0.000001189045     1.007825032230
         H           -3.917597947320    -0.718906088022     0.890801810955     1.007825032230
         H           -3.917591947320    -0.718909088022    -0.890816189045     1.007825032230
         H           -3.511687947320     0.768665911978    -0.000009189045     1.007825032230

  Basis Set: AUG-CC-PVTZ
    Blend: AUG-CC-PVTZ
  Basis Set: (AUG-CC-PVTZ AUX)
    Blend: AUG-CC-PVTZ-JKFIT
	 Reference Energy          =    -470.8291595832065468 [Eh]
	 Singles Energy            =      -0.0000000000000000 [Eh]
	 Same-Spin Energy          =      -0.4991684895199376 [Eh]
	 Opposite-Spin Energy      =      -1.5365880769230003 [Eh]
	 Correlation Energy        =      -2.0357565664429380 [Eh]
	 Total Energy              =    -472.8649161496495026 [Eh]

	 ================> DF-SCS-MP2 Energies <==================
	-----------------------------------------------------------
	 SCS Same-Spin Scale       =       0.3333333333333333 [-]
	 SCS Opposite-Spin Scale   =       1.2000000000000000 [-]
	 SCS Same-Spin Energy      =      -0.1663894965066459 [Eh]
	 SCS Opposite-Spin Energy  =      -1.8439056923076003 [Eh]
	 SCS Correlation Energy    =      -2.0102951888142462 [Eh]
	 SCS Total Energy          =    -472.8394547720208152 [Eh]
	-----------------------------------------------------------

  Dipole Moment: [D]
     X:     1.4122      Y:     0.0136      Z:    -0.0000     Total:     1.4123

*** Psi4 exiting successfully. Buy a developer a beer!
