                               Psi4 1.4a3.dev225

  ==> Input File <==

--------------------------------------------------------------------------
#psi4
#
memory 32 gb

molecule  {
0 1
  O       -1.2482290     1.5306510     0.0000030
  N        1.4640540     0.4968240    -0.0000070
  N        0.6053200    -1.5732460     0.0000100
  N       -1.9984820    -0.6503890    -0.0000010
  C        0.3259400    -0.2627350     0.0000100
  C        2.5213300    -0.3786110    -0.0000100
  C        1.5711040     1.9546380     0.0000020
  C       -1.0383320     0.3066720     0.0000020
  C        1.9610545    -1.6639800     0.0000001
  C       -3.4103270    -0.3314980    -0.0000060
  H        3.5447240    -0.0301030    -0.0000120
  H        1.0842430     2.3633630    -0.8839110
  H        1.0842880     2.3633490     0.8839480
  H        2.6322840     2.2067670    -0.0000220
  H        2.4866360    -2.5959740    -0.0000050
  H       -1.6732310    -1.6118380    -0.0000010
  H       -3.9026090    -0.7325290     0.8908020
  H       -3.9026030    -0.7325320    -0.8908160
  H       -3.4966990     0.7550430    -0.0000090
units angstrom
no_reorient  #important for SAPT in psi4, default
symmetry c1  #important for SAPT in psi4, default
}

set PROPERTIES_ORIGIN ["COM"]
properties('MP2/aug-cc-pvtz', properties = ['dipole'])
--------------------------------------------------------------------------

    Molecular point group: c1
  Charge       = 0
  Multiplicity = 1
  Basis Set: AUG-CC-PVTZ
    Blend: AUG-CC-PVTZ
  Basis Set: (AUG-CC-PVTZ AUX)
    Blend: AUG-CC-PVTZ-JKFIT

    Orbital Energies [Eh]
    ---------------------

    Doubly Occupied:

       1A    -20.521680     2A    -15.639586     3A    -15.584273
       4A    -15.565755     5A    -11.361736     6A    -11.303894
       7A    -11.275386     8A    -11.274860     9A    -11.257996
      10A    -11.256840    11A     -1.381218    12A     -1.345976
      13A     -1.234261    14A     -1.192313    15A     -1.033465
      16A     -0.979954    17A     -0.949995    18A     -0.839849
      19A     -0.816300    20A     -0.772407    21A     -0.734658
      22A     -0.659475    23A     -0.656164    24A     -0.645976
      25A     -0.618851    26A     -0.609213    27A     -0.594176
      28A     -0.583403    29A     -0.565746    30A     -0.560164
      31A     -0.545309    32A     -0.529420    33A     -0.456336
      34A     -0.433232    35A     -0.400204    36A     -0.389183
      37A     -0.319756

  @DF-RHF Final Energy:  -470.83427060472246

   => Energetics <=

    Nuclear Repulsion Energy =            526.9038920227542349
    One-Electron Energy =               -1685.6983029537018410
    Two-Electron Energy =                 687.9601403262252006
    Total Energy =                       -470.8342706047224056
  Basis Set: (AUG-CC-PVTZ AUX)
    Blend: AUG-CC-PVTZ-RI
    Molecular point group: c1

    Geometry (in Angstrom), charge = 0, multiplicity = 1:

       Center              X                  Y                   Z               Mass
    ------------   -----------------  -----------------  -----------------  -----------------
         O           -1.262875013100     1.546492252170     0.000002805950    15.994914619570
         N            1.449407986900     0.512665252170    -0.000007194050    14.003074004430
         N            0.590673986900    -1.557404747830     0.000009805950    14.003074004430
         N           -2.013128013100    -0.634547747830    -0.000001194050    14.003074004430
         C            0.311293986900    -0.246893747830     0.000009805950    12.000000000000
         C            2.506683986900    -0.362769747830    -0.000010194050    12.000000000000
         C            1.556457986900     1.970479252170     0.000001805950    12.000000000000
         C           -1.052978013100     0.322513252170     0.000001805950    12.000000000000
         C            1.946408486900    -1.648138747830    -0.000000094050    12.000000000000
         C           -3.424973013100    -0.315656747830    -0.000006194050    12.000000000000
         H            3.530077986900    -0.014261747830    -0.000012194050     1.007825032230
         H            1.069596986900     2.379204252170    -0.883911194050     1.007825032230
         H            1.069641986900     2.379190252170     0.883947805950     1.007825032230
         H            2.617637986900     2.222608252170    -0.000022194050     1.007825032230
         H            2.471989986900    -2.580132747830    -0.000005194050     1.007825032230
         H           -1.687877013100    -1.595996747830    -0.000001194050     1.007825032230
         H           -3.917255013100    -0.716687747830     0.890801805950     1.007825032230
         H           -3.917249013100    -0.716690747830    -0.890816194050     1.007825032230
         H           -3.511345013100     0.770884252170    -0.000009194050     1.007825032230

  Basis Set: AUG-CC-PVTZ
    Blend: AUG-CC-PVTZ
  Basis Set: (AUG-CC-PVTZ AUX)
    Blend: AUG-CC-PVTZ-JKFIT
	 Reference Energy          =    -470.8342706047224624 [Eh]
	 Singles Energy            =      -0.0000000000000000 [Eh]
	 Same-Spin Energy          =      -0.4995907872895748 [Eh]
	 Opposite-Spin Energy      =      -1.5373854722613622 [Eh]
	 Correlation Energy        =      -2.0369762595509369 [Eh]
	 Total Energy              =    -472.8712468642734166 [Eh]

	 ================> DF-SCS-MP2 Energies <==================
	-----------------------------------------------------------
	 SCS Same-Spin Scale       =       0.3333333333333333 [-]
	 SCS Opposite-Spin Scale   =       1.2000000000000000 [-]
	 SCS Same-Spin Energy      =      -0.1665302624298582 [Eh]
	 SCS Opposite-Spin Energy  =      -1.8448625667136347 [Eh]
	 SCS Correlation Energy    =      -2.0113928291434928 [Eh]
	 SCS Total Energy          =    -472.8456634338659796 [Eh]
	-----------------------------------------------------------

  Dipole Moment: [D]
     X:     1.4094      Y:    -0.0021      Z:    -0.0000     Total:     1.4094

*** Psi4 exiting successfully. Buy a developer a beer!
