                               Psi4 1.4a3.dev225

  ==> Input File <==

--------------------------------------------------------------------------
#psi4
#
memory 32 gb

molecule  {
0 1
  O       -1.2482290     1.5306510     0.0000030
  N        1.4640540     0.4968240    -0.0000070
  N        0.6053200    -1.5732460     0.0000100
  N       -1.9984820    -0.6503890    -0.0000010
  C        0.3675287    -0.2349793     0.0000094
  C        2.5213300    -0.3786110    -0.0000100
  C        1.5711040     1.9546380     0.0000020
  C       -1.0383320     0.3066720     0.0000020
  C        1.9690460    -1.6456460     0.0000000
  C       -3.4103270    -0.3314980    -0.0000060
  H        3.5447240    -0.0301030    -0.0000120
  H        1.0842430     2.3633630    -0.8839110
  H        1.0842880     2.3633490     0.8839480
  H        2.6322840     2.2067670    -0.0000220
  H        2.4866360    -2.5959740    -0.0000050
  H       -1.6732310    -1.6118380    -0.0000010
  H       -3.9026090    -0.7325290     0.8908020
  H       -3.9026030    -0.7325320    -0.8908160
  H       -3.4966990     0.7550430    -0.0000090
units angstrom
no_reorient  #important for SAPT in psi4, default
symmetry c1  #important for SAPT in psi4, default
}

set PROPERTIES_ORIGIN ["COM"]
properties('MP2/aug-cc-pvtz', properties = ['dipole'])
--------------------------------------------------------------------------

    Molecular point group: c1
  Charge       = 0
  Multiplicity = 1
  Basis Set: AUG-CC-PVTZ
    Blend: AUG-CC-PVTZ
  Basis Set: (AUG-CC-PVTZ AUX)
    Blend: AUG-CC-PVTZ-JKFIT

    Orbital Energies [Eh]
    ---------------------

    Doubly Occupied:

       1A    -20.521885     2A    -15.640587     3A    -15.585492
       4A    -15.561570     5A    -11.363612     6A    -11.304328
       7A    -11.277846     8A    -11.267840     9A    -11.258759
      10A    -11.255833    11A     -1.383935    12A     -1.354607
      13A     -1.233686    14A     -1.190217    15A     -1.032680
      16A     -0.983281    17A     -0.953270    18A     -0.835591
      19A     -0.817842    20A     -0.772324    21A     -0.737262
      22A     -0.661819    23A     -0.657728    24A     -0.644915
      25A     -0.619599    26A     -0.605059    27A     -0.598663
      28A     -0.581128    29A     -0.563651    30A     -0.560967
      31A     -0.545794    32A     -0.530680    33A     -0.456739
      34A     -0.432588    35A     -0.398930    36A     -0.389117
      37A     -0.322885

  @DF-RHF Final Energy:  -470.83358603142614

   => Energetics <=

    Nuclear Repulsion Energy =            527.3629117156082202
    One-Electron Energy =               -1686.5875796616699063
    Two-Electron Energy =                 688.3910819146357198
    Total Energy =                       -470.8335860314260799
  Basis Set: (AUG-CC-PVTZ AUX)
    Blend: AUG-CC-PVTZ-RI
    Molecular point group: c1

    Geometry (in Angstrom), charge = 0, multiplicity = 1:

       Center              X                  Y                   Z               Mass
    ------------   -----------------  -----------------  -----------------  -----------------
         O           -1.267153023340     1.542515418504     0.000002866349    15.994914619570
         N            1.445129976660     0.508688418504    -0.000007133651    14.003074004430
         N            0.586395976660    -1.561381581496     0.000009866349    14.003074004430
         N           -2.017406023340    -0.638524581496    -0.000001133651    14.003074004430
         C            0.348604676660    -0.223114881496     0.000009266349    12.000000000000
         C            2.502405976660    -0.366746581496    -0.000010133651    12.000000000000
         C            1.552179976660     1.966502418504     0.000001866349    12.000000000000
         C           -1.057256023340     0.318536418504     0.000001866349    12.000000000000
         C            1.950121976660    -1.633781581496    -0.000000133651    12.000000000000
         C           -3.429251023340    -0.319633581496    -0.000006133651    12.000000000000
         H            3.525799976660    -0.018238581496    -0.000012133651     1.007825032230
         H            1.065318976660     2.375227418504    -0.883911133651     1.007825032230
         H            1.065363976660     2.375213418504     0.883947866349     1.007825032230
         H            2.613359976660     2.218631418504    -0.000022133651     1.007825032230
         H            2.467711976660    -2.584109581496    -0.000005133651     1.007825032230
         H           -1.692155023340    -1.599973581496    -0.000001133651     1.007825032230
         H           -3.921533023340    -0.720664581496     0.890801866349     1.007825032230
         H           -3.921527023340    -0.720667581496    -0.890816133651     1.007825032230
         H           -3.515623023340     0.766907418504    -0.000009133651     1.007825032230

  Basis Set: AUG-CC-PVTZ
    Blend: AUG-CC-PVTZ
  Basis Set: (AUG-CC-PVTZ AUX)
    Blend: AUG-CC-PVTZ-JKFIT
	 Reference Energy          =    -470.8335860314261367 [Eh]
	 Singles Energy            =      -0.0000000000000000 [Eh]
	 Same-Spin Energy          =      -0.4988735012712898 [Eh]
	 Opposite-Spin Energy      =      -1.5363261610338323 [Eh]
	 Correlation Energy        =      -2.0351996623051223 [Eh]
	 Total Energy              =    -472.8687856937312404 [Eh]

	 ================> DF-SCS-MP2 Energies <==================
	-----------------------------------------------------------
	 SCS Same-Spin Scale       =       0.3333333333333333 [-]
	 SCS Opposite-Spin Scale   =       1.2000000000000000 [-]
	 SCS Same-Spin Energy      =      -0.1662911670904299 [Eh]
	 SCS Opposite-Spin Energy  =      -1.8435913932405987 [Eh]
	 SCS Correlation Energy    =      -2.0098825603310289 [Eh]
	 SCS Total Energy          =    -472.8434685917571869 [Eh]
	-----------------------------------------------------------

  Dipole Moment: [D]
     X:     1.3756      Y:     0.1154      Z:    -0.0000     Total:     1.3804

*** Psi4 exiting successfully. Buy a developer a beer!
