                               Psi4 1.3.2 release

  ==> Input File <==

--------------------------------------------------------------------------
#psi4
#
memory 32 gb

molecule  {
0 1
  O       -1.2482290     1.5306510     0.0000030
  N        1.4640540     0.4968240    -0.0000070
  N        0.6281490    -1.5681705     0.0000102
  N       -1.9984820    -0.6503890    -0.0000010
  C        0.3259400    -0.2627350     0.0000100
  C        2.5213300    -0.3786110    -0.0000100
  C        1.5711040     1.9546380     0.0000020
  C       -1.0383320     0.3066720     0.0000020
  C        1.9690460    -1.6456460     0.0000000
  C       -3.4103270    -0.3314980    -0.0000060
  H        3.5447240    -0.0301030    -0.0000120
  H        1.0842430     2.3633630    -0.8839110
  H        1.0842880     2.3633490     0.8839480
  H        2.6322840     2.2067670    -0.0000220
  H        2.4866360    -2.5959740    -0.0000050
  H       -1.6732310    -1.6118380    -0.0000010
  H       -3.9026090    -0.7325290     0.8908020
  H       -3.9026030    -0.7325320    -0.8908160
  H       -3.4966990     0.7550430    -0.0000090
units angstrom
no_reorient  #important for SAPT in psi4, default
symmetry c1  #important for SAPT in psi4, default
}

set PROPERTIES_ORIGIN ["COM"]
properties('MP2/aug-cc-pvtz', properties = ['dipole'])
--------------------------------------------------------------------------

    Molecular point group: c1
  Charge       = 0
  Multiplicity = 1
  Basis Set: AUG-CC-PVTZ
    Blend: AUG-CC-PVTZ
  Basis Set: (AUG-CC-PVTZ AUX)
    Blend: AUG-CC-PVTZ-JKFIT

    Orbital Energies [Eh]
    ---------------------

    Doubly Occupied:

       1A    -20.522163     2A    -15.638447     3A    -15.585063
       4A    -15.562666     5A    -11.362524     6A    -11.303371
       7A    -11.274670     8A    -11.271396     9A    -11.258438
      10A    -11.253205    11A     -1.381962    12A     -1.348392
      13A     -1.234608    14A     -1.193822    15A     -1.035567
      16A     -0.980149    17A     -0.950841    18A     -0.840535
      19A     -0.814500    20A     -0.773666    21A     -0.735945
      22A     -0.660358    23A     -0.656472    24A     -0.645870
      25A     -0.619228    26A     -0.606666    27A     -0.596219
      28A     -0.584017    29A     -0.564621    30A     -0.560941
      31A     -0.545679    32A     -0.530512    33A     -0.454630
      34A     -0.433661    35A     -0.400068    36A     -0.389961
      37A     -0.321630

  @DF-RHF Final Energy:  -470.83552596099446

   => Energetics <=

    Nuclear Repulsion Energy =            527.4429818190769765
    One-Electron Energy =               -1686.7720940174583575
    Two-Electron Energy =                 688.4935862373869213
    Total Energy =                       -470.8355259609944596
  Basis Set: (AUG-CC-PVTZ AUX)
    Blend: AUG-CC-PVTZ-RI
    Molecular point group: c1

    Geometry (in Angstrom), charge = 0, multiplicity = 1:

       Center              X                  Y                   Z               Mass
    ------------   -----------------  -----------------  -----------------  -----------------
         O           -1.265863152489     1.544399269830     0.000002794441    15.994914619570
         N            1.446419847511     0.510572269830    -0.000007205559    14.003074004430
         N            0.610514847511    -1.554422230170     0.000009994441    14.003074004430
         N           -2.016116152489    -0.636640730170    -0.000001205559    14.003074004430
         C            0.308305847511    -0.248986730170     0.000009794441    12.000000000000
         C            2.503695847511    -0.364862730170    -0.000010205559    12.000000000000
         C            1.553469847511     1.968386269830     0.000001794441    12.000000000000
         C           -1.055966152489     0.320420269830     0.000001794441    12.000000000000
         C            1.951411847511    -1.631897730170    -0.000000205559    12.000000000000
         C           -3.427961152489    -0.317749730170    -0.000006205559    12.000000000000
         H            3.527089847511    -0.016354730170    -0.000012205559     1.007825032230
         H            1.066608847511     2.377111269830    -0.883911205559     1.007825032230
         H            1.066653847511     2.377097269830     0.883947794441     1.007825032230
         H            2.614649847511     2.220515269830    -0.000022205559     1.007825032230
         H            2.469001847511    -2.582225730170    -0.000005205559     1.007825032230
         H           -1.690865152489    -1.598089730170    -0.000001205559     1.007825032230
         H           -3.920243152489    -0.718780730170     0.890801794441     1.007825032230
         H           -3.920237152489    -0.718783730170    -0.890816205559     1.007825032230
         H           -3.514333152489     0.768791269830    -0.000009205559     1.007825032230

  Basis Set: AUG-CC-PVTZ
    Blend: AUG-CC-PVTZ
  Basis Set: (AUG-CC-PVTZ AUX)
    Blend: AUG-CC-PVTZ-JKFIT
	 Reference Energy          =    -470.8355259609944596 [Eh]
	 Singles Energy            =      -0.0000000000000000 [Eh]
	 Same-Spin Energy          =      -0.4994068293939979 [Eh]
	 Opposite-Spin Energy      =      -1.5366286250357342 [Eh]
	 Correlation Energy        =      -2.0360354544297321 [Eh]
	 Total Energy              =    -472.8715614154241962 [Eh]

	 ================> DF-SCS-MP2 Energies <==================
	-----------------------------------------------------------
	 SCS Same-Spin Scale       =       0.3333333333333333 [-]
	 SCS Opposite-Spin Scale   =       1.2000000000000000 [-]
	 SCS Same-Spin Energy      =      -0.1664689431313326 [Eh]
	 SCS Opposite-Spin Energy  =      -1.8439543500428810 [Eh]
	 SCS Correlation Energy    =      -2.0104232931742136 [Eh]
	 SCS Total Energy          =    -472.8459492541686586 [Eh]
	-----------------------------------------------------------

  Dipole Moment: [D]
     X:     1.3573      Y:    -0.0109      Z:    -0.0000     Total:     1.3573

*** Psi4 exiting successfully. Buy a developer a beer!
