                               Psi4 1.3.2 release

  ==> Input File <==

--------------------------------------------------------------------------
#psi4
#
memory 32 gb

molecule  {
0 1
  O       -1.2482290     1.5306510     0.0000030
  N        1.4640540     0.4968240    -0.0000070
  N        0.6042641    -1.5970573     0.0000101
  N       -1.9984820    -0.6503890    -0.0000010
  C        0.3259400    -0.2627350     0.0000100
  C        2.5213300    -0.3786110    -0.0000100
  C        1.5711040     1.9546380     0.0000020
  C       -1.0383320     0.3066720     0.0000020
  C        1.9690460    -1.6456460     0.0000000
  C       -3.4103270    -0.3314980    -0.0000060
  H        3.5447240    -0.0301030    -0.0000120
  H        1.0842430     2.3633630    -0.8839110
  H        1.0842880     2.3633490     0.8839480
  H        2.6322840     2.2067670    -0.0000220
  H        2.4866360    -2.5959740    -0.0000050
  H       -1.6732310    -1.6118380    -0.0000010
  H       -3.9026090    -0.7325290     0.8908020
  H       -3.9026030    -0.7325320    -0.8908160
  H       -3.4966990     0.7550430    -0.0000090
units angstrom
no_reorient  #important for SAPT in psi4, default
symmetry c1  #important for SAPT in psi4, default
}

set PROPERTIES_ORIGIN ["COM"]
properties('MP2/aug-cc-pvtz', properties = ['dipole'])
--------------------------------------------------------------------------

    Molecular point group: c1
  Charge       = 0
  Multiplicity = 1
  Basis Set: AUG-CC-PVTZ
    Blend: AUG-CC-PVTZ
  Basis Set: (AUG-CC-PVTZ AUX)
    Blend: AUG-CC-PVTZ-JKFIT

    Orbital Energies [Eh]
    ---------------------

    Doubly Occupied:

       1A    -20.522268     2A    -15.640827     3A    -15.584770
       4A    -15.568661     5A    -11.362374     6A    -11.307521
       7A    -11.276097     8A    -11.272303     9A    -11.258280
      10A    -11.256084    11A     -1.381217    12A     -1.344596
      13A     -1.234406    14A     -1.188960    15A     -1.034512
      16A     -0.981174    17A     -0.950332    18A     -0.841031
      19A     -0.812552    20A     -0.773074    21A     -0.735196
      22A     -0.658874    23A     -0.656208    24A     -0.645653
      25A     -0.619239    26A     -0.603821    27A     -0.596075
      28A     -0.583267    29A     -0.563081    30A     -0.559418
      31A     -0.545634    32A     -0.529903    33A     -0.458968
      34A     -0.434963    35A     -0.399040    36A     -0.389056
      37A     -0.321736

  @DF-RHF Final Energy:  -470.83261431898734

   => Energetics <=

    Nuclear Repulsion Energy =            526.4901024750558918
    One-Electron Energy =               -1684.8630943319590187
    Two-Electron Energy =                 687.5403775379157878
    Total Energy =                       -470.8326143189873392
  Basis Set: (AUG-CC-PVTZ AUX)
    Blend: AUG-CC-PVTZ-RI
    Molecular point group: c1

    Geometry (in Angstrom), charge = 0, multiplicity = 1:

       Center              X                  Y                   Z               Mass
    ------------   -----------------  -----------------  -----------------  -----------------
         O           -1.263458240924     1.547307810346     0.000002804510    15.994914619570
         N            1.448824759076     0.513480810346    -0.000007195490    14.003074004430
         N            0.589034859076    -1.580400489654     0.000009904510    14.003074004430
         N           -2.013711240924    -0.633732189654    -0.000001195490    14.003074004430
         C            0.310710759076    -0.246078189654     0.000009804510    12.000000000000
         C            2.506100759076    -0.361954189654    -0.000010195490    12.000000000000
         C            1.555874759076     1.971294810346     0.000001804510    12.000000000000
         C           -1.053561240924     0.323328810346     0.000001804510    12.000000000000
         C            1.953816759076    -1.628989189654    -0.000000195490    12.000000000000
         C           -3.425556240924    -0.314841189654    -0.000006195490    12.000000000000
         H            3.529494759076    -0.013446189654    -0.000012195490     1.007825032230
         H            1.069013759076     2.380019810346    -0.883911195490     1.007825032230
         H            1.069058759076     2.380005810346     0.883947804510     1.007825032230
         H            2.617054759076     2.223423810346    -0.000022195490     1.007825032230
         H            2.471406759076    -2.579317189654    -0.000005195490     1.007825032230
         H           -1.688460240924    -1.595181189654    -0.000001195490     1.007825032230
         H           -3.917838240924    -0.715872189654     0.890801804510     1.007825032230
         H           -3.917832240924    -0.715875189654    -0.890816195490     1.007825032230
         H           -3.511928240924     0.771699810346    -0.000009195490     1.007825032230

  Basis Set: AUG-CC-PVTZ
    Blend: AUG-CC-PVTZ
  Basis Set: (AUG-CC-PVTZ AUX)
    Blend: AUG-CC-PVTZ-JKFIT
	 Reference Energy          =    -470.8326143189873392 [Eh]
	 Singles Energy            =      -0.0000000000000000 [Eh]
	 Same-Spin Energy          =      -0.4998649707026650 [Eh]
	 Opposite-Spin Energy      =      -1.5382527311261238 [Eh]
	 Correlation Energy        =      -2.0381177018287886 [Eh]
	 Total Energy              =    -472.8707320208161491 [Eh]

	 ================> DF-SCS-MP2 Energies <==================
	-----------------------------------------------------------
	 SCS Same-Spin Scale       =       0.3333333333333333 [-]
	 SCS Opposite-Spin Scale   =       1.2000000000000000 [-]
	 SCS Same-Spin Energy      =      -0.1666216569008883 [Eh]
	 SCS Opposite-Spin Energy  =      -1.8459032773513484 [Eh]
	 SCS Correlation Energy    =      -2.0125249342522369 [Eh]
	 SCS Total Energy          =    -472.8451392532395516 [Eh]
	-----------------------------------------------------------

  Dipole Moment: [D]
     X:     1.4258      Y:     0.0725      Z:    -0.0000     Total:     1.4277

*** Psi4 exiting successfully. Buy a developer a beer!
