                               Psi4 1.3.2 release

  ==> Input File <==

--------------------------------------------------------------------------
#psi4
#
memory 32 gb

molecule  {
0 1
  O       -1.2482290     1.5306510     0.0000030
  N        1.4640540     0.4968240    -0.0000070
  N        0.6053200    -1.5732460     0.0000100
  N       -1.9984820    -0.6503890    -0.0000010
  C        0.3128572    -0.2427565     0.0000100
  C        2.5213300    -0.3786110    -0.0000100
  C        1.5711040     1.9546380     0.0000020
  C       -1.0383320     0.3066720     0.0000020
  C        1.9690460    -1.6456460     0.0000000
  C       -3.4103270    -0.3314980    -0.0000060
  H        3.5447240    -0.0301030    -0.0000120
  H        1.0842430     2.3633630    -0.8839110
  H        1.0842880     2.3633490     0.8839480
  H        2.6322840     2.2067670    -0.0000220
  H        2.4866360    -2.5959740    -0.0000050
  H       -1.6732310    -1.6118380    -0.0000010
  H       -3.9026090    -0.7325290     0.8908020
  H       -3.9026030    -0.7325320    -0.8908160
  H       -3.4966990     0.7550430    -0.0000090
units angstrom
no_reorient  #important for SAPT in psi4, default
symmetry c1  #important for SAPT in psi4, default
}

set PROPERTIES_ORIGIN ["COM"]
properties('MP2/aug-cc-pvtz', properties = ['dipole'])
--------------------------------------------------------------------------

    Molecular point group: c1
  Charge       = 0
  Multiplicity = 1
  Basis Set: AUG-CC-PVTZ
    Blend: AUG-CC-PVTZ
  Basis Set: (AUG-CC-PVTZ AUX)
    Blend: AUG-CC-PVTZ-JKFIT

    Orbital Energies [Eh]
    ---------------------

    Doubly Occupied:

       1A    -20.521365     2A    -15.640517     3A    -15.584372
       4A    -15.567060     5A    -11.360903     6A    -11.304943
       7A    -11.274912     8A    -11.273438     9A    -11.258107
      10A    -11.256445    11A     -1.381720    12A     -1.344271
      13A     -1.234233    14A     -1.186586    15A     -1.037749
      16A     -0.979563    17A     -0.950638    18A     -0.844656
      19A     -0.813209    20A     -0.772768    21A     -0.734723
      22A     -0.660835    23A     -0.656384    24A     -0.645954
      25A     -0.619045    26A     -0.605116    27A     -0.593756
      28A     -0.585996    29A     -0.563630    30A     -0.559337
      31A     -0.545415    32A     -0.529428    33A     -0.454550
      34A     -0.435241    35A     -0.397918    36A     -0.388266
      37A     -0.322577

  @DF-RHF Final Energy:  -470.83259578907155

   => Energetics <=

    Nuclear Repulsion Energy =            527.0896243770406500
    One-Electron Energy =               -1686.0731888506466021
    Two-Electron Energy =                 688.1509686845342912
    Total Energy =                       -470.8325957890715472
  Basis Set: (AUG-CC-PVTZ AUX)
    Blend: AUG-CC-PVTZ-RI
    Molecular point group: c1

    Geometry (in Angstrom), charge = 0, multiplicity = 1:

       Center              X                  Y                   Z               Mass
    ------------   -----------------  -----------------  -----------------  -----------------
         O           -1.262435712058     1.543186471489     0.000002814578    15.994914619570
         N            1.449847287942     0.509359471489    -0.000007185422    14.003074004430
         N            0.591113287942    -1.560710528511     0.000009814578    14.003074004430
         N           -2.012688712058    -0.637853528511    -0.000001185422    14.003074004430
         C            0.298650487942    -0.230221028511     0.000009814578    12.000000000000
         C            2.507123287942    -0.366075528511    -0.000010185422    12.000000000000
         C            1.556897287942     1.967173471489     0.000001814578    12.000000000000
         C           -1.052538712058     0.319207471489     0.000001814578    12.000000000000
         C            1.954839287942    -1.633110528511    -0.000000185422    12.000000000000
         C           -3.424533712058    -0.318962528511    -0.000006185422    12.000000000000
         H            3.530517287942    -0.017567528511    -0.000012185422     1.007825032230
         H            1.070036287942     2.375898471489    -0.883911185422     1.007825032230
         H            1.070081287942     2.375884471489     0.883947814578     1.007825032230
         H            2.618077287942     2.219302471489    -0.000022185422     1.007825032230
         H            2.472429287942    -2.583438528511    -0.000005185422     1.007825032230
         H           -1.687437712058    -1.599302528511    -0.000001185422     1.007825032230
         H           -3.916815712058    -0.719993528511     0.890801814578     1.007825032230
         H           -3.916809712058    -0.719996528511    -0.890816185422     1.007825032230
         H           -3.510905712058     0.767578471489    -0.000009185422     1.007825032230

  Basis Set: AUG-CC-PVTZ
    Blend: AUG-CC-PVTZ
  Basis Set: (AUG-CC-PVTZ AUX)
    Blend: AUG-CC-PVTZ-JKFIT
	 Reference Energy          =    -470.8325957890715472 [Eh]
	 Singles Energy            =      -0.0000000000000000 [Eh]
	 Same-Spin Energy          =      -0.5000392980463009 [Eh]
	 Opposite-Spin Energy      =      -1.5382462956825216 [Eh]
	 Correlation Energy        =      -2.0382855937288227 [Eh]
	 Total Energy              =    -472.8708813828003485 [Eh]

	 ================> DF-SCS-MP2 Energies <==================
	-----------------------------------------------------------
	 SCS Same-Spin Scale       =       0.3333333333333333 [-]
	 SCS Opposite-Spin Scale   =       1.2000000000000000 [-]
	 SCS Same-Spin Energy      =      -0.1666797660154336 [Eh]
	 SCS Opposite-Spin Energy  =      -1.8458955548190259 [Eh]
	 SCS Correlation Energy    =      -2.0125753208344594 [Eh]
	 SCS Total Energy          =    -472.8451711099060049 [Eh]
	-----------------------------------------------------------

  Dipole Moment: [D]
     X:     1.4679      Y:     0.0127      Z:    -0.0000     Total:     1.4679

*** Psi4 exiting successfully. Buy a developer a beer!
