                               Psi4 1.4a3.dev225

  ==> Input File <==

--------------------------------------------------------------------------
#psi4
#
memory 32 gb

molecule  {
0 1
  O       -1.2482290     1.5306510     0.0000030
  N        1.4640540     0.4968240    -0.0000070
  N        0.6053200    -1.5732460     0.0000100
  N       -1.9984820    -0.6503890    -0.0000010
  C        0.3259400    -0.2627350     0.0000100
  C        2.5213300    -0.3786110    -0.0000100
  C        1.5711040     1.9546380     0.0000020
  C       -1.0383320     0.3066720     0.0000020
  C        1.9770375    -1.6273120    -0.0000001
  C       -3.4103270    -0.3314980    -0.0000060
  H        3.5447240    -0.0301030    -0.0000120
  H        1.0842430     2.3633630    -0.8839110
  H        1.0842880     2.3633490     0.8839480
  H        2.6322840     2.2067670    -0.0000220
  H        2.4866360    -2.5959740    -0.0000050
  H       -1.6732310    -1.6118380    -0.0000010
  H       -3.9026090    -0.7325290     0.8908020
  H       -3.9026030    -0.7325320    -0.8908160
  H       -3.4966990     0.7550430    -0.0000090
units angstrom
no_reorient  #important for SAPT in psi4, default
symmetry c1  #important for SAPT in psi4, default
}

set PROPERTIES_ORIGIN ["COM"]
properties('MP2/aug-cc-pvtz', properties = ['dipole'])
--------------------------------------------------------------------------

    Molecular point group: c1
  Charge       = 0
  Multiplicity = 1
  Basis Set: AUG-CC-PVTZ
    Blend: AUG-CC-PVTZ
  Basis Set: (AUG-CC-PVTZ AUX)
    Blend: AUG-CC-PVTZ-JKFIT

    Orbital Energies [Eh]
    ---------------------

    Doubly Occupied:

       1A    -20.522909     2A    -15.636076     3A    -15.585345
       4A    -15.565250     5A    -11.362613     6A    -11.305870
       7A    -11.274424     8A    -11.270140     9A    -11.258635
      10A    -11.253879    11A     -1.382164    12A     -1.346872
      13A     -1.234976    14A     -1.189069    15A     -1.038475
      16A     -0.978901    17A     -0.950957    18A     -0.842048
      19A     -0.812735    20A     -0.773433    21A     -0.734588
      22A     -0.659750    23A     -0.656428    24A     -0.645713
      25A     -0.619446    26A     -0.601578    27A     -0.596998
      28A     -0.583448    29A     -0.560763    30A     -0.560191
      31A     -0.546054    32A     -0.530553    33A     -0.459548
      34A     -0.434388    35A     -0.398389    36A     -0.388329
      37A     -0.326656

  @DF-RHF Final Energy:  -470.83518025334934

   => Energetics <=

    Nuclear Repulsion Energy =            527.3654707410347555
    One-Electron Energy =               -1686.6261219620066640
    Two-Electron Energy =                 688.4254709676224593
    Total Energy =                       -470.8351802533493355
  Basis Set: (AUG-CC-PVTZ AUX)
    Blend: AUG-CC-PVTZ-RI
    Molecular point group: c1

    Geometry (in Angstrom), charge = 0, multiplicity = 1:

       Center              X                  Y                   Z               Mass
    ------------   -----------------  -----------------  -----------------  -----------------
         O           -1.264254100673     1.543328366597     0.000002823207    15.994914619570
         N            1.448028899327     0.509501366597    -0.000007176793    14.003074004430
         N            0.589294899327    -1.560568633403     0.000009823207    14.003074004430
         N           -2.014507100673    -0.637711633403    -0.000001176793    14.003074004430
         C            0.309914899327    -0.250057633403     0.000009823207    12.000000000000
         C            2.505304899327    -0.365933633403    -0.000010176793    12.000000000000
         C            1.555078899327     1.967315366597     0.000001823207    12.000000000000
         C           -1.054357100673     0.319349366597     0.000001823207    12.000000000000
         C            1.961012399327    -1.614634633403    -0.000000276793    12.000000000000
         C           -3.426352100673    -0.318820633403    -0.000006176793    12.000000000000
         H            3.528698899327    -0.017425633403    -0.000012176793     1.007825032230
         H            1.068217899327     2.376040366597    -0.883911176793     1.007825032230
         H            1.068262899327     2.376026366597     0.883947823207     1.007825032230
         H            2.616258899327     2.219444366597    -0.000022176793     1.007825032230
         H            2.470610899327    -2.583296633403    -0.000005176793     1.007825032230
         H           -1.689256100673    -1.599160633403    -0.000001176793     1.007825032230
         H           -3.918634100673    -0.719851633403     0.890801823207     1.007825032230
         H           -3.918628100673    -0.719854633403    -0.890816176793     1.007825032230
         H           -3.512724100673     0.767720366597    -0.000009176793     1.007825032230

  Basis Set: AUG-CC-PVTZ
    Blend: AUG-CC-PVTZ
  Basis Set: (AUG-CC-PVTZ AUX)
    Blend: AUG-CC-PVTZ-JKFIT
	 Reference Energy          =    -470.8351802533493355 [Eh]
	 Singles Energy            =      -0.0000000000000000 [Eh]
	 Same-Spin Energy          =      -0.4990673121008054 [Eh]
	 Opposite-Spin Energy      =      -1.5368094144481348 [Eh]
	 Correlation Energy        =      -2.0358767265489401 [Eh]
	 Total Energy              =    -472.8710569798982988 [Eh]

	 ================> DF-SCS-MP2 Energies <==================
	-----------------------------------------------------------
	 SCS Same-Spin Scale       =       0.3333333333333333 [-]
	 SCS Opposite-Spin Scale   =       1.2000000000000000 [-]
	 SCS Same-Spin Energy      =      -0.1663557707002685 [Eh]
	 SCS Opposite-Spin Energy  =      -1.8441712973377618 [Eh]
	 SCS Correlation Energy    =      -2.0105270680380301 [Eh]
	 SCS Total Energy          =    -472.8457073213873514 [Eh]
	-----------------------------------------------------------

  Dipole Moment: [D]
     X:     1.3788      Y:     0.0296      Z:    -0.0000     Total:     1.3791

*** Psi4 exiting successfully. Buy a developer a beer!
