                               Psi4 1.3.2 release

  ==> Input File <==

--------------------------------------------------------------------------
#psi4
#
memory 32 gb

molecule  {
0 1
  O       -1.2482290     1.5306510     0.0000030
  N        1.4640540     0.4968240    -0.0000070
  N        0.6053200    -1.5732460     0.0000100
  N       -1.9984820    -0.6503890    -0.0000010
  C        0.3259400    -0.2627350     0.0000100
  C        2.5213300    -0.3786110    -0.0000100
  C        1.5711040     1.9546380     0.0000020
  C       -1.0383320     0.3066720     0.0000020
  C        1.8691866    -1.6403445     0.0000007
  C       -3.4103270    -0.3314980    -0.0000060
  H        3.5447240    -0.0301030    -0.0000120
  H        1.0842430     2.3633630    -0.8839110
  H        1.0842880     2.3633490     0.8839480
  H        2.6322840     2.2067670    -0.0000220
  H        2.4866360    -2.5959740    -0.0000050
  H       -1.6732310    -1.6118380    -0.0000010
  H       -3.9026090    -0.7325290     0.8908020
  H       -3.9026030    -0.7325320    -0.8908160
  H       -3.4966990     0.7550430    -0.0000090
units angstrom
no_reorient  #important for SAPT in psi4, default
symmetry c1  #important for SAPT in psi4, default
}

set PROPERTIES_ORIGIN ["COM"]
properties('MP2/aug-cc-pvtz', properties = ['dipole'])
--------------------------------------------------------------------------

    Molecular point group: c1
  Charge       = 0
  Multiplicity = 1
  Basis Set: AUG-CC-PVTZ
    Blend: AUG-CC-PVTZ
  Basis Set: (AUG-CC-PVTZ AUX)
    Blend: AUG-CC-PVTZ-JKFIT

    Orbital Energies [Eh]
    ---------------------

    Doubly Occupied:

       1A    -20.518866     2A    -15.646061     3A    -15.583086
       4A    -15.561994     5A    -11.359527     6A    -11.300381
       7A    -11.276520     8A    -11.272107     9A    -11.257977
      10A    -11.257311    11A     -1.383388    12A     -1.355788
      13A     -1.235497    14A     -1.213503    15A     -1.030150
      16A     -0.987467    17A     -0.947627    18A     -0.834105
      19A     -0.814948    20A     -0.774349    21A     -0.740158
      22A     -0.659491    23A     -0.659182    24A     -0.645740
      25A     -0.618201    26A     -0.612500    27A     -0.591875
      28A     -0.580149    29A     -0.566409    30A     -0.563084
      31A     -0.543988    32A     -0.530328    33A     -0.453408
      34A     -0.432738    35A     -0.413203    36A     -0.390558
      37A     -0.310941

  @DF-RHF Final Energy:  -470.82220642547139

   => Energetics <=

    Nuclear Repulsion Energy =            528.8226551757410334
    One-Electron Energy =               -1689.4445130002175119
    Two-Electron Energy =                 689.7996513990051426
    Total Energy =                       -470.8222064254714496
  Basis Set: (AUG-CC-PVTZ AUX)
    Blend: AUG-CC-PVTZ-RI
    Molecular point group: c1

    Geometry (in Angstrom), charge = 0, multiplicity = 1:

       Center              X                  Y                   Z               Mass
    ------------   -----------------  -----------------  -----------------  -----------------
         O           -1.254948223436     1.544452871308     0.000002754179    15.994914619570
         N            1.457334776564     0.510625871308    -0.000007245821    14.003074004430
         N            0.598600776564    -1.559444128692     0.000009754179    14.003074004430
         N           -2.005201223436    -0.636587128692    -0.000001245821    14.003074004430
         C            0.319220776564    -0.248933128692     0.000009754179    12.000000000000
         C            2.514610776564    -0.364809128692    -0.000010245821    12.000000000000
         C            1.564384776564     1.968439871308     0.000001754179    12.000000000000
         C           -1.045051223436     0.320473871308     0.000001754179    12.000000000000
         C            1.862467376564    -1.626542628692     0.000000454179    12.000000000000
         C           -3.417046223436    -0.317696128692    -0.000006245821    12.000000000000
         H            3.538004776564    -0.016301128692    -0.000012245821     1.007825032230
         H            1.077523776564     2.377164871308    -0.883911245821     1.007825032230
         H            1.077568776564     2.377150871308     0.883947754179     1.007825032230
         H            2.625564776564     2.220568871308    -0.000022245821     1.007825032230
         H            2.479916776564    -2.582172128692    -0.000005245821     1.007825032230
         H           -1.679950223436    -1.598036128692    -0.000001245821     1.007825032230
         H           -3.909328223436    -0.718727128692     0.890801754179     1.007825032230
         H           -3.909322223436    -0.718730128692    -0.890816245821     1.007825032230
         H           -3.503418223436     0.768844871308    -0.000009245821     1.007825032230

  Basis Set: AUG-CC-PVTZ
    Blend: AUG-CC-PVTZ
  Basis Set: (AUG-CC-PVTZ AUX)
    Blend: AUG-CC-PVTZ-JKFIT
	 Reference Energy          =    -470.8222064254713928 [Eh]
	 Singles Energy            =      -0.0000000000000000 [Eh]
	 Same-Spin Energy          =      -0.5004687638371361 [Eh]
	 Opposite-Spin Energy      =      -1.5372838438566632 [Eh]
	 Correlation Energy        =      -2.0377526076937995 [Eh]
	 Total Energy              =    -472.8599590331651825 [Eh]

	 ================> DF-SCS-MP2 Energies <==================
	-----------------------------------------------------------
	 SCS Same-Spin Scale       =       0.3333333333333333 [-]
	 SCS Opposite-Spin Scale   =       1.2000000000000000 [-]
	 SCS Same-Spin Energy      =      -0.1668229212790454 [Eh]
	 SCS Opposite-Spin Energy  =      -1.8447406126279957 [Eh]
	 SCS Correlation Energy    =      -2.0115635339070410 [Eh]
	 SCS Total Energy          =    -472.8337699593784578 [Eh]
	-----------------------------------------------------------

  Dipole Moment: [D]
     X:     1.3987      Y:    -0.0099      Z:    -0.0000     Total:     1.3987

*** Psi4 exiting successfully. Buy a developer a beer!
