                               Psi4 1.3.2 release

  ==> Input File <==

--------------------------------------------------------------------------
#psi4
#
memory 32 gb

molecule  {
0 1
  O       -1.2482290     1.5306510     0.0000030
  N        1.4640540     0.4968240    -0.0000070
  N        0.6053200    -1.5732460     0.0000100
  N       -1.9984820    -0.6503890    -0.0000010
  C        0.3259400    -0.2627350     0.0000100
  C        2.6070460    -0.2632998    -0.0000091
  C        1.5711040     1.9546380     0.0000020
  C       -1.0383320     0.3066720     0.0000020
  C        1.9690460    -1.6456460     0.0000000
  C       -3.4103270    -0.3314980    -0.0000060
  H        3.5447240    -0.0301030    -0.0000120
  H        1.0842430     2.3633630    -0.8839110
  H        1.0842880     2.3633490     0.8839480
  H        2.6322840     2.2067670    -0.0000220
  H        2.4866360    -2.5959740    -0.0000050
  H       -1.6732310    -1.6118380    -0.0000010
  H       -3.9026090    -0.7325290     0.8908020
  H       -3.9026030    -0.7325320    -0.8908160
  H       -3.4966990     0.7550430    -0.0000090
units angstrom
no_reorient  #important for SAPT in psi4, default
symmetry c1  #important for SAPT in psi4, default
}

set PROPERTIES_ORIGIN ["COM"]
properties('MP2/aug-cc-pvtz', properties = ['dipole'])
--------------------------------------------------------------------------

    Molecular point group: c1
  Charge       = 0
  Multiplicity = 1
  Basis Set: AUG-CC-PVTZ
    Blend: AUG-CC-PVTZ
  Basis Set: (AUG-CC-PVTZ AUX)
    Blend: AUG-CC-PVTZ-JKFIT

    Orbital Energies [Eh]
    ---------------------

    Doubly Occupied:

       1A    -20.520782     2A    -15.649244     3A    -15.584816
       4A    -15.572347     5A    -11.362284     6A    -11.304056
       7A    -11.280123     8A    -11.273753     9A    -11.272902
      10A    -11.258346    11A     -1.380381    12A     -1.342478
      13A     -1.235126    14A     -1.194830    15A     -1.027211
      16A     -0.978472    17A     -0.951104    18A     -0.841829
      19A     -0.824487    20A     -0.774531    21A     -0.729738
      22A     -0.689576    23A     -0.655866    24A     -0.646063
      25A     -0.619168    26A     -0.613969    27A     -0.586912
      28A     -0.583786    29A     -0.557993    30A     -0.552385
      31A     -0.544777    32A     -0.527062    33A     -0.457468
      34A     -0.433208    35A     -0.404070    36A     -0.390035
      37A     -0.306069

  @DF-RHF Final Energy:  -470.79976817167199

   => Energetics <=

    Nuclear Repulsion Energy =            525.2741228801950228
    One-Electron Energy =               -1682.2932926982550725
    Two-Electron Energy =                 686.2194016463881781
    Total Energy =                       -470.7997681716719853
  Basis Set: (AUG-CC-PVTZ AUX)
    Blend: AUG-CC-PVTZ-RI
    Molecular point group: c1

    Geometry (in Angstrom), charge = 0, multiplicity = 1:

       Center              X                  Y                   Z               Mass
    ------------   -----------------  -----------------  -----------------  -----------------
         O           -1.270960532008     1.534960722767     0.000002736922    15.994914619570
         N            1.441322467992     0.501133722767    -0.000007263078    14.003074004430
         N            0.582588467992    -1.568936277233     0.000009736922    14.003074004430
         N           -2.021213532008    -0.646079277233    -0.000001263078    14.003074004430
         C            0.303208467992    -0.258425277233     0.000009736922    12.000000000000
         C            2.584314467992    -0.258990077233    -0.000009363078    12.000000000000
         C            1.548372467992     1.958947722767     0.000001736922    12.000000000000
         C           -1.061063532008     0.310981722767     0.000001736922    12.000000000000
         C            1.946314467992    -1.641336277233    -0.000000263078    12.000000000000
         C           -3.433058532008    -0.327188277233    -0.000006263078    12.000000000000
         H            3.521992467992    -0.025793277233    -0.000012263078     1.007825032230
         H            1.061511467992     2.367672722767    -0.883911263078     1.007825032230
         H            1.061556467992     2.367658722767     0.883947736922     1.007825032230
         H            2.609552467992     2.211076722767    -0.000022263078     1.007825032230
         H            2.463904467992    -2.591664277233    -0.000005263078     1.007825032230
         H           -1.695962532008    -1.607528277233    -0.000001263078     1.007825032230
         H           -3.925340532008    -0.728219277233     0.890801736922     1.007825032230
         H           -3.925334532008    -0.728222277233    -0.890816263078     1.007825032230
         H           -3.519430532008     0.759352722767    -0.000009263078     1.007825032230

  Basis Set: AUG-CC-PVTZ
    Blend: AUG-CC-PVTZ
  Basis Set: (AUG-CC-PVTZ AUX)
    Blend: AUG-CC-PVTZ-JKFIT
	 Reference Energy          =    -470.7997681716719853 [Eh]
	 Singles Energy            =      -0.0000000000000000 [Eh]
	 Same-Spin Energy          =      -0.5017083769087255 [Eh]
	 Opposite-Spin Energy      =      -1.5418985212296079 [Eh]
	 Correlation Energy        =      -2.0436068981383335 [Eh]
	 Total Energy              =    -472.8433750698102926 [Eh]

	 ================> DF-SCS-MP2 Energies <==================
	-----------------------------------------------------------
	 SCS Same-Spin Scale       =       0.3333333333333333 [-]
	 SCS Opposite-Spin Scale   =       1.2000000000000000 [-]
	 SCS Same-Spin Energy      =      -0.1672361256362418 [Eh]
	 SCS Opposite-Spin Energy  =      -1.8502782254755294 [Eh]
	 SCS Correlation Energy    =      -2.0175143511117715 [Eh]
	 SCS Total Energy          =    -472.8172825227837848 [Eh]
	-----------------------------------------------------------

  Dipole Moment: [D]
     X:     1.3501      Y:    -0.0011      Z:    -0.0000     Total:     1.3501

*** Psi4 exiting successfully. Buy a developer a beer!
