                               Psi4 1.3.2 release

  ==> Input File <==

--------------------------------------------------------------------------
#psi4
#
memory 32 gb

molecule  {
0 1
  O       -1.2482290     1.5306510     0.0000030
  N        1.4640540     0.4968240    -0.0000070
  N        0.6053200    -1.5732460     0.0000100
  N       -1.9984820    -0.6503890    -0.0000010
  C        0.3259400    -0.2627350     0.0000100
  C        2.5213300    -0.3786110    -0.0000100
  C        1.5711040     1.9546380     0.0000020
  C       -1.0383320     0.3066720     0.0000020
  C        2.1687647    -1.6562490    -0.0000015
  C       -3.4103270    -0.3314980    -0.0000060
  H        3.5447240    -0.0301030    -0.0000120
  H        1.0842430     2.3633630    -0.8839110
  H        1.0842880     2.3633490     0.8839480
  H        2.6322840     2.2067670    -0.0000220
  H        2.4866360    -2.5959740    -0.0000050
  H       -1.6732310    -1.6118380    -0.0000010
  H       -3.9026090    -0.7325290     0.8908020
  H       -3.9026030    -0.7325320    -0.8908160
  H       -3.4966990     0.7550430    -0.0000090
units angstrom
no_reorient  #important for SAPT in psi4, default
symmetry c1  #important for SAPT in psi4, default
}

set PROPERTIES_ORIGIN ["COM"]
properties('MP2/aug-cc-pvtz', properties = ['dipole'])
--------------------------------------------------------------------------

    Molecular point group: c1
  Charge       = 0
  Multiplicity = 1
  Basis Set: AUG-CC-PVTZ
    Blend: AUG-CC-PVTZ
  Basis Set: (AUG-CC-PVTZ AUX)
    Blend: AUG-CC-PVTZ-JKFIT

    Orbital Energies [Eh]
    ---------------------

    Doubly Occupied:

       1A    -20.526788     2A    -15.626450     3A    -15.586811
       4A    -15.567927     5A    -11.365714     6A    -11.311253
       7A    -11.277312     8A    -11.272836     9A    -11.259474
      10A    -11.255025    11A     -1.382928    12A     -1.333218
      13A     -1.235721    14A     -1.156521    15A     -1.047609
      16A     -0.968652    17A     -0.954679    18A     -0.854857
      19A     -0.815225    20A     -0.771639    21A     -0.734206
      22A     -0.658293    23A     -0.653188    24A     -0.646469
      25A     -0.628358    26A     -0.620274    27A     -0.588760
      28A     -0.579649    29A     -0.554476    30A     -0.552611
      31A     -0.545575    32A     -0.528620    33A     -0.451043
      34A     -0.424710    35A     -0.395895    36A     -0.370810
      37A     -0.346779

  @DF-RHF Final Energy:  -470.79922481467497

   => Energetics <=

    Nuclear Repulsion Energy =            524.1213143907392578
    One-Electron Energy =               -1680.1403696894617497
    Two-Electron Energy =                 685.2198304840474066
    Total Energy =                       -470.7992248146749716
  Basis Set: (AUG-CC-PVTZ AUX)
    Blend: AUG-CC-PVTZ-RI
    Molecular point group: c1

    Geometry (in Angstrom), charge = 0, multiplicity = 1:

       Center              X                  Y                   Z               Mass
    ------------   -----------------  -----------------  -----------------  -----------------
         O           -1.280797215159     1.545825185535     0.000002944005    15.994914619570
         N            1.431485784841     0.511998185535    -0.000007055995    14.003074004430
         N            0.572751784841    -1.558071814465     0.000009944005    14.003074004430
         N           -2.031050215159    -0.635214814465    -0.000001055995    14.003074004430
         C            0.293371784841    -0.247560814465     0.000009944005    12.000000000000
         C            2.488761784841    -0.363436814465    -0.000010055995    12.000000000000
         C            1.538535784841     1.969812185535     0.000001944005    12.000000000000
         C           -1.070900215159     0.321846185535     0.000001944005    12.000000000000
         C            2.136196484841    -1.641074814465    -0.000001555995    12.000000000000
         C           -3.442895215159    -0.316323814465    -0.000006055995    12.000000000000
         H            3.512155784841    -0.014928814465    -0.000012055995     1.007825032230
         H            1.051674784841     2.378537185535    -0.883911055995     1.007825032230
         H            1.051719784841     2.378523185535     0.883947944005     1.007825032230
         H            2.599715784841     2.221941185535    -0.000022055995     1.007825032230
         H            2.454067784841    -2.580799814465    -0.000005055995     1.007825032230
         H           -1.705799215159    -1.596663814465    -0.000001055995     1.007825032230
         H           -3.935177215159    -0.717354814465     0.890801944005     1.007825032230
         H           -3.935171215159    -0.717357814465    -0.890816055995     1.007825032230
         H           -3.529267215159     0.770217185535    -0.000009055995     1.007825032230

  Basis Set: AUG-CC-PVTZ
    Blend: AUG-CC-PVTZ
  Basis Set: (AUG-CC-PVTZ AUX)
    Blend: AUG-CC-PVTZ-JKFIT
	 Reference Energy          =    -470.7992248146749716 [Eh]
	 Singles Energy            =      -0.0000000000000000 [Eh]
	 Same-Spin Energy          =      -0.4979526225829047 [Eh]
	 Opposite-Spin Energy      =      -1.5397790211704216 [Eh]
	 Correlation Energy        =      -2.0377316437533262 [Eh]
	 Total Energy              =    -472.8369564584282898 [Eh]

	 ================> DF-SCS-MP2 Energies <==================
	-----------------------------------------------------------
	 SCS Same-Spin Scale       =       0.3333333333333333 [-]
	 SCS Opposite-Spin Scale   =       1.2000000000000000 [-]
	 SCS Same-Spin Energy      =      -0.1659842075276349 [Eh]
	 SCS Opposite-Spin Energy  =      -1.8477348254045058 [Eh]
	 SCS Correlation Energy    =      -2.0137190329321406 [Eh]
	 SCS Total Energy          =    -472.8129438476071300 [Eh]
	-----------------------------------------------------------

  Dipole Moment: [D]
     X:     1.2493      Y:     0.0206      Z:    -0.0000     Total:     1.2495

*** Psi4 exiting successfully. Buy a developer a beer!
