                               Psi4 1.4a3.dev225

  ==> Input File <==

--------------------------------------------------------------------------
#psi4
#
memory 32 gb

molecule  {
0 1
  O       -1.2482290     1.5306510     0.0000030
  N        1.4640540     0.4968240    -0.0000070
  N        0.6053200    -1.5732460     0.0000100
  N       -1.9984820    -0.6503890    -0.0000010
  C        0.3259400    -0.2627350     0.0000100
  C        2.5213300    -0.3786110    -0.0000100
  C        1.5711040     1.9546380     0.0000020
  C       -1.0383320     0.3066720     0.0000020
  C        1.9890249    -1.5998110    -0.0000004
  C       -3.4103270    -0.3314980    -0.0000060
  H        3.5447240    -0.0301030    -0.0000120
  H        1.0842430     2.3633630    -0.8839110
  H        1.0842880     2.3633490     0.8839480
  H        2.6322840     2.2067670    -0.0000220
  H        2.4866360    -2.5959740    -0.0000050
  H       -1.6732310    -1.6118380    -0.0000010
  H       -3.9026090    -0.7325290     0.8908020
  H       -3.9026030    -0.7325320    -0.8908160
  H       -3.4966990     0.7550430    -0.0000090
units angstrom
no_reorient  #important for SAPT in psi4, default
symmetry c1  #important for SAPT in psi4, default
}

set PROPERTIES_ORIGIN ["COM"]
properties('MP2/aug-cc-pvtz', properties = ['dipole'])
--------------------------------------------------------------------------

    Molecular point group: c1
  Charge       = 0
  Multiplicity = 1
  Basis Set: AUG-CC-PVTZ
    Blend: AUG-CC-PVTZ
  Basis Set: (AUG-CC-PVTZ AUX)
    Blend: AUG-CC-PVTZ-JKFIT

    Orbital Energies [Eh]
    ---------------------

    Doubly Occupied:

       1A    -20.523793     2A    -15.633432     3A    -15.586117
       4A    -15.564965     5A    -11.363237     6A    -11.307330
       7A    -11.273693     8A    -11.266353     9A    -11.259095
      10A    -11.251641    11A     -1.382860    12A     -1.347619
      13A     -1.235511    14A     -1.186542    15A     -1.042855
      16A     -0.978216    17A     -0.951554    18A     -0.844039
      19A     -0.810078    20A     -0.774093    21A     -0.734196
      22A     -0.660157    23A     -0.656676    24A     -0.645827
      25A     -0.619883    26A     -0.599051    27A     -0.597237
      28A     -0.582942    29A     -0.560245    30A     -0.555343
      31A     -0.546575    32A     -0.531451    33A     -0.461733
      34A     -0.435098    35A     -0.397592    36A     -0.387166
      37A     -0.332203

  @DF-RHF Final Energy:  -470.83289111097434

   => Energetics <=

    Nuclear Repulsion Energy =            527.7228710365317284
    One-Electron Energy =               -1687.3387356929765701
    Two-Electron Energy =                 688.7829735454705542
    Total Energy =                       -470.8328911109744013
  Basis Set: (AUG-CC-PVTZ AUX)
    Blend: AUG-CC-PVTZ-RI
    Molecular point group: c1

    Geometry (in Angstrom), charge = 0, multiplicity = 1:

       Center              X                  Y                   Z               Mass
    ------------   -----------------  -----------------  -----------------  -----------------
         O           -1.265288429295     1.540955452418     0.000002849092    15.994914619570
         N            1.446994570705     0.507128452418    -0.000007150908    14.003074004430
         N            0.588260570705    -1.562941547582     0.000009849092    14.003074004430
         N           -2.015541429295    -0.640084547582    -0.000001150908    14.003074004430
         C            0.308880570705    -0.252430547582     0.000009849092    12.000000000000
         C            2.504270570705    -0.368306547582    -0.000010150908    12.000000000000
         C            1.554044570705     1.964942452418     0.000001849092    12.000000000000
         C           -1.055391429295     0.316976452418     0.000001849092    12.000000000000
         C            1.971965470705    -1.589506547582    -0.000000550908    12.000000000000
         C           -3.427386429295    -0.321193547582    -0.000006150908    12.000000000000
         H            3.527664570705    -0.019798547582    -0.000012150908     1.007825032230
         H            1.067183570705     2.373667452418    -0.883911150908     1.007825032230
         H            1.067228570705     2.373653452418     0.883947849092     1.007825032230
         H            2.615224570705     2.217071452418    -0.000022150908     1.007825032230
         H            2.469576570705    -2.585669547582    -0.000005150908     1.007825032230
         H           -1.690290429295    -1.601533547582    -0.000001150908     1.007825032230
         H           -3.919668429295    -0.722224547582     0.890801849092     1.007825032230
         H           -3.919662429295    -0.722227547582    -0.890816150908     1.007825032230
         H           -3.513758429295     0.765347452418    -0.000009150908     1.007825032230

  Basis Set: AUG-CC-PVTZ
    Blend: AUG-CC-PVTZ
  Basis Set: (AUG-CC-PVTZ AUX)
    Blend: AUG-CC-PVTZ-JKFIT
	 Reference Energy          =    -470.8328911109743444 [Eh]
	 Singles Energy            =      -0.0000000000000000 [Eh]
	 Same-Spin Energy          =      -0.4986973559141002 [Eh]
	 Opposite-Spin Energy      =      -1.5364790020474270 [Eh]
	 Correlation Energy        =      -2.0351763579615274 [Eh]
	 Total Energy              =    -472.8680674689358625 [Eh]

	 ================> DF-SCS-MP2 Energies <==================
	-----------------------------------------------------------
	 SCS Same-Spin Scale       =       0.3333333333333333 [-]
	 SCS Opposite-Spin Scale   =       1.2000000000000000 [-]
	 SCS Same-Spin Energy      =      -0.1662324519713667 [Eh]
	 SCS Opposite-Spin Energy  =      -1.8437748024569123 [Eh]
	 SCS Correlation Energy    =      -2.0100072544282792 [Eh]
	 SCS Total Energy          =    -472.8428983654026183 [Eh]
	-----------------------------------------------------------

  Dipole Moment: [D]
     X:     1.3521      Y:     0.0507      Z:    -0.0000     Total:     1.3531

*** Psi4 exiting successfully. Buy a developer a beer!
