                               Psi4 1.3.2 release

  ==> Input File <==

--------------------------------------------------------------------------
#psi4
#
memory 32 gb

molecule  {
0 1
  O       -1.2482290     1.5306510     0.0000030
  N        1.4640540     0.4968240    -0.0000070
  N        0.6053200    -1.5732460     0.0000100
  N       -1.9984820    -0.6503890    -0.0000010
  C        0.3816965    -0.3402756     0.0000083
  C        2.5213300    -0.3786110    -0.0000100
  C        1.5711040     1.9546380     0.0000020
  C       -1.0383320     0.3066720     0.0000020
  C        1.9690460    -1.6456460     0.0000000
  C       -3.4103270    -0.3314980    -0.0000060
  H        3.5447240    -0.0301030    -0.0000120
  H        1.0842430     2.3633630    -0.8839110
  H        1.0842880     2.3633490     0.8839480
  H        2.6322840     2.2067670    -0.0000220
  H        2.4866360    -2.5959740    -0.0000050
  H       -1.6732310    -1.6118380    -0.0000010
  H       -3.9026090    -0.7325290     0.8908020
  H       -3.9026030    -0.7325320    -0.8908160
  H       -3.4966990     0.7550430    -0.0000090
units angstrom
no_reorient  #important for SAPT in psi4, default
symmetry c1  #important for SAPT in psi4, default
}

set PROPERTIES_ORIGIN ["COM"]
properties('MP2/aug-cc-pvtz', properties = ['dipole'])
--------------------------------------------------------------------------

    Molecular point group: c1
  Charge       = 0
  Multiplicity = 1
  Basis Set: AUG-CC-PVTZ
    Blend: AUG-CC-PVTZ
  Basis Set: (AUG-CC-PVTZ AUX)
    Blend: AUG-CC-PVTZ-JKFIT

    Orbital Energies [Eh]
    ---------------------

    Doubly Occupied:

       1A    -20.524540     2A    -15.627910     3A    -15.585541
       4A    -15.559089     5A    -11.364579     6A    -11.304152
       7A    -11.275166     8A    -11.270338     9A    -11.258499
      10A    -11.252252    11A     -1.382837    12A     -1.357012
      13A     -1.235837    14A     -1.208521    15A     -1.029929
      16A     -0.978582    17A     -0.949364    18A     -0.829561
      19A     -0.817353    20A     -0.772227    21A     -0.735010
      22A     -0.657228    23A     -0.655750    24A     -0.644293
      25A     -0.618986    26A     -0.608260    27A     -0.599835
      28A     -0.571099    29A     -0.565536    30A     -0.562543
      31A     -0.546088    32A     -0.531203    33A     -0.472093
      34A     -0.424762    35A     -0.406486    36A     -0.390527
      37A     -0.324540

  @DF-RHF Final Energy:  -470.82876842690541

   => Energetics <=

    Nuclear Repulsion Energy =            527.4295766053704710
    One-Electron Energy =               -1686.7216305788488171
    Two-Electron Energy =                 688.4632855465728198
    Total Energy =                       -470.8287684269054125
  Basis Set: (AUG-CC-PVTZ AUX)
    Blend: AUG-CC-PVTZ-RI
    Molecular point group: c1

    Geometry (in Angstrom), charge = 0, multiplicity = 1:

       Center              X                  Y                   Z               Mass
    ------------   -----------------  -----------------  -----------------  -----------------
         O           -1.268375487014     1.551600872972     0.000002961262    15.994914619570
         N            1.443907512986     0.517773872972    -0.000007038738    14.003074004430
         N            0.585173512986    -1.552296127028     0.000009961262    14.003074004430
         N           -2.018628487014    -0.629439127028    -0.000001038738    14.003074004430
         C            0.361550012986    -0.319325727028     0.000008261262    12.000000000000
         C            2.501183512986    -0.357661127028    -0.000010038738    12.000000000000
         C            1.550957512986     1.975587872972     0.000001961262    12.000000000000
         C           -1.058478487014     0.327621872972     0.000001961262    12.000000000000
         C            1.948899512986    -1.624696127028    -0.000000038738    12.000000000000
         C           -3.430473487014    -0.310548127028    -0.000006038738    12.000000000000
         H            3.524577512986    -0.009153127028    -0.000012038738     1.007825032230
         H            1.064096512986     2.384312872972    -0.883911038738     1.007825032230
         H            1.064141512986     2.384298872972     0.883947961262     1.007825032230
         H            2.612137512986     2.227716872972    -0.000022038738     1.007825032230
         H            2.466489512986    -2.575024127028    -0.000005038738     1.007825032230
         H           -1.693377487014    -1.590888127028    -0.000001038738     1.007825032230
         H           -3.922755487014    -0.711579127028     0.890801961262     1.007825032230
         H           -3.922749487014    -0.711582127028    -0.890816038738     1.007825032230
         H           -3.516845487014     0.775992872972    -0.000009038738     1.007825032230

  Basis Set: AUG-CC-PVTZ
    Blend: AUG-CC-PVTZ
  Basis Set: (AUG-CC-PVTZ AUX)
    Blend: AUG-CC-PVTZ-JKFIT
	 Reference Energy          =    -470.8287684269054125 [Eh]
	 Singles Energy            =      -0.0000000000000000 [Eh]
	 Same-Spin Energy          =      -0.4969548787550536 [Eh]
	 Opposite-Spin Energy      =      -1.5335135240696445 [Eh]
	 Correlation Energy        =      -2.0304684028246980 [Eh]
	 Total Energy              =    -472.8592368297300936 [Eh]

	 ================> DF-SCS-MP2 Energies <==================
	-----------------------------------------------------------
	 SCS Same-Spin Scale       =       0.3333333333333333 [-]
	 SCS Opposite-Spin Scale   =       1.2000000000000000 [-]
	 SCS Same-Spin Energy      =      -0.1656516262516845 [Eh]
	 SCS Opposite-Spin Energy  =      -1.8402162288835733 [Eh]
	 SCS Correlation Energy    =      -2.0058678551352580 [Eh]
	 SCS Total Energy          =    -472.8346362820406625 [Eh]
	-----------------------------------------------------------

  Dipole Moment: [D]
     X:     1.1455      Y:    -0.0136      Z:    -0.0000     Total:     1.1455

*** Psi4 exiting successfully. Buy a developer a beer!
