                               Psi4 1.3.2 release

  ==> Input File <==

--------------------------------------------------------------------------
#psi4
#
memory 32 gb

molecule  {
0 1
  O       -1.2482290     1.5306510     0.0000030
  N        1.4640540     0.4968240    -0.0000070
  N        0.6053200    -1.5732460     0.0000100
  N       -1.9984820    -0.6503890    -0.0000010
  C        0.2757282    -0.1814939     0.0000098
  C        2.5213300    -0.3786110    -0.0000100
  C        1.5711040     1.9546380     0.0000020
  C       -1.0383320     0.3066720     0.0000020
  C        1.9690460    -1.6456460     0.0000000
  C       -3.4103270    -0.3314980    -0.0000060
  H        3.5447240    -0.0301030    -0.0000120
  H        1.0842430     2.3633630    -0.8839110
  H        1.0842880     2.3633490     0.8839480
  H        2.6322840     2.2067670    -0.0000220
  H        2.4866360    -2.5959740    -0.0000050
  H       -1.6732310    -1.6118380    -0.0000010
  H       -3.9026090    -0.7325290     0.8908020
  H       -3.9026030    -0.7325320    -0.8908160
  H       -3.4966990     0.7550430    -0.0000090
units angstrom
no_reorient  #important for SAPT in psi4, default
symmetry c1  #important for SAPT in psi4, default
}

set PROPERTIES_ORIGIN ["COM"]
properties('MP2/aug-cc-pvtz', properties = ['dipole'])
--------------------------------------------------------------------------

    Molecular point group: c1
  Charge       = 0
  Multiplicity = 1
  Basis Set: AUG-CC-PVTZ
    Blend: AUG-CC-PVTZ
  Basis Set: (AUG-CC-PVTZ AUX)
    Blend: AUG-CC-PVTZ-JKFIT

    Orbital Energies [Eh]
    ---------------------

    Doubly Occupied:

       1A    -20.517840     2A    -15.648822     3A    -15.582518
       4A    -15.571515     5A    -11.355806     6A    -11.304706
       7A    -11.276835     8A    -11.275063     9A    -11.260179
      10A    -11.257133    11A     -1.381993    12A     -1.339273
      13A     -1.232624    14A     -1.175719    15A     -1.043970
      16A     -0.980111    17A     -0.950778    18A     -0.856295
      19A     -0.809841    20A     -0.771487    21A     -0.734936
      22A     -0.665424    23A     -0.657243    24A     -0.646179
      25A     -0.618461    26A     -0.605459    27A     -0.592001
      28A     -0.587390    29A     -0.562896    30A     -0.557715
      31A     -0.544252    32A     -0.527579    33A     -0.444676
      34A     -0.437374    35A     -0.394952    36A     -0.386722
      37A     -0.320304

  @DF-RHF Final Energy:  -470.81553979074585

   => Energetics <=

    Nuclear Repulsion Energy =            527.0281045709599539
    One-Electron Energy =               -1685.9351513467756831
    Two-Electron Energy =                 688.0915069850698274
    Total Energy =                       -470.8155397907457882
  Basis Set: (AUG-CC-PVTZ AUX)
    Blend: AUG-CC-PVTZ-RI
    Molecular point group: c1

    Geometry (in Angstrom), charge = 0, multiplicity = 1:

       Center              X                  Y                   Z               Mass
    ------------   -----------------  -----------------  -----------------  -----------------
         O           -1.259232049261     1.537900449446     0.000002831835    15.994914619570
         N            1.453050950739     0.504073449446    -0.000007168165    14.003074004430
         N            0.594316950739    -1.565996550554     0.000009831835    14.003074004430
         N           -2.009485049261    -0.643139550554    -0.000001168165    14.003074004430
         C            0.264725150739    -0.174244450554     0.000009631835    12.000000000000
         C            2.510326950739    -0.371361550554    -0.000010168165    12.000000000000
         C            1.560100950739     1.961887449446     0.000001831835    12.000000000000
         C           -1.049335049261     0.313921449446     0.000001831835    12.000000000000
         C            1.958042950739    -1.638396550554    -0.000000168165    12.000000000000
         C           -3.421330049261    -0.324248550554    -0.000006168165    12.000000000000
         H            3.533720950739    -0.022853550554    -0.000012168165     1.007825032230
         H            1.073239950739     2.370612449446    -0.883911168165     1.007825032230
         H            1.073284950739     2.370598449446     0.883947831835     1.007825032230
         H            2.621280950739     2.214016449446    -0.000022168165     1.007825032230
         H            2.475632950739    -2.588724550554    -0.000005168165     1.007825032230
         H           -1.684234049261    -1.604588550554    -0.000001168165     1.007825032230
         H           -3.913612049261    -0.725279550554     0.890801831835     1.007825032230
         H           -3.913606049261    -0.725282550554    -0.890816168165     1.007825032230
         H           -3.507702049261     0.762292449446    -0.000009168165     1.007825032230

  Basis Set: AUG-CC-PVTZ
    Blend: AUG-CC-PVTZ
  Basis Set: (AUG-CC-PVTZ AUX)
    Blend: AUG-CC-PVTZ-JKFIT
	 Reference Energy          =    -470.8155397907458450 [Eh]
	 Singles Energy            =      -0.0000000000000000 [Eh]
	 Same-Spin Energy          =      -0.5024365507392115 [Eh]
	 Opposite-Spin Energy      =      -1.5423740528045731 [Eh]
	 Correlation Energy        =      -2.0448106035437847 [Eh]
	 Total Energy              =    -472.8603503942896396 [Eh]

	 ================> DF-SCS-MP2 Energies <==================
	-----------------------------------------------------------
	 SCS Same-Spin Scale       =       0.3333333333333333 [-]
	 SCS Opposite-Spin Scale   =       1.2000000000000000 [-]
	 SCS Same-Spin Energy      =      -0.1674788502464038 [Eh]
	 SCS Opposite-Spin Energy  =      -1.8508488633654876 [Eh]
	 SCS Correlation Energy    =      -2.0183277136118916 [Eh]
	 SCS Total Energy          =    -472.8338675043577268 [Eh]
	-----------------------------------------------------------

  Dipole Moment: [D]
     X:     1.6910      Y:    -0.0044      Z:    -0.0000     Total:     1.6910

*** Psi4 exiting successfully. Buy a developer a beer!
