                               Psi4 1.4a3.dev225

  ==> Input File <==

--------------------------------------------------------------------------
#psi4
#
memory 32 gb

molecule  {
0 1
  O       -1.2482290     1.5306510     0.0000030
  N        1.4640540     0.4968240    -0.0000070
  N        0.6053200    -1.5732460     0.0000100
  N       -1.9984820    -0.6503890    -0.0000010
  C        0.3301100    -0.2822955     0.0000100
  C        2.5213300    -0.3786110    -0.0000100
  C        1.5711040     1.9546380     0.0000020
  C       -1.0383320     0.3066720     0.0000020
  C        1.9690460    -1.6456460     0.0000000
  C       -3.4103270    -0.3314980    -0.0000060
  H        3.5447240    -0.0301030    -0.0000120
  H        1.0842430     2.3633630    -0.8839110
  H        1.0842880     2.3633490     0.8839480
  H        2.6322840     2.2067670    -0.0000220
  H        2.4866360    -2.5959740    -0.0000050
  H       -1.6732310    -1.6118380    -0.0000010
  H       -3.9026090    -0.7325290     0.8908020
  H       -3.9026030    -0.7325320    -0.8908160
  H       -3.4966990     0.7550430    -0.0000090
units angstrom
no_reorient  #important for SAPT in psi4, default
symmetry c1  #important for SAPT in psi4, default
}

set PROPERTIES_ORIGIN ["COM"]
properties('MP2/aug-cc-pvtz', properties = ['dipole'])
--------------------------------------------------------------------------

    Molecular point group: c1
  Charge       = 0
  Multiplicity = 1
  Basis Set: AUG-CC-PVTZ
    Blend: AUG-CC-PVTZ
  Basis Set: (AUG-CC-PVTZ AUX)
    Blend: AUG-CC-PVTZ-JKFIT

    Orbital Energies [Eh]
    ---------------------

    Doubly Occupied:

       1A    -20.523037     2A    -15.635312     3A    -15.585028
       4A    -15.564780     5A    -11.362859     6A    -11.304891
       7A    -11.274471     8A    -11.272596     9A    -11.258397
      10A    -11.254506    11A     -1.381537    12A     -1.347137
      13A     -1.235045    14A     -1.194081    15A     -1.034947
      16A     -0.978894    17A     -0.949836    18A     -0.838812
      19A     -0.815090    20A     -0.773060    21A     -0.734300
      22A     -0.658950    23A     -0.655545    24A     -0.645735
      25A     -0.619135    26A     -0.605497    27A     -0.596661
      28A     -0.581367    29A     -0.563301    30A     -0.560882
      31A     -0.545863    32A     -0.530278    33A     -0.460799
      34A     -0.432663    35A     -0.400464    36A     -0.389305
      37A     -0.323413

  @DF-RHF Final Energy:  -470.83592602827935

   => Energetics <=

    Nuclear Repulsion Energy =            527.1429339350592045
    One-Electron Energy =               -1686.1807718427303371
    Two-Electron Energy =                 688.2019118793916732
    Total Energy =                       -470.8359260282793457
  Basis Set: (AUG-CC-PVTZ AUX)
    Blend: AUG-CC-PVTZ-RI
    Molecular point group: c1

    Geometry (in Angstrom), charge = 0, multiplicity = 1:

       Center              X                  Y                   Z               Mass
    ------------   -----------------  -----------------  -----------------  -----------------
         O           -1.263924363880     1.546598080294     0.000002814578    15.994914619570
         N            1.448358636120     0.512771080294    -0.000007185422    14.003074004430
         N            0.589624636120    -1.557298919706     0.000009814578    14.003074004430
         N           -2.014177363880    -0.634441919706    -0.000001185422    14.003074004430
         C            0.314414636120    -0.266348419706     0.000009814578    12.000000000000
         C            2.505634636120    -0.362663919706    -0.000010185422    12.000000000000
         C            1.555408636120     1.970585080294     0.000001814578    12.000000000000
         C           -1.054027363880     0.322619080294     0.000001814578    12.000000000000
         C            1.953350636120    -1.629698919706    -0.000000185422    12.000000000000
         C           -3.426022363880    -0.315550919706    -0.000006185422    12.000000000000
         H            3.529028636120    -0.014155919706    -0.000012185422     1.007825032230
         H            1.068547636120     2.379310080294    -0.883911185422     1.007825032230
         H            1.068592636120     2.379296080294     0.883947814578     1.007825032230
         H            2.616588636120     2.222714080294    -0.000022185422     1.007825032230
         H            2.470940636120    -2.580026919706    -0.000005185422     1.007825032230
         H           -1.688926363880    -1.595890919706    -0.000001185422     1.007825032230
         H           -3.918304363880    -0.716581919706     0.890801814578     1.007825032230
         H           -3.918298363880    -0.716584919706    -0.890816185422     1.007825032230
         H           -3.512394363880     0.770990080294    -0.000009185422     1.007825032230

  Basis Set: AUG-CC-PVTZ
    Blend: AUG-CC-PVTZ
  Basis Set: (AUG-CC-PVTZ AUX)
    Blend: AUG-CC-PVTZ-JKFIT
	 Reference Energy          =    -470.8359260282793457 [Eh]
	 Singles Energy            =      -0.0000000000000000 [Eh]
	 Same-Spin Energy          =      -0.4988704829625594 [Eh]
	 Opposite-Spin Energy      =      -1.5363651460662517 [Eh]
	 Correlation Energy        =      -2.0352356290288114 [Eh]
	 Total Energy              =    -472.8711616573081642 [Eh]

	 ================> DF-SCS-MP2 Energies <==================
	-----------------------------------------------------------
	 SCS Same-Spin Scale       =       0.3333333333333333 [-]
	 SCS Opposite-Spin Scale   =       1.2000000000000000 [-]
	 SCS Same-Spin Energy      =      -0.1662901609875198 [Eh]
	 SCS Opposite-Spin Energy  =      -1.8436381752795019 [Eh]
	 SCS Correlation Energy    =      -2.0099283362670217 [Eh]
	 SCS Total Energy          =    -472.8458543645463692 [Eh]
	-----------------------------------------------------------

  Dipole Moment: [D]
     X:     1.3400      Y:    -0.0018      Z:    -0.0000     Total:     1.3400

*** Psi4 exiting successfully. Buy a developer a beer!
