                               Psi4 1.3.2 release

  ==> Input File <==

--------------------------------------------------------------------------
#psi4
#
memory 32 gb

molecule  {
0 1
  O       -1.2482290     1.5306510     0.0000030
  N        1.4640540     0.4968240    -0.0000070
  N        0.6053200    -1.5732460     0.0000100
  N       -1.9984820    -0.6503890    -0.0000010
  C        0.3259400    -0.2627350     0.0000100
  C        2.5213300    -0.3786110    -0.0000100
  C        1.5711040     1.9546380     0.0000020
  C       -1.0383320     0.3066720     0.0000020
  C        1.9690460    -1.6456460     0.0000000
  C       -3.4103270    -0.3314980    -0.0000060
  H        3.5447240    -0.0301030    -0.0000120
  H        1.0842430     2.3633630    -0.8839110
  H        1.0842880     2.3633490     0.8839480
  H        2.6322840     2.2067670    -0.0000220
  H        2.5344663    -2.6837935    -0.0000055
  H       -1.6732310    -1.6118380    -0.0000010
  H       -3.9026090    -0.7325290     0.8908020
  H       -3.9026030    -0.7325320    -0.8908160
  H       -3.4966990     0.7550430    -0.0000090
units angstrom
no_reorient  #important for SAPT in psi4, default
symmetry c1  #important for SAPT in psi4, default
}

set PROPERTIES_ORIGIN ["COM"]
properties('MP2/aug-cc-pvtz', properties = ['dipole'])
--------------------------------------------------------------------------

    Molecular point group: c1
  Charge       = 0
  Multiplicity = 1
  Basis Set: AUG-CC-PVTZ
    Blend: AUG-CC-PVTZ
  Basis Set: (AUG-CC-PVTZ AUX)
    Blend: AUG-CC-PVTZ-JKFIT

    Orbital Energies [Eh]
    ---------------------

    Doubly Occupied:

       1A    -20.522627     2A    -15.638407     3A    -15.585101
       4A    -15.566476     5A    -11.362579     6A    -11.305626
       7A    -11.275253     8A    -11.273403     9A    -11.266203
      10A    -11.258506    11A     -1.382092    12A     -1.347036
      13A     -1.234925    14A     -1.191078    15A     -1.035130
      16A     -0.979656    17A     -0.949782    18A     -0.838551
      19A     -0.809300    20A     -0.773270    21A     -0.732007
      22A     -0.659179    23A     -0.656766    24A     -0.644954
      25A     -0.619392    26A     -0.599467    27A     -0.593395
      28A     -0.581618    29A     -0.560618    30A     -0.556211
      31A     -0.545732    32A     -0.530348    33A     -0.457215
      34A     -0.434240    35A     -0.399683    36A     -0.389227
      37A     -0.323577

  @DF-RHF Final Energy:  -470.82763027194665

   => Energetics <=

    Nuclear Repulsion Energy =            526.6282091047837639
    One-Electron Energy =               -1685.1544152406099784
    Two-Electron Energy =                 687.6985758638795687
    Total Energy =                       -470.8276302719466457
  Basis Set: (AUG-CC-PVTZ AUX)
    Blend: AUG-CC-PVTZ-RI
    Molecular point group: c1

    Geometry (in Angstrom), charge = 0, multiplicity = 1:

       Center              X                  Y                   Z               Mass
    ------------   -----------------  -----------------  -----------------  -----------------
         O           -1.263911166453     1.545546706789     0.000002818202    15.994914619570
         N            1.448371833547     0.511719706789    -0.000007181798    14.003074004430
         N            0.589637833547    -1.558350293211     0.000009818202    14.003074004430
         N           -2.014164166453    -0.635493293211    -0.000001181798    14.003074004430
         C            0.310257833547    -0.247839293211     0.000009818202    12.000000000000
         C            2.505647833547    -0.363715293211    -0.000010181798    12.000000000000
         C            1.555421833547     1.969533706789     0.000001818202    12.000000000000
         C           -1.054014166453     0.321567706789     0.000001818202    12.000000000000
         C            1.953363833547    -1.630750293211    -0.000000181798    12.000000000000
         C           -3.426009166453    -0.316602293211    -0.000006181798    12.000000000000
         H            3.529041833547    -0.015207293211    -0.000012181798     1.007825032230
         H            1.068560833547     2.378258706789    -0.883911181798     1.007825032230
         H            1.068605833547     2.378244706789     0.883947818202     1.007825032230
         H            2.616601833547     2.221662706789    -0.000022181798     1.007825032230
         H            2.518784133547    -2.668897793211    -0.000005681798     1.007825032230
         H           -1.688913166453    -1.596942293211    -0.000001181798     1.007825032230
         H           -3.918291166453    -0.717633293211     0.890801818202     1.007825032230
         H           -3.918285166453    -0.717636293211    -0.890816181798     1.007825032230
         H           -3.512381166453     0.769938706789    -0.000009181798     1.007825032230

  Basis Set: AUG-CC-PVTZ
    Blend: AUG-CC-PVTZ
  Basis Set: (AUG-CC-PVTZ AUX)
    Blend: AUG-CC-PVTZ-JKFIT
	 Reference Energy          =    -470.8276302719466457 [Eh]
	 Singles Energy            =      -0.0000000000000000 [Eh]
	 Same-Spin Energy          =      -0.4995617261252445 [Eh]
	 Opposite-Spin Energy      =      -1.5379899582727150 [Eh]
	 Correlation Energy        =      -2.0375516843979593 [Eh]
	 Total Energy              =    -472.8651819563445997 [Eh]

	 ================> DF-SCS-MP2 Energies <==================
	-----------------------------------------------------------
	 SCS Same-Spin Scale       =       0.3333333333333333 [-]
	 SCS Opposite-Spin Scale   =       1.2000000000000000 [-]
	 SCS Same-Spin Energy      =      -0.1665205753750815 [Eh]
	 SCS Opposite-Spin Energy  =      -1.8455879499272578 [Eh]
	 SCS Correlation Energy    =      -2.0121085253023394 [Eh]
	 SCS Total Energy          =    -472.8397387972489696 [Eh]
	-----------------------------------------------------------

  Dipole Moment: [D]
     X:     1.3678      Y:     0.0277      Z:    -0.0000     Total:     1.3681

*** Psi4 exiting successfully. Buy a developer a beer!
