                               Psi4 1.4a3.dev225

  ==> Input File <==

--------------------------------------------------------------------------
#psi4
#
memory 32 gb

molecule  {
0 1
  O       -1.2482290     1.5306510     0.0000030
  N        1.4640540     0.4968240    -0.0000070
  N        0.6053200    -1.5732460     0.0000100
  N       -1.9984820    -0.6503890    -0.0000010
  C        0.3259400    -0.2627350     0.0000100
  C        2.5213300    -0.3786110    -0.0000100
  C        1.5711040     1.9546380     0.0000020
  C       -1.0383320     0.3066720     0.0000020
  C        1.9490741    -1.6445857     0.0000001
  C       -3.4103270    -0.3314980    -0.0000060
  H        3.5447240    -0.0301030    -0.0000120
  H        1.0842430     2.3633630    -0.8839110
  H        1.0842880     2.3633490     0.8839480
  H        2.6322840     2.2067670    -0.0000220
  H        2.4866360    -2.5959740    -0.0000050
  H       -1.6732310    -1.6118380    -0.0000010
  H       -3.9026090    -0.7325290     0.8908020
  H       -3.9026030    -0.7325320    -0.8908160
  H       -3.4966990     0.7550430    -0.0000090
units angstrom
no_reorient  #important for SAPT in psi4, default
symmetry c1  #important for SAPT in psi4, default
}

set PROPERTIES_ORIGIN ["COM"]
properties('MP2/aug-cc-pvtz', properties = ['dipole'])
--------------------------------------------------------------------------

    Molecular point group: c1
  Charge       = 0
  Multiplicity = 1
  Basis Set: AUG-CC-PVTZ
    Blend: AUG-CC-PVTZ
  Basis Set: (AUG-CC-PVTZ AUX)
    Blend: AUG-CC-PVTZ-JKFIT

    Orbital Energies [Eh]
    ---------------------

    Doubly Occupied:

       1A    -20.521671     2A    -15.639351     3A    -15.584499
       4A    -15.564898     5A    -11.361688     6A    -11.304028
       7A    -11.275196     8A    -11.272378     9A    -11.258135
      10A    -11.255810    11A     -1.381725    12A     -1.348182
      13A     -1.234550    14A     -1.195145    15A     -1.034689
      16A     -0.980898    17A     -0.949946    18A     -0.839371
      19A     -0.814679    20A     -0.773201    21A     -0.735572
      22A     -0.659596    23A     -0.656763    24A     -0.645720
      25A     -0.618976    26A     -0.605853    27A     -0.595252
      28A     -0.582925    29A     -0.563485    30A     -0.561158
      31A     -0.545436    32A     -0.530071    33A     -0.457850
      34A     -0.433774    35A     -0.401181    36A     -0.389726
      37A     -0.320661

  @DF-RHF Final Energy:  -470.83477835561411

   => Energetics <=

    Nuclear Repulsion Energy =            527.4576504958013174
    One-Electron Energy =               -1686.7967818570800773
    Two-Electron Energy =                 688.5043530056645977
    Total Energy =                       -470.8347783556141621
  Basis Set: (AUG-CC-PVTZ AUX)
    Blend: AUG-CC-PVTZ-RI
    Molecular point group: c1

    Geometry (in Angstrom), charge = 0, multiplicity = 1:

       Center              X                  Y                   Z               Mass
    ------------   -----------------  -----------------  -----------------  -----------------
         O           -1.261841288471     1.544818821769     0.000002805950    15.994914619570
         N            1.450441711529     0.510991821769    -0.000007194050    14.003074004430
         N            0.591707711529    -1.559078178231     0.000009805950    14.003074004430
         N           -2.012094288471    -0.636221178231    -0.000001194050    14.003074004430
         C            0.312327711529    -0.248567178231     0.000009805950    12.000000000000
         C            2.507717711529    -0.364443178231    -0.000010194050    12.000000000000
         C            1.557491711529     1.968805821769     0.000001805950    12.000000000000
         C           -1.051944288471     0.320839821769     0.000001805950    12.000000000000
         C            1.935461811529    -1.630417878231    -0.000000094050    12.000000000000
         C           -3.423939288471    -0.317330178231    -0.000006194050    12.000000000000
         H            3.531111711529    -0.015935178231    -0.000012194050     1.007825032230
         H            1.070630711529     2.377530821769    -0.883911194050     1.007825032230
         H            1.070675711529     2.377516821769     0.883947805950     1.007825032230
         H            2.618671711529     2.220934821769    -0.000022194050     1.007825032230
         H            2.473023711529    -2.581806178231    -0.000005194050     1.007825032230
         H           -1.686843288471    -1.597670178231    -0.000001194050     1.007825032230
         H           -3.916221288471    -0.718361178231     0.890801805950     1.007825032230
         H           -3.916215288471    -0.718364178231    -0.890816194050     1.007825032230
         H           -3.510311288471     0.769210821769    -0.000009194050     1.007825032230

  Basis Set: AUG-CC-PVTZ
    Blend: AUG-CC-PVTZ
  Basis Set: (AUG-CC-PVTZ AUX)
    Blend: AUG-CC-PVTZ-JKFIT
	 Reference Energy          =    -470.8347783556141053 [Eh]
	 Singles Energy            =      -0.0000000000000000 [Eh]
	 Same-Spin Energy          =      -0.4995503740184392 [Eh]
	 Opposite-Spin Energy      =      -1.5370424612284184 [Eh]
	 Correlation Energy        =      -2.0365928352468576 [Eh]
	 Total Energy              =    -472.8713711908609412 [Eh]

	 ================> DF-SCS-MP2 Energies <==================
	-----------------------------------------------------------
	 SCS Same-Spin Scale       =       0.3333333333333333 [-]
	 SCS Opposite-Spin Scale   =       1.2000000000000000 [-]
	 SCS Same-Spin Energy      =      -0.1665167913394797 [Eh]
	 SCS Opposite-Spin Energy  =      -1.8444509534741020 [Eh]
	 SCS Correlation Energy    =      -2.0109677448135819 [Eh]
	 SCS Total Energy          =    -472.8457461004276752 [Eh]
	-----------------------------------------------------------

  Dipole Moment: [D]
     X:     1.4010      Y:     0.0105      Z:    -0.0000     Total:     1.4010

*** Psi4 exiting successfully. Buy a developer a beer!
