                               Psi4 1.3.2 release

  ==> Input File <==

--------------------------------------------------------------------------
#psi4
#
memory 32 gb

molecule  {
0 1
  O       -1.2482290     1.5306510     0.0000030
  N        1.4794935     0.5151427    -0.0000070
  N        0.6053200    -1.5732460     0.0000100
  N       -1.9984820    -0.6503890    -0.0000010
  C        0.3259400    -0.2627350     0.0000100
  C        2.5213300    -0.3786110    -0.0000100
  C        1.5711040     1.9546380     0.0000020
  C       -1.0383320     0.3066720     0.0000020
  C        1.9690460    -1.6456460     0.0000000
  C       -3.4103270    -0.3314980    -0.0000060
  H        3.5447240    -0.0301030    -0.0000120
  H        1.0842430     2.3633630    -0.8839110
  H        1.0842880     2.3633490     0.8839480
  H        2.6322840     2.2067670    -0.0000220
  H        2.4866360    -2.5959740    -0.0000050
  H       -1.6732310    -1.6118380    -0.0000010
  H       -3.9026090    -0.7325290     0.8908020
  H       -3.9026030    -0.7325320    -0.8908160
  H       -3.4966990     0.7550430    -0.0000090
units angstrom
no_reorient  #important for SAPT in psi4, default
symmetry c1  #important for SAPT in psi4, default
}

set PROPERTIES_ORIGIN ["COM"]
properties('MP2/aug-cc-pvtz', properties = ['dipole'])
--------------------------------------------------------------------------

    Molecular point group: c1
  Charge       = 0
  Multiplicity = 1
  Basis Set: AUG-CC-PVTZ
    Blend: AUG-CC-PVTZ
  Basis Set: (AUG-CC-PVTZ AUX)
    Blend: AUG-CC-PVTZ-JKFIT

    Orbital Energies [Eh]
    ---------------------

    Doubly Occupied:

       1A    -20.522090     2A    -15.637813     3A    -15.584703
       4A    -15.568758     5A    -11.362086     6A    -11.307051
       7A    -11.274612     8A    -11.272758     9A    -11.258284
      10A    -11.255737    11A     -1.380705    12A     -1.343639
      13A     -1.234854    14A     -1.194428    15A     -1.035269
      16A     -0.980717    17A     -0.948549    18A     -0.841058
      19A     -0.813283    20A     -0.773305    21A     -0.734935
      22A     -0.659294    23A     -0.655977    24A     -0.645716
      25A     -0.619374    26A     -0.605839    27A     -0.599365
      28A     -0.581375    29A     -0.562774    30A     -0.559095
      31A     -0.545663    32A     -0.529381    33A     -0.459728
      34A     -0.433652    35A     -0.399580    36A     -0.389119
      37A     -0.322157

  @DF-RHF Final Energy:  -470.83353046096744

   => Energetics <=

    Nuclear Repulsion Energy =            526.7770132135365202
    One-Electron Energy =               -1685.4356397108256260
    Two-Electron Energy =                 687.8250960363216109
    Total Energy =                       -470.8335304609674949
  Basis Set: (AUG-CC-PVTZ AUX)
    Blend: AUG-CC-PVTZ-RI
    Molecular point group: c1

    Geometry (in Angstrom), charge = 0, multiplicity = 1:

       Center              X                  Y                   Z               Mass
    ------------   -----------------  -----------------  -----------------  -----------------
         O           -1.265119121992     1.543065844744     0.000002814578    15.994914619570
         N            1.462603378008     0.527557544744    -0.000007185422    14.003074004430
         N            0.588429878008    -1.560831155256     0.000009814578    14.003074004430
         N           -2.015372121992    -0.637974155256    -0.000001185422    14.003074004430
         C            0.309049878008    -0.250320155256     0.000009814578    12.000000000000
         C            2.504439878008    -0.366196155256    -0.000010185422    12.000000000000
         C            1.554213878008     1.967052844744     0.000001814578    12.000000000000
         C           -1.055222121992     0.319086844744     0.000001814578    12.000000000000
         C            1.952155878008    -1.633231155256    -0.000000185422    12.000000000000
         C           -3.427217121992    -0.319083155256    -0.000006185422    12.000000000000
         H            3.527833878008    -0.017688155256    -0.000012185422     1.007825032230
         H            1.067352878008     2.375777844744    -0.883911185422     1.007825032230
         H            1.067397878008     2.375763844744     0.883947814578     1.007825032230
         H            2.615393878008     2.219181844744    -0.000022185422     1.007825032230
         H            2.469745878008    -2.583559155256    -0.000005185422     1.007825032230
         H           -1.690121121992    -1.599423155256    -0.000001185422     1.007825032230
         H           -3.919499121992    -0.720114155256     0.890801814578     1.007825032230
         H           -3.919493121992    -0.720117155256    -0.890816185422     1.007825032230
         H           -3.513589121992     0.767457844744    -0.000009185422     1.007825032230

  Basis Set: AUG-CC-PVTZ
    Blend: AUG-CC-PVTZ
  Basis Set: (AUG-CC-PVTZ AUX)
    Blend: AUG-CC-PVTZ-JKFIT
	 Reference Energy          =    -470.8335304609674381 [Eh]
	 Singles Energy            =      -0.0000000000000000 [Eh]
	 Same-Spin Energy          =      -0.4995763220116678 [Eh]
	 Opposite-Spin Energy      =      -1.5375681935175045 [Eh]
	 Correlation Energy        =      -2.0371445155291723 [Eh]
	 Total Energy              =    -472.8706749764966162 [Eh]

	 ================> DF-SCS-MP2 Energies <==================
	-----------------------------------------------------------
	 SCS Same-Spin Scale       =       0.3333333333333333 [-]
	 SCS Opposite-Spin Scale   =       1.2000000000000000 [-]
	 SCS Same-Spin Energy      =      -0.1665254406705559 [Eh]
	 SCS Opposite-Spin Energy  =      -1.8450818322210054 [Eh]
	 SCS Correlation Energy    =      -2.0116072728915615 [Eh]
	 SCS Total Energy          =    -472.8451377338590191 [Eh]
	-----------------------------------------------------------

  Dipole Moment: [D]
     X:     1.3866      Y:    -0.0463      Z:    -0.0000     Total:     1.3874

*** Psi4 exiting successfully. Buy a developer a beer!
