                               Psi4 1.4a3.dev225

  ==> Input File <==

--------------------------------------------------------------------------
#psi4
#
memory 32 gb

molecule  {
0 1
  O       -1.2482290     1.5306510     0.0000030
  N        1.4640540     0.4968240    -0.0000070
  N        0.6053200    -1.5732460     0.0000100
  N       -1.9984820    -0.6503890    -0.0000010
  C        0.3259400    -0.2627350     0.0000100
  C        2.5213300    -0.3786110    -0.0000100
  C        1.5711040     1.9546380     0.0000020
  C       -1.0383320     0.3066720     0.0000020
  C        1.9690460    -1.6456460     0.0000000
  C       -3.4103270    -0.3314980    -0.0000060
  H        3.4973932    -0.0462211    -0.0000119
  H        1.0842430     2.3633630    -0.8839110
  H        1.0842880     2.3633490     0.8839480
  H        2.6322840     2.2067670    -0.0000220
  H        2.4866360    -2.5959740    -0.0000050
  H       -1.6732310    -1.6118380    -0.0000010
  H       -3.9026090    -0.7325290     0.8908020
  H       -3.9026030    -0.7325320    -0.8908160
  H       -3.4966990     0.7550430    -0.0000090
units angstrom
no_reorient  #important for SAPT in psi4, default
symmetry c1  #important for SAPT in psi4, default
}

set PROPERTIES_ORIGIN ["COM"]
properties('MP2/aug-cc-pvtz', properties = ['dipole'])
--------------------------------------------------------------------------

    Molecular point group: c1
  Charge       = 0
  Multiplicity = 1
  Basis Set: AUG-CC-PVTZ
    Blend: AUG-CC-PVTZ
  Basis Set: (AUG-CC-PVTZ AUX)
    Blend: AUG-CC-PVTZ-JKFIT

    Orbital Energies [Eh]
    ---------------------

    Doubly Occupied:

       1A    -20.522269     2A    -15.637508     3A    -15.584767
       4A    -15.565222     5A    -11.362108     6A    -11.304719
       7A    -11.274988     8A    -11.266980     9A    -11.258286
      10A    -11.255145    11A     -1.381619    12A     -1.346254
      13A     -1.234576    14A     -1.190636    15A     -1.037150
      16A     -0.979567    17A     -0.951176    18A     -0.841384
      19A     -0.818715    20A     -0.773498    21A     -0.735301
      22A     -0.665323    23A     -0.656183    24A     -0.646419
      25A     -0.619116    26A     -0.607130    27A     -0.596837
      28A     -0.584011    29A     -0.563608    30A     -0.560117
      31A     -0.545679    32A     -0.529907    33A     -0.458039
      34A     -0.433809    35A     -0.399065    36A     -0.388759
      37A     -0.323078

  @DF-RHF Final Energy:  -470.83444984669069

   => Energetics <=

    Nuclear Repulsion Energy =            527.4076072480759194
    One-Electron Energy =               -1686.6862203117204899
    Two-Electron Energy =                 688.4441632169539389
    Total Energy =                       -470.8344498466906316
  Basis Set: (AUG-CC-PVTZ AUX)
    Blend: AUG-CC-PVTZ-RI
    Molecular point group: c1

    Geometry (in Angstrom), charge = 0, multiplicity = 1:

       Center              X                  Y                   Z               Mass
    ------------   -----------------  -----------------  -----------------  -----------------
         O           -1.263221567023     1.545027111655     0.000002813854    15.994914619570
         N            1.449061432977     0.511200111655    -0.000007186146    14.003074004430
         N            0.590327432977    -1.558869888345     0.000009813854    14.003074004430
         N           -2.013474567023    -0.636012888345    -0.000001186146    14.003074004430
         C            0.310947432977    -0.248358888345     0.000009813854    12.000000000000
         C            2.506337432977    -0.364234888345    -0.000010186146    12.000000000000
         C            1.556111432977     1.969014111655     0.000001813854    12.000000000000
         C           -1.053324567023     0.321048111655     0.000001813854    12.000000000000
         C            1.954053432977    -1.631269888345    -0.000000186146    12.000000000000
         C           -3.425319567023    -0.317121888345    -0.000006186146    12.000000000000
         H            3.482400632977    -0.031844988345    -0.000012086146     1.007825032230
         H            1.069250432977     2.377739111655    -0.883911186146     1.007825032230
         H            1.069295432977     2.377725111655     0.883947813854     1.007825032230
         H            2.617291432977     2.221143111655    -0.000022186146     1.007825032230
         H            2.471643432977    -2.581597888345    -0.000005186146     1.007825032230
         H           -1.688223567023    -1.597461888345    -0.000001186146     1.007825032230
         H           -3.917601567023    -0.718152888345     0.890801813854     1.007825032230
         H           -3.917595567023    -0.718155888345    -0.890816186146     1.007825032230
         H           -3.511691567023     0.769419111655    -0.000009186146     1.007825032230

  Basis Set: AUG-CC-PVTZ
    Blend: AUG-CC-PVTZ
  Basis Set: (AUG-CC-PVTZ AUX)
    Blend: AUG-CC-PVTZ-JKFIT
	 Reference Energy          =    -470.8344498466906884 [Eh]
	 Singles Energy            =      -0.0000000000000000 [Eh]
	 Same-Spin Energy          =      -0.4992075628124240 [Eh]
	 Opposite-Spin Energy      =      -1.5367498707940426 [Eh]
	 Correlation Energy        =      -2.0359574336064665 [Eh]
	 Total Energy              =    -472.8704072802971723 [Eh]

	 ================> DF-SCS-MP2 Energies <==================
	-----------------------------------------------------------
	 SCS Same-Spin Scale       =       0.3333333333333333 [-]
	 SCS Opposite-Spin Scale   =       1.2000000000000000 [-]
	 SCS Same-Spin Energy      =      -0.1664025209374747 [Eh]
	 SCS Opposite-Spin Energy  =      -1.8440998449528510 [Eh]
	 SCS Correlation Energy    =      -2.0105023658903254 [Eh]
	 SCS Total Energy          =    -472.8449522125810063 [Eh]
	-----------------------------------------------------------

  Dipole Moment: [D]
     X:     1.3925      Y:     0.0142      Z:    -0.0000     Total:     1.3925

*** Psi4 exiting successfully. Buy a developer a beer!
