                               Psi4 1.3.2 release

  ==> Input File <==

--------------------------------------------------------------------------
#psi4
#
memory 32 gb

molecule  {
0 1
  O       -1.2482290     1.5306510     0.0000030
  N        1.4640540     0.4968240    -0.0000070
  N        0.6053200    -1.5732460     0.0000100
  N       -1.9984820    -0.6503890    -0.0000010
  C        0.3031110    -0.2678105     0.0000102
  C        2.5213300    -0.3786110    -0.0000100
  C        1.5711040     1.9546380     0.0000020
  C       -1.0383320     0.3066720     0.0000020
  C        1.9690460    -1.6456460     0.0000000
  C       -3.4103270    -0.3314980    -0.0000060
  H        3.5447240    -0.0301030    -0.0000120
  H        1.0842430     2.3633630    -0.8839110
  H        1.0842880     2.3633490     0.8839480
  H        2.6322840     2.2067670    -0.0000220
  H        2.4866360    -2.5959740    -0.0000050
  H       -1.6732310    -1.6118380    -0.0000010
  H       -3.9026090    -0.7325290     0.8908020
  H       -3.9026030    -0.7325320    -0.8908160
  H       -3.4966990     0.7550430    -0.0000090
units angstrom
no_reorient  #important for SAPT in psi4, default
symmetry c1  #important for SAPT in psi4, default
}

set PROPERTIES_ORIGIN ["COM"]
properties('MP2/aug-cc-pvtz', properties = ['dipole'])
--------------------------------------------------------------------------

    Molecular point group: c1
  Charge       = 0
  Multiplicity = 1
  Basis Set: AUG-CC-PVTZ
    Blend: AUG-CC-PVTZ
  Basis Set: (AUG-CC-PVTZ AUX)
    Blend: AUG-CC-PVTZ-JKFIT

    Orbital Energies [Eh]
    ---------------------

    Doubly Occupied:

       1A    -20.522153     2A    -15.637451     3A    -15.584373
       4A    -15.567765     5A    -11.361109     6A    -11.305188
       7A    -11.274853     8A    -11.273657     9A    -11.258056
      10A    -11.255593    11A     -1.381250    12A     -1.342194
      13A     -1.234941    14A     -1.189389    15A     -1.037991
      16A     -0.978629    17A     -0.948929    18A     -0.844550
      19A     -0.812568    20A     -0.773094    21A     -0.733645
      22A     -0.660831    23A     -0.654236    24A     -0.646254
      25A     -0.618876    26A     -0.605283    27A     -0.594959
      28A     -0.583855    29A     -0.563245    30A     -0.559715
      31A     -0.545547    32A     -0.529437    33A     -0.457137
      34A     -0.434627    35A     -0.399065    36A     -0.388598
      37A     -0.322803

  @DF-RHF Final Energy:  -470.83310928580704

   => Energetics <=

    Nuclear Repulsion Energy =            527.0289411927030869
    One-Electron Energy =               -1685.9604121203035447
    Two-Electron Energy =                 688.0983616417934172
    Total Energy =                       -470.8331092858070406
  Basis Set: (AUG-CC-PVTZ AUX)
    Blend: AUG-CC-PVTZ-RI
    Molecular point group: c1

    Geometry (in Angstrom), charge = 0, multiplicity = 1:

       Center              X                  Y                   Z               Mass
    ------------   -----------------  -----------------  -----------------  -----------------
         O           -1.261594764595     1.545348247128     0.000002797321    15.994914619570
         N            1.450688235405     0.511521247128    -0.000007202679    14.003074004430
         N            0.591954235405    -1.558548752872     0.000009797321    14.003074004430
         N           -2.011847764595    -0.635691752872    -0.000001202679    14.003074004430
         C            0.289745235405    -0.253113252872     0.000009997321    12.000000000000
         C            2.507964235405    -0.363913752872    -0.000010202679    12.000000000000
         C            1.557738235405     1.969335247128     0.000001797321    12.000000000000
         C           -1.051697764595     0.321369247128     0.000001797321    12.000000000000
         C            1.955680235405    -1.630948752872    -0.000000202679    12.000000000000
         C           -3.423692764595    -0.316800752872    -0.000006202679    12.000000000000
         H            3.531358235405    -0.015405752872    -0.000012202679     1.007825032230
         H            1.070877235405     2.378060247128    -0.883911202679     1.007825032230
         H            1.070922235405     2.378046247128     0.883947797321     1.007825032230
         H            2.618918235405     2.221464247128    -0.000022202679     1.007825032230
         H            2.473270235405    -2.581276752872    -0.000005202679     1.007825032230
         H           -1.686596764595    -1.597140752872    -0.000001202679     1.007825032230
         H           -3.915974764595    -0.717831752872     0.890801797321     1.007825032230
         H           -3.915968764595    -0.717834752872    -0.890816202679     1.007825032230
         H           -3.510064764595     0.769740247128    -0.000009202679     1.007825032230

  Basis Set: AUG-CC-PVTZ
    Blend: AUG-CC-PVTZ
  Basis Set: (AUG-CC-PVTZ AUX)
    Blend: AUG-CC-PVTZ-JKFIT
	 Reference Energy          =    -470.8331092858070406 [Eh]
	 Singles Energy            =      -0.0000000000000000 [Eh]
	 Same-Spin Energy          =      -0.4998101657305914 [Eh]
	 Opposite-Spin Energy      =      -1.5378912691059869 [Eh]
	 Correlation Energy        =      -2.0377014348365785 [Eh]
	 Total Energy              =    -472.8708107206436466 [Eh]

	 ================> DF-SCS-MP2 Energies <==================
	-----------------------------------------------------------
	 SCS Same-Spin Scale       =       0.3333333333333333 [-]
	 SCS Opposite-Spin Scale   =       1.2000000000000000 [-]
	 SCS Same-Spin Energy      =      -0.1666033885768638 [Eh]
	 SCS Opposite-Spin Energy  =      -1.8454695229271842 [Eh]
	 SCS Correlation Energy    =      -2.0120729115040481 [Eh]
	 SCS Total Energy          =    -472.8451821973110896 [Eh]
	-----------------------------------------------------------

  Dipole Moment: [D]
     X:     1.4254      Y:    -0.0284      Z:    -0.0000     Total:     1.4257

*** Psi4 exiting successfully. Buy a developer a beer!
