                               Psi4 1.3.2 release

  ==> Input File <==

--------------------------------------------------------------------------
#psi4
#
memory 32 gb

molecule  {
0 1
  O       -1.2482290     1.5306510     0.0000030
  N        1.4640540     0.4968240    -0.0000070
  N        0.6053200    -1.5732460     0.0000100
  N       -1.9984820    -0.6503890    -0.0000010
  C        0.1595850    -0.3737576     0.0000125
  C        2.5213300    -0.3786110    -0.0000100
  C        1.5711040     1.9546380     0.0000020
  C       -1.0383320     0.3066720     0.0000020
  C        1.9690460    -1.6456460     0.0000000
  C       -3.4103270    -0.3314980    -0.0000060
  H        3.5447240    -0.0301030    -0.0000120
  H        1.0842430     2.3633630    -0.8839110
  H        1.0842880     2.3633490     0.8839480
  H        2.6322840     2.2067670    -0.0000220
  H        2.4866360    -2.5959740    -0.0000050
  H       -1.6732310    -1.6118380    -0.0000010
  H       -3.9026090    -0.7325290     0.8908020
  H       -3.9026030    -0.7325320    -0.8908160
  H       -3.4966990     0.7550430    -0.0000090
units angstrom
no_reorient  #important for SAPT in psi4, default
symmetry c1  #important for SAPT in psi4, default
}

set PROPERTIES_ORIGIN ["COM"]
properties('MP2/aug-cc-pvtz', properties = ['dipole'])
--------------------------------------------------------------------------

    Molecular point group: c1
  Charge       = 0
  Multiplicity = 1
  Basis Set: AUG-CC-PVTZ
    Blend: AUG-CC-PVTZ
  Basis Set: (AUG-CC-PVTZ AUX)
    Blend: AUG-CC-PVTZ-JKFIT

    Orbital Energies [Eh]
    ---------------------

    Doubly Occupied:

       1A    -20.524743     2A    -15.621450     3A    -15.583786
       4A    -15.580719     5A    -11.358748     6A    -11.309980
       7A    -11.287696     8A    -11.263107     9A    -11.257509
      10A    -11.254835    11A     -1.382142    12A     -1.324553
      13A     -1.240934    14A     -1.190058    15A     -1.050002
      16A     -0.982766    17A     -0.934036    18A     -0.861521
      19A     -0.805429    20A     -0.773957    21A     -0.725615
      22A     -0.666763    23A     -0.650720    24A     -0.644399
      25A     -0.615415    26A     -0.611631    27A     -0.599288
      28A     -0.564190    29A     -0.562132    30A     -0.553886
      31A     -0.546053    32A     -0.527195    33A     -0.457505
      34A     -0.429816    35A     -0.405991    36A     -0.390308
      37A     -0.316645

  @DF-RHF Final Energy:  -470.78693522739553

   => Energetics <=

    Nuclear Repulsion Energy =            526.5207441823400814
    One-Electron Energy =               -1684.9043087181221381
    Two-Electron Energy =                 687.5966293083866958
    Total Energy =                       -470.7869352273954746
  Basis Set: (AUG-CC-PVTZ AUX)
    Blend: AUG-CC-PVTZ-RI
    Molecular point group: c1

    Geometry (in Angstrom), charge = 0, multiplicity = 1:

       Center              X                  Y                   Z               Mass
    ------------   -----------------  -----------------  -----------------  -----------------
         O           -1.249210673815     1.554489855647     0.000002598867    15.994914619570
         N            1.463072326185     0.520662855647    -0.000007401133    14.003074004430
         N            0.604338326185    -1.549407144353     0.000009598867    14.003074004430
         N           -1.999463673815    -0.626550144353    -0.000001401133    14.003074004430
         C            0.158603326185    -0.349918744353     0.000012098867    12.000000000000
         C            2.520348326185    -0.354772144353    -0.000010401133    12.000000000000
         C            1.570122326185     1.978476855647     0.000001598867    12.000000000000
         C           -1.039313673815     0.330510855647     0.000001598867    12.000000000000
         C            1.968064326185    -1.621807144353    -0.000000401133    12.000000000000
         C           -3.411308673815    -0.307659144353    -0.000006401133    12.000000000000
         H            3.543742326185    -0.006264144353    -0.000012401133     1.007825032230
         H            1.083261326185     2.387201855647    -0.883911401133     1.007825032230
         H            1.083306326185     2.387187855647     0.883947598867     1.007825032230
         H            2.631302326185     2.230605855647    -0.000022401133     1.007825032230
         H            2.485654326185    -2.572135144353    -0.000005401133     1.007825032230
         H           -1.674212673815    -1.587999144353    -0.000001401133     1.007825032230
         H           -3.903590673815    -0.708690144353     0.890801598867     1.007825032230
         H           -3.903584673815    -0.708693144353    -0.890816401133     1.007825032230
         H           -3.497680673815     0.778881855647    -0.000009401133     1.007825032230

  Basis Set: AUG-CC-PVTZ
    Blend: AUG-CC-PVTZ
  Basis Set: (AUG-CC-PVTZ AUX)
    Blend: AUG-CC-PVTZ-JKFIT
	 Reference Energy          =    -470.7869352273955315 [Eh]
	 Singles Energy            =      -0.0000000000000000 [Eh]
	 Same-Spin Energy          =      -0.5025934956571492 [Eh]
	 Opposite-Spin Energy      =      -1.5427455924648439 [Eh]
	 Correlation Energy        =      -2.0453390881219931 [Eh]
	 Total Energy              =    -472.8322743155175090 [Eh]

	 ================> DF-SCS-MP2 Energies <==================
	-----------------------------------------------------------
	 SCS Same-Spin Scale       =       0.3333333333333333 [-]
	 SCS Opposite-Spin Scale   =       1.2000000000000000 [-]
	 SCS Same-Spin Energy      =      -0.1675311652190497 [Eh]
	 SCS Opposite-Spin Energy  =      -1.8512947109578126 [Eh]
	 SCS Correlation Energy    =      -2.0188258761768623 [Eh]
	 SCS Total Energy          =    -472.8057611035724221 [Eh]
	-----------------------------------------------------------

  Dipole Moment: [D]
     X:     1.3112      Y:    -0.3917      Z:    -0.0000     Total:     1.3685

*** Psi4 exiting successfully. Buy a developer a beer!
